REMARK VINA RESULT:      -7.9      0.000      0.000
REMARK  Name = CHEMBL143143
REMARK  13 active torsions:
REMARK  status: ('A' for Active; 'I' for Inactive)
REMARK    1  A    between atoms: C1_1  and  C2_2
REMARK    2  A    between atoms: C2_2  and  C3_3
REMARK    3  A    between atoms: C2_2  and  C4_4
REMARK    4  A    between atoms: C7_7  and  C15_21
REMARK    5  A    between atoms: N1_8  and  C8_9
REMARK    6  A    between atoms: C8_9  and  C9_10
REMARK    7  A    between atoms: C9_10  and  C10_11
REMARK    8  A    between atoms: C10_11  and  C11_12
REMARK    9  A    between atoms: C10_11  and  O4_20
REMARK   10  A    between atoms: C11_12  and  C12_13
REMARK   11  A    between atoms: C12_13  and  C13_15
REMARK   12  A    between atoms: C12_13  and  O3_19
REMARK   13  A    between atoms: C13_15  and  C14_16
REMARK                            x       y       z     vdW  Elec       q    Type
REMARK                         _______ _______ _______ _____ _____    ______ ____
ROOT
ATOM      1  C4  <0> A   1     -14.316   6.624  45.292  0.00  0.00    +0.089 C 
ATOM      2  C5  <0> A   1     -15.248   6.954  46.211  0.00  0.00    -0.144 C 
ATOM      3  C6  <0> A   1     -15.018   8.286  46.596  0.00  0.00    -0.126 C 
ATOM      4  C7  <0> A   1     -13.940   8.731  45.890  0.00  0.00    +0.099 C 
ATOM      5  N1  <0> A   1     -13.505   7.703  45.091  0.00  0.00    -0.417 N 
ATOM      6 Br1  <0> A   1     -16.018   9.278  47.857  0.00  0.00    -0.015 Br
ATOM      7 Br2  <0> A   1     -16.619   5.826  46.865  0.00  0.00    -0.013 Br
ENDROOT
BRANCH   4   8
ATOM      8  C15 <0> A   1     -13.341  10.081  45.974  0.00  0.00    -0.041 A 
ATOM      9  C16 <0> A   1     -12.352  10.350  46.921  0.00  0.00    +0.056 A 
ATOM     10  C17 <0> A   1     -11.797  11.610  46.994  0.00  0.00    -0.007 A 
ATOM     11  C18 <0> A   1     -12.220  12.609  46.131  0.00  0.00    +0.110 A 
ATOM     12  C19 <0> A   1     -13.202  12.346  45.190  0.00  0.00    -0.007 A 
ATOM     13  C20 <0> A   1     -13.760  11.088  45.103  0.00  0.00    +0.080 A 
ATOM     14  F1  <0> A   1     -11.672  13.841  46.207  0.00  0.00    -0.136 F 
ENDBRANCH   4   8
BRANCH   1  16
ATOM     15  C1  <0> A   1     -14.175   4.176  45.658  0.00  0.00    +0.040 C 
ATOM     16  C2  <0> A   1     -14.188   5.288  44.607  0.00  0.00    +0.053 C 
ATOM     17  C3  <0> A   1     -15.374   5.083  43.663  0.00  0.00    +0.041 C 
ENDBRANCH   1  16
BRANCH   5  18
ATOM     18  C8  <0> A   1     -12.365   7.757  44.174  0.00  0.00    +0.302 C 
BRANCH  18  19
ATOM     19  C9  <0> A   1     -12.837   8.236  42.800  0.00  0.00    -0.014 C 
BRANCH  19  20
ATOM     20  C10 <0> A   1     -11.968   7.603  41.712  0.00  0.00    +0.218 C 
BRANCH  20  21
ATOM     21  O4  <0> A   1     -11.671   6.251  42.067  0.00  0.00    -0.541 OA
ATOM     22  H19 <0> A   1     -11.718   6.074  43.016  0.00  0.00    +0.367 HD
ENDBRANCH  20  21
BRANCH  20  23
ATOM     23  C11 <0> A   1     -12.722   7.627  40.379  0.00  0.00    -0.047 C 
BRANCH  23  24
ATOM     24  C12 <0> A   1     -12.579   9.009  39.739  0.00  0.00    +0.231 C 
BRANCH  24  25
ATOM     25  O3  <0> A   1     -12.203   8.864  38.368  0.00  0.00    -0.528 OA
ATOM     26  H18 <0> A   1     -12.143   9.700  37.886  0.00  0.00    +0.350 HD
ENDBRANCH  24  25
BRANCH  24  27
ATOM     27  C13 <0> A   1     -13.914   9.751  39.826  0.00  0.00    -0.102 C 
BRANCH  27  28
ATOM     28  C14 <0> A   1     -13.664  11.237  39.830  0.00  0.00    +0.491 C 
ATOM     29  O1  <0> A   1     -12.582  11.674  39.475  0.00  0.00    -0.681 OA
ATOM     30  O2  <0> A   1     -14.544  12.002  40.188  0.00  0.00    -0.712 OA
ENDBRANCH  27  28
ENDBRANCH  24  27
ENDBRANCH  23  24
ENDBRANCH  20  23
ENDBRANCH  19  20
ENDBRANCH  18  19
ENDBRANCH   5  18
TORSDOF 11
