REMARK VINA RESULT:      -7.0     15.066     18.143
REMARK  Name = CHEMBL445123
REMARK  15 active torsions:
REMARK  status: ('A' for Active; 'I' for Inactive)
REMARK    1  A    between atoms: C1_1  and  C2_2
REMARK    2  A    between atoms: C2_2  and  C3_3
REMARK    3  A    between atoms: C2_2  and  C4_4
REMARK    4  A    between atoms: C6_6  and  C22_30
REMARK    5  A    between atoms: C7_7  and  C16_23
REMARK    6  A    between atoms: N1_8  and  C8_9
REMARK    7  A    between atoms: C9_10  and  C10_11
REMARK    8  A    between atoms: C10_11  and  C11_13
REMARK    9  A    between atoms: C10_11  and  O4_22
REMARK   10  A    between atoms: C11_13  and  C12_14
REMARK   11  A    between atoms: C12_14  and  C13_16
REMARK   12  A    between atoms: C12_14  and  O3_21
REMARK   13  A    between atoms: C13_16  and  C14_17
REMARK   14  A    between atoms: C14_17  and  O2_19
REMARK   15  A    between atoms: O2_19  and  C15_20
REMARK                            x       y       z     vdW  Elec       q    Type
REMARK                         _______ _______ _______ _____ _____    ______ ____
ROOT
ATOM      1  C4  <0> A   1     -26.818  -1.697  50.639  0.00  0.00    +0.082 C 
ATOM      2  C5  <0> A   1     -26.529  -0.397  50.853  0.00  0.00    -0.144 C 
ATOM      3  C6  <0> A   1     -25.206  -0.327  51.351  0.00  0.00    -0.077 C 
ATOM      4  C7  <0> A   1     -24.732  -1.627  51.420  0.00  0.00    +0.073 C 
ATOM      5  N1  <0> A   1     -25.736  -2.456  50.984  0.00  0.00    -0.383 N 
ATOM      6 Br1  <0> A   1     -27.684   1.068  50.544  0.00  0.00    -0.015 Br
ENDROOT
BRANCH   4   7
ATOM      7  C16 <0> A   1     -23.395  -2.044  51.884  0.00  0.00    -0.035 A 
ATOM      8  C17 <0> A   1     -23.057  -1.941  53.236  0.00  0.00    +0.063 A 
ATOM      9  C18 <0> A   1     -21.805  -2.333  53.662  0.00  0.00    -0.011 A 
ATOM     10  C19 <0> A   1     -20.884  -2.829  52.753  0.00  0.00    +0.109 A 
ATOM     11  C20 <0> A   1     -21.213  -2.934  51.411  0.00  0.00    -0.010 A 
ATOM     12  C21 <0> A   1     -22.464  -2.551  50.973  0.00  0.00    +0.069 A 
ATOM     13  F1  <0> A   1     -19.659  -3.212  53.178  0.00  0.00    -0.136 F 
ENDBRANCH   4   7
BRANCH   3  14
ATOM     14  C22 <0> A   1     -24.469   0.902  51.726  0.00  0.00    -0.021 A 
ATOM     15  C23 <0> A   1     -23.430   1.368  50.919  0.00  0.00    +0.054 A 
ATOM     16  C24 <0> A   1     -22.747   2.513  51.272  0.00  0.00    -0.015 A 
ATOM     17  C25 <0> A   1     -23.089   3.200  52.426  0.00  0.00    +0.101 A 
ATOM     18  C26 <0> A   1     -24.119   2.740  53.231  0.00  0.00    -0.014 A 
ATOM     19  C27 <0> A   1     -24.813   1.599  52.883  0.00  0.00    +0.065 A 
ATOM     20  F2  <0> A   1     -22.416   4.320  52.768  0.00  0.00    -0.139 F 
ENDBRANCH   3  14
BRANCH   1  22
ATOM     21  C1  <0> A   1     -27.855  -3.366  49.127  0.00  0.00    +0.040 C 
ATOM     22  C2  <0> A   1     -28.127  -2.226  50.110  0.00  0.00    +0.051 C 
ATOM     23  C3  <0> A   1     -28.974  -2.747  51.274  0.00  0.00    +0.040 C 
ENDBRANCH   1  22
BRANCH   5  24
ATOM     24  C8  <0> A   1     -25.662  -3.846  50.904  0.00  0.00    +0.201 C 
ATOM     25  C9  <0> A   1     -25.814  -4.579  51.991  0.00  0.00    -0.048 C 
BRANCH  25  26
ATOM     26  C10 <0> A   1     -25.733  -6.081  51.904  0.00  0.00    +0.268 C 
BRANCH  26  27
ATOM     27  O4  <0> A   1     -26.969  -6.596  51.403  0.00  0.00    -0.538 OA
ATOM     28  H20 <0> A   1     -26.882  -7.439  50.937  0.00  0.00    +0.371 HD
ENDBRANCH  26  27
BRANCH  26  29
ATOM     29  C11 <0> A   1     -24.595  -6.477  50.963  0.00  0.00    -0.014 C 
BRANCH  29  30
ATOM     30  C12 <0> A   1     -25.142  -7.375  49.852  0.00  0.00    +0.233 C 
BRANCH  30  31
ATOM     31  O3  <0> A   1     -25.785  -6.570  48.862  0.00  0.00    -0.530 OA
ATOM     32  H19 <0> A   1     -26.751  -6.590  48.906  0.00  0.00    +0.366 HD
ENDBRANCH  30  31
BRANCH  30  33
ATOM     33  C13 <0> A   1     -23.990  -8.150  49.209  0.00  0.00    +0.073 C 
BRANCH  33  34
ATOM     34  C14 <0> A   1     -24.419  -8.659  47.857  0.00  0.00    +0.456 C 
ATOM     35  O1  <0> A   1     -23.994  -8.139  46.853  0.00  0.00    -0.486 OA
BRANCH  34  36
ATOM     36  O2  <0> A   1     -25.274  -9.690  47.768  0.00  0.00    -0.359 OA
ATOM     37  C15 <0> A   1     -24.823 -10.951  48.269  0.00  0.00    +0.258 C 
ENDBRANCH  34  36
ENDBRANCH  33  34
ENDBRANCH  30  33
ENDBRANCH  29  30
ENDBRANCH  26  29
ENDBRANCH  25  26
ENDBRANCH   5  24
TORSDOF 12
