REMARK VINA RESULT:      -7.7      3.679      6.692
REMARK  Name = CHEMBL427854
REMARK  15 active torsions:
REMARK  status: ('A' for Active; 'I' for Inactive)
REMARK    1  A    between atoms: C1_1  and  C2_2
REMARK    2  A    between atoms: C2_2  and  N1_3
REMARK    3  A    between atoms: C3_4  and  C21_25
REMARK    4  A    between atoms: C4_5  and  C15_18
REMARK    5  A    between atoms: C5_6  and  C14_17
REMARK    6  A    between atoms: C6_7  and  C7_8
REMARK    7  A    between atoms: N2_10  and  C8_11
REMARK    8  A    between atoms: C21_25  and  C22_26
REMARK    9  A    between atoms: C22_26  and  C23_27
REMARK   10  A    between atoms: C23_27  and  C24_29
REMARK   11  A    between atoms: C23_27  and  O5_37
REMARK   12  A    between atoms: C24_29  and  C25_30
REMARK   13  A    between atoms: C25_30  and  C26_32
REMARK   14  A    between atoms: C25_30  and  O4_36
REMARK   15  A    between atoms: C26_32  and  C27_33
REMARK                            x       y       z     vdW  Elec       q    Type
REMARK                         _______ _______ _______ _____ _____    ______ ____
ROOT
ATOM      1  N1  <0> A   1     -12.318   9.916  46.375  0.00  0.00    -0.407 N 
ATOM      2  C3  <0> A   1     -12.897   8.940  45.645  0.00  0.00    +0.082 C 
ATOM      3  C4  <0> A   1     -13.477   8.045  46.497  0.00  0.00    -0.141 C 
ATOM      4  C5  <0> A   1     -13.240   8.498  47.810  0.00  0.00    -0.082 C 
ATOM      5  C6  <0> A   1     -12.517   9.652  47.711  0.00  0.00    -0.059 C 
ATOM      6  C14 <0> A   1     -13.694   7.830  49.082  0.00  0.00    +0.110 C 
ENDROOT
BRANCH   3   7
ATOM      7  C15 <0> A   1     -14.223   6.820  46.112  0.00  0.00    -0.009 A 
ATOM      8  C16 <0> A   1     -15.596   6.880  45.885  0.00  0.00    +0.050 A 
ATOM      9  C17 <0> A   1     -16.285   5.739  45.527  0.00  0.00    -0.016 A 
ATOM     10  C18 <0> A   1     -15.612   4.536  45.391  0.00  0.00    +0.094 A 
ATOM     11  C19 <0> A   1     -14.246   4.471  45.615  0.00  0.00    -0.016 A 
ATOM     12  C20 <0> A   1     -13.549   5.609  45.969  0.00  0.00    +0.053 A 
ATOM     13  F1  <0> A   1     -16.290   3.422  45.040  0.00  0.00    -0.142 F 
ENDBRANCH   3   7
BRANCH   5  14
ATOM     14  C7  <0> A   1     -12.039  10.469  48.832  0.00  0.00    +0.602 C 
ATOM     15  O1  <0> A   1     -12.750  11.339  49.298  0.00  0.00    -0.498 OA
ATOM     16  N2  <0> A   1     -10.811  10.255  49.346  0.00  0.00    -0.661 N 
ATOM     17  H8  <0> A   1     -10.196   9.654  48.898  0.00  0.00    +0.415 HD
BRANCH  16  18
ATOM     18  C8  <0> A   1     -10.424  10.900  50.524  0.00  0.00    +0.144 A 
ATOM     19  C9  <0> A   1      -9.680  12.071  50.466  0.00  0.00    +0.017 A 
ATOM     20  C10 <0> A   1      -9.299  12.704  51.632  0.00  0.00    +0.026 A 
ATOM     21  C11 <0> A   1      -9.660  12.175  52.858  0.00  0.00    -0.019 A 
ATOM     22  C12 <0> A   1     -10.401  11.010  52.920  0.00  0.00    +0.026 A 
ATOM     23  C13 <0> A   1     -10.790  10.373  51.758  0.00  0.00    -0.027 A 
ENDBRANCH  16  18
ENDBRANCH   5  14
BRANCH   1  25
ATOM     24  C1  <0> A   1     -12.548  12.248  45.672  0.00  0.00    +0.040 C 
ATOM     25  C2  <0> A   1     -11.590  11.066  45.833  0.00  0.00    +0.280 C 
ENDBRANCH   1  25
BRANCH   2  26
ATOM     26  C21 <0> A   1     -12.903   8.854  44.141  0.00  0.00    +0.117 C 
BRANCH  26  27
ATOM     27  C22 <0> A   1     -11.623   8.163  43.665  0.00  0.00    -0.007 C 
BRANCH  27  28
ATOM     28  C23 <0> A   1     -11.804   7.693  42.220  0.00  0.00    +0.212 C 
BRANCH  28  29
ATOM     29  O5  <0> A   1     -11.921   6.269  42.194  0.00  0.00    -0.542 OA
ATOM     30  H30 <0> A   1     -12.492   5.907  42.885  0.00  0.00    +0.363 HD
ENDBRANCH  28  29
BRANCH  28  31
ATOM     31  C24 <0> A   1     -13.073   8.318  41.636  0.00  0.00    -0.051 C 
BRANCH  31  32
ATOM     32  C25 <0> A   1     -12.692   9.320  40.544  0.00  0.00    +0.231 C 
BRANCH  32  33
ATOM     33  O4  <0> A   1     -13.271   8.915  39.302  0.00  0.00    -0.528 OA
ATOM     34  H29 <0> A   1     -14.011   8.299  39.397  0.00  0.00    +0.349 HD
ENDBRANCH  32  33
BRANCH  32  35
ATOM     35  C26 <0> A   1     -13.212  10.709  40.921  0.00  0.00    -0.103 C 
BRANCH  35  36
ATOM     36  C27 <0> A   1     -13.974  11.292  39.759  0.00  0.00    +0.490 C 
ATOM     37  O2  <0> A   1     -13.383  11.902  38.886  0.00  0.00    -0.681 OA
ATOM     38  O3  <0> A   1     -15.184  11.152  39.693  0.00  0.00    -0.713 OA
ENDBRANCH  35  36
ENDBRANCH  32  35
ENDBRANCH  31  32
ENDBRANCH  28  31
ENDBRANCH  27  28
ENDBRANCH  26  27
ENDBRANCH   2  26
TORSDOF 13
