REMARK VINA RESULT:      -8.1      1.820      2.511
REMARK  Name = CHEMBL154698
REMARK  8 active torsions:
REMARK  status: ('A' for Active; 'I' for Inactive)
REMARK    1  A    between atoms: C1_1  and  C2_2
REMARK    2  A    between atoms: C2_2  and  C3_3
REMARK    3  A    between atoms: C2_2  and  C4_4
REMARK    4  A    between atoms: C6_6  and  C22_28
REMARK    5  A    between atoms: C7_8  and  C16_21
REMARK    6  A    between atoms: C8_9  and  C9_10
REMARK    7  A    between atoms: C10_11  and  C11_12
REMARK    8  A    between atoms: C13_14  and  O3_20
REMARK                            x       y       z     vdW  Elec       q    Type
REMARK                         _______ _______ _______ _____ _____    ______ ____
ROOT
ATOM      1  C4  <0> A   1     -25.480  -1.099  51.294  0.00  0.00    -0.012 A 
ATOM      2  C5  <0> A   1     -26.155   0.062  51.616  0.00  0.00    -0.017 A 
ATOM      3  C6  <0> A   1     -27.535   0.128  51.423  0.00  0.00    +0.179 A 
ATOM      4  N1  <0> A   1     -28.206  -0.906  50.934  0.00  0.00    -0.469 NA
ATOM      5  C7  <0> A   1     -27.600  -2.038  50.611  0.00  0.00    +0.188 A 
ATOM      6  C8  <0> A   1     -26.210  -2.174  50.775  0.00  0.00    -0.100 A 
ENDROOT
BRANCH   5   7
ATOM      7  C16 <0> A   1     -28.390  -3.167  50.069  0.00  0.00    -0.062 A 
ATOM      8  C17 <0> A   1     -28.326  -3.478  48.711  0.00  0.00    +0.080 A 
ATOM      9  C18 <0> A   1     -29.064  -4.531  48.210  0.00  0.00    -0.020 A 
ATOM     10  C19 <0> A   1     -29.869  -5.279  49.055  0.00  0.00    +0.114 A 
ATOM     11  C20 <0> A   1     -29.936  -4.974  50.405  0.00  0.00    -0.021 A 
ATOM     12  C21 <0> A   1     -29.198  -3.927  50.916  0.00  0.00    +0.088 A 
ATOM     13  F1  <0> A   1     -30.589  -6.309  48.560  0.00  0.00    -0.137 F 
ENDBRANCH   5   7
BRANCH   3  14
ATOM     14  C22 <0> A   1     -28.263   1.373  51.769  0.00  0.00    -0.052 A 
ATOM     15  C23 <0> A   1     -27.557   2.548  52.019  0.00  0.00    +0.025 A 
ATOM     16  C24 <0> A   1     -28.239   3.705  52.340  0.00  0.00    +0.003 A 
ATOM     17  C25 <0> A   1     -29.621   3.698  52.415  0.00  0.00    +0.017 A 
ATOM     18  C26 <0> A   1     -30.326   2.534  52.167  0.00  0.00    +0.001 A 
ATOM     19  C27 <0> A   1     -29.655   1.374  51.839  0.00  0.00    +0.056 A 
ENDBRANCH   3  14
BRANCH   1  21
ATOM     20  C1  <0> A   1     -23.331   0.127  51.117  0.00  0.00    +0.034 C 
ATOM     21  C2  <0> A   1     -23.989  -1.203  51.490  0.00  0.00    +0.028 C 
ATOM     22  C3  <0> A   1     -23.689  -1.528  52.956  0.00  0.00    +0.035 C 
ENDBRANCH   1  21
BRANCH   6  23
ATOM     23  C9  <0> A   1     -25.532  -3.433  50.411  0.00  0.00    +0.046 C 
ATOM     24  C10 <0> A   1     -25.409  -4.405  51.307  0.00  0.00    -0.008 C 
BRANCH  24  25
ATOM     25  C11 <0> A   1     -24.717  -5.691  50.934  0.00  0.00    +0.243 C 
ATOM     26  C12 <0> A   1     -25.561  -6.442  49.901  0.00  0.00    +0.051 C 
ATOM     27  C13 <0> A   1     -24.876  -7.769  49.555  0.00  0.00    +0.186 C 
ATOM     28  C14 <0> A   1     -24.735  -8.603  50.835  0.00  0.00    +0.024 C 
ATOM     29  C15 <0> A   1     -24.071  -7.745  51.889  0.00  0.00    +0.498 C 
ATOM     30  O1  <0> A   1     -23.131  -8.158  52.525  0.00  0.00    -0.449 OA
ATOM     31  O2  <0> A   1     -24.562  -6.506  52.100  0.00  0.00    -0.370 OA
BRANCH  27  32
ATOM     32  O3  <0> A   1     -23.584  -7.511  49.004  0.00  0.00    -0.563 OA
ATOM     33  H17 <0> A   1     -23.533  -6.697  48.484  0.00  0.00    +0.387 HD
ENDBRANCH  27  32
ENDBRANCH  24  25
ENDBRANCH   6  23
TORSDOF 6
