MODEL 1
REMARK VINA RESULT:      -8.3      0.000      0.000
REMARK  Name = CHEMBL296915
REMARK  7 active torsions:
REMARK  status: ('A' for Active; 'I' for Inactive)
REMARK    1  A    between atoms: C5_5  and  C14_15
REMARK    2  A    between atoms: C6_6  and  O1_7
REMARK    3  A    between atoms: O1_7  and  C7_8
REMARK    4  A    between atoms: C7_8  and  C8_9
REMARK    5  A    between atoms: C14_15  and  C15_16
REMARK    6  A    between atoms: C15_16  and  C16_17
REMARK    7  A    between atoms: C18_19  and  O4_25
REMARK                            x       y       z     vdW  Elec       q    Type
REMARK                         _______ _______ _______ _____ _____    ______ ____
ROOT
ATOM      1  C1  <0> A   1     -31.732  21.706  35.760  0.00  0.00    -0.053 A 
ATOM      2  C2  <0> A   1     -32.812  21.101  36.377  0.00  0.00    +0.013 A 
ATOM      3  C3  <0> A   1     -33.469  20.055  35.754  0.00  0.00    +0.007 A 
ATOM      4  C4  <0> A   1     -33.047  19.611  34.513  0.00  0.00    +0.013 A 
ATOM      5  C5  <0> A   1     -31.968  20.212  33.892  0.00  0.00    -0.102 A 
ATOM      6  C6  <0> A   1     -31.308  21.262  34.516  0.00  0.00    +0.162 A 
ATOM      7 Cl1  <0> A   1     -33.874  18.298  33.735  0.00  0.00    -0.038 Cl
ATOM      8 Cl2  <0> A   1     -33.343  21.655  37.933  0.00  0.00    -0.052 Cl
ENDROOT
BRANCH   6   9
ATOM      9  O1  <0> A   1     -30.247  21.855  33.908  0.00  0.00    -0.297 OA
BRANCH   9  10
ATOM     10  C7  <0> A   1     -30.375  23.241  33.586  0.00  0.00    +0.191 C 
BRANCH  10  11
ATOM     11  C8  <0> A   1     -29.036  23.945  33.821  0.00  0.00    +0.000 C 
ATOM     12  C9  <0> A   1     -27.991  23.389  32.853  0.00  0.00    +0.017 C 
ATOM     13  C10 <0> A   1     -26.652  24.092  33.088  0.00  0.00    +0.005 C 
ATOM     14  C11 <0> A   1     -26.194  23.848  34.527  0.00  0.00    +0.001 C 
ATOM     15  C12 <0> A   1     -27.240  24.402  35.496  0.00  0.00    +0.010 C 
ATOM     16  C13 <0> A   1     -28.579  23.700  35.261  0.00  0.00    +0.018 C 
ENDBRANCH  10  11
ENDBRANCH   9  10
ENDBRANCH   6   9
BRANCH   5  17
ATOM     17  C14 <0> A   1     -31.509  19.729  32.542  0.00  0.00    +0.097 C 
BRANCH  17  18
ATOM     18  C15 <0> A   1     -30.320  18.783  32.717  0.00  0.00    +0.061 C 
BRANCH  18  19
ATOM     19  C16 <0> A   1     -30.460  17.602  31.754  0.00  0.00    +0.199 C 
ATOM     20  C17 <0> A   1     -29.071  17.096  31.357  0.00  0.00    +0.041 C 
ATOM     21  C18 <0> A   1     -29.217  15.940  30.362  0.00  0.00    +0.184 C 
ATOM     22  C19 <0> A   1     -29.972  16.444  29.125  0.00  0.00    +0.020 C 
ATOM     23  C20 <0> A   1     -31.247  17.114  29.587  0.00  0.00    +0.496 C 
ATOM     24  O2  <0> A   1     -32.311  16.841  29.082  0.00  0.00    -0.453 OA
ATOM     25  O3  <0> A   1     -31.162  18.024  30.580  0.00  0.00    -0.366 OA
BRANCH  21  26
ATOM     26  O4  <0> A   1     -29.946  14.874  30.970  0.00  0.00    -0.563 OA
ATOM     27  H26 <0> A   1     -30.903  14.922  30.832  0.00  0.00    +0.386 HD
ENDBRANCH  21  26
ENDBRANCH  18  19
ENDBRANCH  17  18
ENDBRANCH   5  17
TORSDOF 7
ENDMDL
MODEL 2
REMARK VINA RESULT:      -8.1      2.869      6.916
REMARK  Name = CHEMBL296915
REMARK  7 active torsions:
REMARK  status: ('A' for Active; 'I' for Inactive)
REMARK    1  A    between atoms: C5_5  and  C14_15
REMARK    2  A    between atoms: C6_6  and  O1_7
REMARK    3  A    between atoms: O1_7  and  C7_8
REMARK    4  A    between atoms: C7_8  and  C8_9
REMARK    5  A    between atoms: C14_15  and  C15_16
REMARK    6  A    between atoms: C15_16  and  C16_17
REMARK    7  A    between atoms: C18_19  and  O4_25
REMARK                            x       y       z     vdW  Elec       q    Type
REMARK                         _______ _______ _______ _____ _____    ______ ____
ROOT
ATOM      1  C1  <0> A   1     -32.220  21.308  35.671  0.00  0.00    -0.053 A 
ATOM      2  C2  <0> A   1     -31.710  21.368  36.955  0.00  0.00    +0.013 A 
ATOM      3  C3  <0> A   1     -30.695  22.259  37.256  0.00  0.00    +0.007 A 
ATOM      4  C4  <0> A   1     -30.189  23.092  36.274  0.00  0.00    +0.013 A 
ATOM      5  C5  <0> A   1     -30.696  23.035  34.989  0.00  0.00    -0.102 A 
ATOM      6  C6  <0> A   1     -31.714  22.142  34.685  0.00  0.00    +0.162 A 
ATOM      7 Cl1  <0> A   1     -28.915  24.208  36.656  0.00  0.00    -0.038 Cl
ATOM      8 Cl2  <0> A   1     -32.344  20.325  38.189  0.00  0.00    -0.052 Cl
ENDROOT
BRANCH   6   9
ATOM      9  O1  <0> A   1     -32.213  22.085  33.423  0.00  0.00    -0.297 OA
BRANCH   9  10
ATOM     10  C7  <0> A   1     -32.936  20.906  33.064  0.00  0.00    +0.191 C 
BRANCH  10  11
ATOM     11  C8  <0> A   1     -32.128  20.105  32.041  0.00  0.00    +0.000 C 
ATOM     12  C9  <0> A   1     -33.007  19.794  30.828  0.00  0.00    +0.017 C 
ATOM     13  C10 <0> A   1     -32.200  18.992  29.804  0.00  0.00    +0.005 C 
ATOM     14  C11 <0> A   1     -31.727  17.684  30.439  0.00  0.00    +0.001 C 
ATOM     15  C12 <0> A   1     -30.848  17.994  31.653  0.00  0.00    +0.010 C 
ATOM     16  C13 <0> A   1     -31.655  18.796  32.676  0.00  0.00    +0.018 C 
ENDBRANCH  10  11
ENDBRANCH   9  10
ENDBRANCH   6   9
BRANCH   5  17
ATOM     17  C14 <0> A   1     -30.144  23.942  33.921  0.00  0.00    +0.097 C 
BRANCH  17  18
ATOM     18  C15 <0> A   1     -29.097  23.186  33.101  0.00  0.00    +0.061 C 
BRANCH  18  19
ATOM     19  C16 <0> A   1     -27.777  23.959  33.120  0.00  0.00    +0.199 C 
ATOM     20  C17 <0> A   1     -26.958  23.606  31.876  0.00  0.00    +0.041 C 
ATOM     21  C18 <0> A   1     -25.620  24.351  31.921  0.00  0.00    +0.184 C 
ATOM     22  C19 <0> A   1     -24.863  23.935  33.189  0.00  0.00    +0.020 C 
ATOM     23  C20 <0> A   1     -25.787  24.116  34.374  0.00  0.00    +0.496 C 
ATOM     24  O2  <0> A   1     -25.420  24.702  35.364  0.00  0.00    -0.453 OA
ATOM     25  O3  <0> A   1     -27.033  23.604  34.291  0.00  0.00    -0.366 OA
BRANCH  21  26
ATOM     26  O4  <0> A   1     -25.856  25.760  31.942  0.00  0.00    -0.563 OA
ATOM     27  H26 <0> A   1     -26.762  26.011  31.715  0.00  0.00    +0.386 HD
ENDBRANCH  21  26
ENDBRANCH  18  19
ENDBRANCH  17  18
ENDBRANCH   5  17
TORSDOF 7
ENDMDL
MODEL 3
REMARK VINA RESULT:      -7.8     31.745     33.509
REMARK  Name = CHEMBL296915
REMARK  7 active torsions:
REMARK  status: ('A' for Active; 'I' for Inactive)
REMARK    1  A    between atoms: C5_5  and  C14_15
REMARK    2  A    between atoms: C6_6  and  O1_7
REMARK    3  A    between atoms: O1_7  and  C7_8
REMARK    4  A    between atoms: C7_8  and  C8_9
REMARK    5  A    between atoms: C14_15  and  C15_16
REMARK    6  A    between atoms: C15_16  and  C16_17
REMARK    7  A    between atoms: C18_19  and  O4_25
REMARK                            x       y       z     vdW  Elec       q    Type
REMARK                         _______ _______ _______ _____ _____    ______ ____
ROOT
ATOM      1  C1  <0> A   1      -2.915   3.762  45.361  0.00  0.00    -0.053 A 
ATOM      2  C2  <0> A   1      -2.515   2.679  44.598  0.00  0.00    +0.013 A 
ATOM      3  C3  <0> A   1      -3.455   1.787  44.115  0.00  0.00    +0.007 A 
ATOM      4  C4  <0> A   1      -4.798   1.976  44.392  0.00  0.00    +0.013 A 
ATOM      5  C5  <0> A   1      -5.202   3.056  45.154  0.00  0.00    -0.102 A 
ATOM      6  C6  <0> A   1      -4.260   3.952  45.640  0.00  0.00    +0.162 A 
ATOM      7 Cl1  <0> A   1      -5.975   0.854  43.784  0.00  0.00    -0.038 Cl
ATOM      8 Cl2  <0> A   1      -0.832   2.440  44.248  0.00  0.00    -0.052 Cl
ENDROOT
BRANCH   6   9
ATOM      9  O1  <0> A   1      -4.655   5.015  46.389  0.00  0.00    -0.297 OA
BRANCH   9  10
ATOM     10  C7  <0> A   1      -3.793   6.154  46.404  0.00  0.00    +0.191 C 
BRANCH  10  11
ATOM     11  C8  <0> A   1      -3.805   6.783  47.799  0.00  0.00    +0.000 C 
ATOM     12  C9  <0> A   1      -2.776   7.913  47.858  0.00  0.00    +0.017 C 
ATOM     13  C10 <0> A   1      -2.787   8.543  49.253  0.00  0.00    +0.005 C 
ATOM     14  C11 <0> A   1      -2.435   7.479  50.295  0.00  0.00    +0.001 C 
ATOM     15  C12 <0> A   1      -3.464   6.348  50.236  0.00  0.00    +0.010 C 
ATOM     16  C13 <0> A   1      -3.453   5.719  48.841  0.00  0.00    +0.018 C 
ENDBRANCH  10  11
ENDBRANCH   9  10
ENDBRANCH   6   9
BRANCH   5  17
ATOM     17  C14 <0> A   1      -6.664   3.262  45.455  0.00  0.00    +0.097 C 
BRANCH  17  18
ATOM     18  C15 <0> A   1      -7.073   2.369  46.628  0.00  0.00    +0.061 C 
BRANCH  18  19
ATOM     19  C16 <0> A   1      -7.331   3.234  47.863  0.00  0.00    +0.199 C 
ATOM     20  C17 <0> A   1      -7.031   2.424  49.127  0.00  0.00    +0.041 C 
ATOM     21  C18 <0> A   1      -7.331   3.281  50.362  0.00  0.00    +0.184 C 
ATOM     22  C19 <0> A   1      -8.809   3.692  50.334  0.00  0.00    +0.020 C 
ATOM     23  C20 <0> A   1      -9.103   4.310  48.984  0.00  0.00    +0.496 C 
ATOM     24  O2  <0> A   1      -9.680   5.368  48.897  0.00  0.00    -0.453 OA
ATOM     25  O3  <0> A   1      -8.703   3.645  47.880  0.00  0.00    -0.366 OA
BRANCH  21  26
ATOM     26  O4  <0> A   1      -6.506   4.447  50.347  0.00  0.00    -0.563 OA
ATOM     27  H26 <0> A   1      -6.598   4.984  49.548  0.00  0.00    +0.386 HD
ENDBRANCH  21  26
ENDBRANCH  18  19
ENDBRANCH  17  18
ENDBRANCH   5  17
TORSDOF 7
ENDMDL
MODEL 4
REMARK VINA RESULT:      -7.6     21.956     23.637
REMARK  Name = CHEMBL296915
REMARK  7 active torsions:
REMARK  status: ('A' for Active; 'I' for Inactive)
REMARK    1  A    between atoms: C5_5  and  C14_15
REMARK    2  A    between atoms: C6_6  and  O1_7
REMARK    3  A    between atoms: O1_7  and  C7_8
REMARK    4  A    between atoms: C7_8  and  C8_9
REMARK    5  A    between atoms: C14_15  and  C15_16
REMARK    6  A    between atoms: C15_16  and  C16_17
REMARK    7  A    between atoms: C18_19  and  O4_25
REMARK                            x       y       z     vdW  Elec       q    Type
REMARK                         _______ _______ _______ _____ _____    ______ ____
ROOT
ATOM      1  C1  <0> A   1     -15.895   9.988  47.610  0.00  0.00    -0.053 A 
ATOM      2  C2  <0> A   1     -15.901  11.353  47.389  0.00  0.00    +0.013 A 
ATOM      3  C3  <0> A   1     -14.986  11.918  46.518  0.00  0.00    +0.007 A 
ATOM      4  C4  <0> A   1     -14.064  11.119  45.865  0.00  0.00    +0.013 A 
ATOM      5  C5  <0> A   1     -14.055   9.754  46.083  0.00  0.00    -0.102 A 
ATOM      6  C6  <0> A   1     -14.971   9.185  46.956  0.00  0.00    +0.162 A 
ATOM      7 Cl1  <0> A   1     -12.918  11.832  44.773  0.00  0.00    -0.038 Cl
ATOM      8 Cl2  <0> A   1     -17.057  12.358  48.205  0.00  0.00    -0.052 Cl
ENDROOT
BRANCH   6   9
ATOM      9  O1  <0> A   1     -14.964   7.843  47.172  0.00  0.00    -0.297 OA
BRANCH   9  10
ATOM     10  C7  <0> A   1     -16.208   7.156  47.028  0.00  0.00    +0.191 C 
BRANCH  10  11
ATOM     11  C8  <0> A   1     -15.969   5.807  46.346  0.00  0.00    +0.000 C 
ATOM     12  C9  <0> A   1     -14.474   5.483  46.366  0.00  0.00    +0.017 C 
ATOM     13  C10 <0> A   1     -14.234   4.134  45.684  0.00  0.00    +0.005 C 
ATOM     14  C11 <0> A   1     -14.722   4.202  44.235  0.00  0.00    +0.001 C 
ATOM     15  C12 <0> A   1     -16.217   4.527  44.215  0.00  0.00    +0.010 C 
ATOM     16  C13 <0> A   1     -16.457   5.875  44.897  0.00  0.00    +0.018 C 
ENDBRANCH  10  11
ENDBRANCH   9  10
ENDBRANCH   6   9
BRANCH   5  17
ATOM     17  C14 <0> A   1     -13.051   8.884  45.372  0.00  0.00    +0.097 C 
BRANCH  17  18
ATOM     18  C15 <0> A   1     -13.733   8.167  44.206  0.00  0.00    +0.061 C 
BRANCH  18  19
ATOM     19  C16 <0> A   1     -13.041   8.549  42.896  0.00  0.00    +0.199 C 
ATOM     20  C17 <0> A   1     -13.709   9.795  42.308  0.00  0.00    +0.041 C 
ATOM     21  C18 <0> A   1     -13.039  10.149  40.976  0.00  0.00    +0.184 C 
ATOM     22  C19 <0> A   1     -13.189   8.963  40.015  0.00  0.00    +0.020 C 
ATOM     23  C20 <0> A   1     -12.697   7.717  40.718  0.00  0.00    +0.496 C 
ATOM     24  O2  <0> A   1     -11.917   6.966  40.181  0.00  0.00    -0.453 OA
ATOM     25  O3  <0> A   1     -13.154   7.468  41.964  0.00  0.00    -0.366 OA
BRANCH  21  26
ATOM     26  O4  <0> A   1     -11.654  10.420  41.194  0.00  0.00    -0.563 OA
ATOM     27  H26 <0> A   1     -11.066  10.022  40.536  0.00  0.00    +0.386 HD
ENDBRANCH  21  26
ENDBRANCH  18  19
ENDBRANCH  17  18
ENDBRANCH   5  17
TORSDOF 7
ENDMDL
MODEL 5
REMARK VINA RESULT:      -7.6     21.721     23.210
REMARK  Name = CHEMBL296915
REMARK  7 active torsions:
REMARK  status: ('A' for Active; 'I' for Inactive)
REMARK    1  A    between atoms: C5_5  and  C14_15
REMARK    2  A    between atoms: C6_6  and  O1_7
REMARK    3  A    between atoms: O1_7  and  C7_8
REMARK    4  A    between atoms: C7_8  and  C8_9
REMARK    5  A    between atoms: C14_15  and  C15_16
REMARK    6  A    between atoms: C15_16  and  C16_17
REMARK    7  A    between atoms: C18_19  and  O4_25
REMARK                            x       y       z     vdW  Elec       q    Type
REMARK                         _______ _______ _______ _____ _____    ______ ____
ROOT
ATOM      1  C1  <0> A   1     -14.842  11.808  46.142  0.00  0.00    -0.053 A 
ATOM      2  C2  <0> A   1     -15.684  11.602  47.220  0.00  0.00    +0.013 A 
ATOM      3  C3  <0> A   1     -15.650  10.401  47.906  0.00  0.00    +0.007 A 
ATOM      4  C4  <0> A   1     -14.774   9.403  47.515  0.00  0.00    +0.013 A 
ATOM      5  C5  <0> A   1     -13.931   9.604  46.438  0.00  0.00    -0.102 A 
ATOM      6  C6  <0> A   1     -13.963  10.809  45.750  0.00  0.00    +0.162 A 
ATOM      7 Cl1  <0> A   1     -14.735   7.897  48.378  0.00  0.00    -0.038 Cl
ATOM      8 Cl2  <0> A   1     -16.783  12.851  47.713  0.00  0.00    -0.052 Cl
ENDROOT
BRANCH   6   9
ATOM      9  O1  <0> A   1     -13.135  11.009  44.691  0.00  0.00    -0.297 OA
BRANCH   9  10
ATOM     10  C7  <0> A   1     -13.663  11.743  43.584  0.00  0.00    +0.191 C 
BRANCH  10  11
ATOM     11  C8  <0> A   1     -13.843  10.804  42.389  0.00  0.00    +0.000 C 
ATOM     12  C9  <0> A   1     -12.539  10.045  42.137  0.00  0.00    +0.017 C 
ATOM     13  C10 <0> A   1     -12.717   9.106  40.941  0.00  0.00    +0.005 C 
ATOM     14  C11 <0> A   1     -13.079   9.924  39.701  0.00  0.00    +0.001 C 
ATOM     15  C12 <0> A   1     -14.383  10.684  39.953  0.00  0.00    +0.010 C 
ATOM     16  C13 <0> A   1     -14.204  11.622  41.148  0.00  0.00    +0.018 C 
ENDBRANCH  10  11
ENDBRANCH   9  10
ENDBRANCH   6   9
BRANCH   5  17
ATOM     17  C14 <0> A   1     -12.977   8.518  46.014  0.00  0.00    +0.097 C 
BRANCH  17  18
ATOM     18  C15 <0> A   1     -13.544   7.791  44.794  0.00  0.00    +0.061 C 
BRANCH  18  19
ATOM     19  C16 <0> A   1     -14.157   6.459  45.232  0.00  0.00    +0.199 C 
ATOM     20  C17 <0> A   1     -13.907   5.401  44.155  0.00  0.00    +0.041 C 
ATOM     21  C18 <0> A   1     -14.558   4.080  44.580  0.00  0.00    +0.184 C 
ATOM     22  C19 <0> A   1     -16.065   4.306  44.761  0.00  0.00    +0.020 C 
ATOM     23  C20 <0> A   1     -16.259   5.492  45.681  0.00  0.00    +0.496 C 
ATOM     24  O2  <0> A   1     -17.011   5.430  46.625  0.00  0.00    -0.453 OA
ATOM     25  O3  <0> A   1     -15.568   6.621  45.416  0.00  0.00    -0.366 OA
BRANCH  21  26
ATOM     26  O4  <0> A   1     -13.986   3.638  45.812  0.00  0.00    -0.563 OA
ATOM     27  H26 <0> A   1     -14.424   3.992  46.599  0.00  0.00    +0.386 HD
ENDBRANCH  21  26
ENDBRANCH  18  19
ENDBRANCH  17  18
ENDBRANCH   5  17
TORSDOF 7
ENDMDL
MODEL 6
REMARK VINA RESULT:      -7.6     21.776     23.430
REMARK  Name = CHEMBL296915
REMARK  7 active torsions:
REMARK  status: ('A' for Active; 'I' for Inactive)
REMARK    1  A    between atoms: C5_5  and  C14_15
REMARK    2  A    between atoms: C6_6  and  O1_7
REMARK    3  A    between atoms: O1_7  and  C7_8
REMARK    4  A    between atoms: C7_8  and  C8_9
REMARK    5  A    between atoms: C14_15  and  C15_16
REMARK    6  A    between atoms: C15_16  and  C16_17
REMARK    7  A    between atoms: C18_19  and  O4_25
REMARK                            x       y       z     vdW  Elec       q    Type
REMARK                         _______ _______ _______ _____ _____    ______ ____
ROOT
ATOM      1  C1  <0> A   1     -12.332  12.520  46.131  0.00  0.00    -0.053 A 
ATOM      2  C2  <0> A   1     -12.604  12.746  47.468  0.00  0.00    +0.013 A 
ATOM      3  C3  <0> A   1     -13.375  11.844  48.180  0.00  0.00    +0.007 A 
ATOM      4  C4  <0> A   1     -13.874  10.714  47.557  0.00  0.00    +0.013 A 
ATOM      5  C5  <0> A   1     -13.604  10.484  46.221  0.00  0.00    -0.102 A 
ATOM      6  C6  <0> A   1     -12.832  11.388  45.505  0.00  0.00    +0.162 A 
ATOM      7 Cl1  <0> A   1     -14.840   9.584  48.454  0.00  0.00    -0.038 Cl
ATOM      8 Cl2  <0> A   1     -11.979  14.162  48.252  0.00  0.00    -0.052 Cl
ENDROOT
BRANCH   6   9
ATOM      9  O1  <0> A   1     -12.566  11.164  44.191  0.00  0.00    -0.297 OA
BRANCH   9  10
ATOM     10  C7  <0> A   1     -13.466  11.735  43.240  0.00  0.00    +0.191 C 
BRANCH  10  11
ATOM     11  C8  <0> A   1     -13.729  10.728  42.118  0.00  0.00    +0.000 C 
ATOM     12  C9  <0> A   1     -12.552   9.757  42.019  0.00  0.00    +0.017 C 
ATOM     13  C10 <0> A   1     -12.814   8.749  40.897  0.00  0.00    +0.005 C 
ATOM     14  C11 <0> A   1     -12.972   9.495  39.570  0.00  0.00    +0.001 C 
ATOM     15  C12 <0> A   1     -14.149  10.468  39.669  0.00  0.00    +0.010 C 
ATOM     16  C13 <0> A   1     -13.888  11.474  40.792  0.00  0.00    +0.018 C 
ENDBRANCH  10  11
ENDBRANCH   9  10
ENDBRANCH   6   9
BRANCH   5  17
ATOM     17  C14 <0> A   1     -14.148   9.253  45.543  0.00  0.00    +0.097 C 
BRANCH  17  18
ATOM     18  C15 <0> A   1     -13.167   8.094  45.729  0.00  0.00    +0.061 C 
BRANCH  18  19
ATOM     19  C16 <0> A   1     -13.817   6.793  45.253  0.00  0.00    +0.199 C 
ATOM     20  C17 <0> A   1     -14.302   6.961  43.811  0.00  0.00    +0.041 C 
ATOM     21  C18 <0> A   1     -14.989   5.671  43.353  0.00  0.00    +0.184 C 
ATOM     22  C19 <0> A   1     -16.177   5.384  44.282  0.00  0.00    +0.020 C 
ATOM     23  C20 <0> A   1     -15.682   5.426  45.711  0.00  0.00    +0.496 C 
ATOM     24  O2  <0> A   1     -15.947   4.539  46.487  0.00  0.00    -0.453 OA
ATOM     25  O3  <0> A   1     -14.935   6.483  46.094  0.00  0.00    -0.366 OA
BRANCH  21  26
ATOM     26  O4  <0> A   1     -14.061   4.587  43.411  0.00  0.00    -0.563 OA
ATOM     27  H26 <0> A   1     -14.434   3.734  43.148  0.00  0.00    +0.386 HD
ENDBRANCH  21  26
ENDBRANCH  18  19
ENDBRANCH  17  18
ENDBRANCH   5  17
TORSDOF 7
ENDMDL
MODEL 7
REMARK VINA RESULT:      -7.5     34.737     36.853
REMARK  Name = CHEMBL296915
REMARK  7 active torsions:
REMARK  status: ('A' for Active; 'I' for Inactive)
REMARK    1  A    between atoms: C5_5  and  C14_15
REMARK    2  A    between atoms: C6_6  and  O1_7
REMARK    3  A    between atoms: O1_7  and  C7_8
REMARK    4  A    between atoms: C7_8  and  C8_9
REMARK    5  A    between atoms: C14_15  and  C15_16
REMARK    6  A    between atoms: C15_16  and  C16_17
REMARK    7  A    between atoms: C18_19  and  O4_25
REMARK                            x       y       z     vdW  Elec       q    Type
REMARK                         _______ _______ _______ _____ _____    ______ ____
ROOT
ATOM      1  C1  <0> A   1      -0.049  10.541  53.590  0.00  0.00    -0.053 A 
ATOM      2  C2  <0> A   1      -0.818  11.369  54.388  0.00  0.00    +0.013 A 
ATOM      3  C3  <0> A   1      -2.145  11.597  54.073  0.00  0.00    +0.007 A 
ATOM      4  C4  <0> A   1      -2.708  10.996  52.960  0.00  0.00    +0.013 A 
ATOM      5  C5  <0> A   1      -1.943  10.169  52.159  0.00  0.00    -0.102 A 
ATOM      6  C6  <0> A   1      -0.611   9.939  52.474  0.00  0.00    +0.162 A 
ATOM      7 Cl1  <0> A   1      -4.374  11.285  52.568  0.00  0.00    -0.038 Cl
ATOM      8 Cl2  <0> A   1      -0.116  12.122  55.785  0.00  0.00    -0.052 Cl
ENDROOT
BRANCH   6   9
ATOM      9  O1  <0> A   1       0.143   9.125  51.688  0.00  0.00    -0.297 OA
BRANCH   9  10
ATOM     10  C7  <0> A   1       1.449   9.588  51.340  0.00  0.00    +0.191 C 
BRANCH  10  11
ATOM     11  C8  <0> A   1       2.445   8.432  51.451  0.00  0.00    +0.000 C 
ATOM     12  C9  <0> A   1       2.810   8.212  52.920  0.00  0.00    +0.017 C 
ATOM     13  C10 <0> A   1       3.807   7.057  53.032  0.00  0.00    +0.005 C 
ATOM     14  C11 <0> A   1       5.071   7.395  52.238  0.00  0.00    +0.001 C 
ATOM     15  C12 <0> A   1       4.706   7.615  50.768  0.00  0.00    +0.010 C 
ATOM     16  C13 <0> A   1       3.708   8.770  50.657  0.00  0.00    +0.018 C 
ENDBRANCH  10  11
ENDBRANCH   9  10
ENDBRANCH   6   9
BRANCH   5  17
ATOM     17  C14 <0> A   1      -2.555   9.515  50.948  0.00  0.00    +0.097 C 
BRANCH  17  18
ATOM     18  C15 <0> A   1      -2.981   8.089  51.299  0.00  0.00    +0.061 C 
BRANCH  18  19
ATOM     19  C16 <0> A   1      -3.183   7.285  50.013  0.00  0.00    +0.199 C 
ATOM     20  C17 <0> A   1      -1.971   6.380  49.779  0.00  0.00    +0.041 C 
ATOM     21  C18 <0> A   1      -2.159   5.608  48.469  0.00  0.00    +0.184 C 
ATOM     22  C19 <0> A   1      -2.302   6.612  47.317  0.00  0.00    +0.020 C 
ATOM     23  C20 <0> A   1      -3.380   7.607  47.686  0.00  0.00    +0.496 C 
ATOM     24  O2  <0> A   1      -4.267   7.878  46.912  0.00  0.00    -0.453 OA
ATOM     25  O3  <0> A   1      -3.323   8.183  48.906  0.00  0.00    -0.366 OA
BRANCH  21  26
ATOM     26  O4  <0> A   1      -3.336   4.802  48.552  0.00  0.00    -0.563 OA
ATOM     27  H26 <0> A   1      -3.415   4.305  49.378  0.00  0.00    +0.386 HD
ENDBRANCH  21  26
ENDBRANCH  18  19
ENDBRANCH  17  18
ENDBRANCH   5  17
TORSDOF 7
ENDMDL
MODEL 8
REMARK VINA RESULT:      -7.5     29.504     31.122
REMARK  Name = CHEMBL296915
REMARK  7 active torsions:
REMARK  status: ('A' for Active; 'I' for Inactive)
REMARK    1  A    between atoms: C5_5  and  C14_15
REMARK    2  A    between atoms: C6_6  and  O1_7
REMARK    3  A    between atoms: O1_7  and  C7_8
REMARK    4  A    between atoms: C7_8  and  C8_9
REMARK    5  A    between atoms: C14_15  and  C15_16
REMARK    6  A    between atoms: C15_16  and  C16_17
REMARK    7  A    between atoms: C18_19  and  O4_25
REMARK                            x       y       z     vdW  Elec       q    Type
REMARK                         _______ _______ _______ _____ _____    ______ ____
ROOT
ATOM      1  C1  <0> A   1     -25.611  -1.112  50.295  0.00  0.00    -0.053 A 
ATOM      2  C2  <0> A   1     -26.863  -0.617  50.612  0.00  0.00    +0.013 A 
ATOM      3  C3  <0> A   1     -27.755  -1.395  51.329  0.00  0.00    +0.007 A 
ATOM      4  C4  <0> A   1     -27.395  -2.670  51.731  0.00  0.00    +0.013 A 
ATOM      5  C5  <0> A   1     -26.145  -3.169  51.416  0.00  0.00    -0.102 A 
ATOM      6  C6  <0> A   1     -25.250  -2.389  50.698  0.00  0.00    +0.162 A 
ATOM      7 Cl1  <0> A   1     -28.517  -3.643  52.630  0.00  0.00    -0.038 Cl
ATOM      8 Cl2  <0> A   1     -27.316   0.981  50.109  0.00  0.00    -0.052 Cl
ENDROOT
BRANCH   6   9
ATOM      9  O1  <0> A   1     -24.020  -2.877  50.387  0.00  0.00    -0.297 OA
BRANCH   9  10
ATOM     10  C7  <0> A   1     -22.892  -2.116  50.820  0.00  0.00    +0.191 C 
BRANCH  10  11
ATOM     11  C8  <0> A   1     -22.492  -2.553  52.231  0.00  0.00    +0.000 C 
ATOM     12  C9  <0> A   1     -22.535  -1.347  53.171  0.00  0.00    +0.017 C 
ATOM     13  C10 <0> A   1     -22.136  -1.784  54.582  0.00  0.00    +0.005 C 
ATOM     14  C11 <0> A   1     -20.718  -2.359  54.555  0.00  0.00    +0.001 C 
ATOM     15  C12 <0> A   1     -20.674  -3.565  53.615  0.00  0.00    +0.010 C 
ATOM     16  C13 <0> A   1     -21.074  -3.128  52.204  0.00  0.00    +0.018 C 
ENDBRANCH  10  11
ENDBRANCH   9  10
ENDBRANCH   6   9
BRANCH   5  17
ATOM     17  C14 <0> A   1     -25.754  -4.556  51.855  0.00  0.00    +0.097 C 
BRANCH  17  18
ATOM     18  C15 <0> A   1     -26.236  -5.572  50.819  0.00  0.00    +0.061 C 
BRANCH  18  19
ATOM     19  C16 <0> A   1     -25.097  -6.537  50.481  0.00  0.00    +0.199 C 
ATOM     20  C17 <0> A   1     -25.526  -7.453  49.332  0.00  0.00    +0.041 C 
ATOM     21  C18 <0> A   1     -24.398  -8.443  49.025  0.00  0.00    +0.184 C 
ATOM     22  C19 <0> A   1     -24.109  -9.271  50.284  0.00  0.00    +0.020 C 
ATOM     23  C20 <0> A   1     -23.887  -8.318  51.438  0.00  0.00    +0.496 C 
ATOM     24  O2  <0> A   1     -22.930  -8.435  52.166  0.00  0.00    -0.453 OA
ATOM     25  O3  <0> A   1     -24.790  -7.333  51.630  0.00  0.00    -0.366 OA
BRANCH  21  26
ATOM     26  O4  <0> A   1     -23.223  -7.728  48.639  0.00  0.00    -0.563 OA
ATOM     27  H26 <0> A   1     -23.080  -7.691  47.683  0.00  0.00    +0.386 HD
ENDBRANCH  21  26
ENDBRANCH  18  19
ENDBRANCH  17  18
ENDBRANCH   5  17
TORSDOF 7
ENDMDL
MODEL 9
REMARK VINA RESULT:      -7.5     22.353     23.760
REMARK  Name = CHEMBL296915
REMARK  7 active torsions:
REMARK  status: ('A' for Active; 'I' for Inactive)
REMARK    1  A    between atoms: C5_5  and  C14_15
REMARK    2  A    between atoms: C6_6  and  O1_7
REMARK    3  A    between atoms: O1_7  and  C7_8
REMARK    4  A    between atoms: C7_8  and  C8_9
REMARK    5  A    between atoms: C14_15  and  C15_16
REMARK    6  A    between atoms: C15_16  and  C16_17
REMARK    7  A    between atoms: C18_19  and  O4_25
REMARK                            x       y       z     vdW  Elec       q    Type
REMARK                         _______ _______ _______ _____ _____    ______ ____
ROOT
ATOM      1  C1  <0> A   1     -15.357   6.757  48.015  0.00  0.00    -0.053 A 
ATOM      2  C2  <0> A   1     -16.406   6.016  47.502  0.00  0.00    +0.013 A 
ATOM      3  C3  <0> A   1     -16.455   5.730  46.149  0.00  0.00    +0.007 A 
ATOM      4  C4  <0> A   1     -15.454   6.183  45.307  0.00  0.00    +0.013 A 
ATOM      5  C5  <0> A   1     -14.404   6.924  45.816  0.00  0.00    -0.102 A 
ATOM      6  C6  <0> A   1     -14.353   7.212  47.173  0.00  0.00    +0.162 A 
ATOM      7 Cl1  <0> A   1     -15.519   5.822  43.610  0.00  0.00    -0.038 Cl
ATOM      8 Cl2  <0> A   1     -17.661   5.446  48.555  0.00  0.00    -0.052 Cl
ENDROOT
BRANCH   6   9
ATOM      9  O1  <0> A   1     -13.321   7.940  47.675  0.00  0.00    -0.297 OA
BRANCH   9  10
ATOM     10  C7  <0> A   1     -13.650   8.976  48.603  0.00  0.00    +0.191 C 
BRANCH  10  11
ATOM     11  C8  <0> A   1     -13.283  10.334  48.000  0.00  0.00    +0.000 C 
ATOM     12  C9  <0> A   1     -14.451  10.850  47.157  0.00  0.00    +0.017 C 
ATOM     13  C10 <0> A   1     -14.085  12.209  46.554  0.00  0.00    +0.005 C 
ATOM     14  C11 <0> A   1     -12.846  12.056  45.670  0.00  0.00    +0.001 C 
ATOM     15  C12 <0> A   1     -11.678  11.539  46.513  0.00  0.00    +0.010 C 
ATOM     16  C13 <0> A   1     -12.044  10.182  47.116  0.00  0.00    +0.018 C 
ENDBRANCH  10  11
ENDBRANCH   9  10
ENDBRANCH   6   9
BRANCH   5  17
ATOM     17  C14 <0> A   1     -13.315   7.417  44.899  0.00  0.00    +0.097 C 
BRANCH  17  18
ATOM     18  C15 <0> A   1     -13.721   8.766  44.304  0.00  0.00    +0.061 C 
BRANCH  18  19
ATOM     19  C16 <0> A   1     -13.045   8.949  42.944  0.00  0.00    +0.199 C 
ATOM     20  C17 <0> A   1     -13.679  10.134  42.212  0.00  0.00    +0.041 C 
ATOM     21  C18 <0> A   1     -13.028  10.288  40.834  0.00  0.00    +0.184 C 
ATOM     22  C19 <0> A   1     -13.244   8.995  40.036  0.00  0.00    +0.020 C 
ATOM     23  C20 <0> A   1     -12.783   7.831  40.886  0.00  0.00    +0.496 C 
ATOM     24  O2  <0> A   1     -12.044   6.987  40.436  0.00  0.00    -0.453 OA
ATOM     25  O3  <0> A   1     -13.220   7.762  42.161  0.00  0.00    -0.366 OA
BRANCH  21  26
ATOM     26  O4  <0> A   1     -11.628  10.529  40.989  0.00  0.00    -0.563 OA
ATOM     27  H26 <0> A   1     -11.085  10.171  40.274  0.00  0.00    +0.386 HD
ENDBRANCH  21  26
ENDBRANCH  18  19
ENDBRANCH  17  18
ENDBRANCH   5  17
TORSDOF 7
ENDMDL
MODEL 10
REMARK VINA RESULT:      -7.5     22.022     23.630
REMARK  Name = CHEMBL296915
REMARK  7 active torsions:
REMARK  status: ('A' for Active; 'I' for Inactive)
REMARK    1  A    between atoms: C5_5  and  C14_15
REMARK    2  A    between atoms: C6_6  and  O1_7
REMARK    3  A    between atoms: O1_7  and  C7_8
REMARK    4  A    between atoms: C7_8  and  C8_9
REMARK    5  A    between atoms: C14_15  and  C15_16
REMARK    6  A    between atoms: C15_16  and  C16_17
REMARK    7  A    between atoms: C18_19  and  O4_25
REMARK                            x       y       z     vdW  Elec       q    Type
REMARK                         _______ _______ _______ _____ _____    ______ ____
ROOT
ATOM      1  C1  <0> A   1     -13.075  11.926  46.401  0.00  0.00    -0.053 A 
ATOM      2  C2  <0> A   1     -12.464  12.164  47.619  0.00  0.00    +0.013 A 
ATOM      3  C3  <0> A   1     -12.033  11.104  48.396  0.00  0.00    +0.007 A 
ATOM      4  C4  <0> A   1     -12.211   9.803  47.957  0.00  0.00    +0.013 A 
ATOM      5  C5  <0> A   1     -12.821   9.561  46.740  0.00  0.00    -0.102 A 
ATOM      6  C6  <0> A   1     -13.254  10.624  45.959  0.00  0.00    +0.162 A 
ATOM      7 Cl1  <0> A   1     -11.669   8.476  48.936  0.00  0.00    -0.038 Cl
ATOM      8 Cl2  <0> A   1     -12.238  13.793  48.172  0.00  0.00    -0.052 Cl
ENDROOT
BRANCH   6   9
ATOM      9  O1  <0> A   1     -13.854  10.388  44.763  0.00  0.00    -0.297 OA
BRANCH   9  10
ATOM     10  C7  <0> A   1     -13.975  11.496  43.868  0.00  0.00    +0.191 C 
BRANCH  10  11
ATOM     11  C8  <0> A   1     -13.416  11.107  42.498  0.00  0.00    +0.000 C 
ATOM     12  C9  <0> A   1     -14.431  11.468  41.412  0.00  0.00    +0.017 C 
ATOM     13  C10 <0> A   1     -13.873  11.079  40.041  0.00  0.00    +0.005 C 
ATOM     14  C11 <0> A   1     -13.606   9.573  40.008  0.00  0.00    +0.001 C 
ATOM     15  C12 <0> A   1     -12.592   9.211  41.095  0.00  0.00    +0.010 C 
ATOM     16  C13 <0> A   1     -13.149   9.601  42.465  0.00  0.00    +0.018 C 
ENDBRANCH  10  11
ENDBRANCH   9  10
ENDBRANCH   6   9
BRANCH   5  17
ATOM     17  C14 <0> A   1     -13.015   8.146  46.262  0.00  0.00    +0.097 C 
BRANCH  17  18
ATOM     18  C15 <0> A   1     -14.394   7.646  46.695  0.00  0.00    +0.061 C 
BRANCH  18  19
ATOM     19  C16 <0> A   1     -15.054   6.900  45.533  0.00  0.00    +0.199 C 
ATOM     20  C17 <0> A   1     -15.530   5.526  46.012  0.00  0.00    +0.041 C 
ATOM     21  C18 <0> A   1     -16.152   4.766  44.836  0.00  0.00    +0.184 C 
ATOM     22  C19 <0> A   1     -15.097   4.608  43.733  0.00  0.00    +0.020 C 
ATOM     23  C20 <0> A   1     -14.514   5.972  43.435  0.00  0.00    +0.496 C 
ATOM     24  O2  <0> A   1     -14.419   6.373  42.299  0.00  0.00    -0.453 OA
ATOM     25  O3  <0> A   1     -14.105   6.729  44.475  0.00  0.00    -0.366 OA
BRANCH  21  26
ATOM     26  O4  <0> A   1     -17.270   5.498  44.331  0.00  0.00    -0.563 OA
ATOM     27  H26 <0> A   1     -17.760   5.986  45.007  0.00  0.00    +0.386 HD
ENDBRANCH  21  26
ENDBRANCH  18  19
ENDBRANCH  17  18
ENDBRANCH   5  17
TORSDOF 7
ENDMDL
