REMARK VINA RESULT:      -8.6      0.000      0.000
REMARK  Name = CHEMBL340848
REMARK  10 active torsions:
REMARK  status: ('A' for Active; 'I' for Inactive)
REMARK    1  A    between atoms: C1_1  and  C2_2
REMARK    2  A    between atoms: C2_2  and  C3_3
REMARK    3  A    between atoms: C2_2  and  C4_4
REMARK    4  A    between atoms: C5_5  and  C20_23
REMARK    5  A    between atoms: C6_6  and  C14_16
REMARK    6  A    between atoms: N1_7  and  C7_9
REMARK    7  A    between atoms: C7_9  and  C8_10
REMARK    8  A    between atoms: C20_23  and  C21_24
REMARK    9  A    between atoms: C21_24  and  C22_25
REMARK   10  A    between atoms: C24_28  and  O3_34
REMARK                            x       y       z     vdW  Elec       q    Type
REMARK                         _______ _______ _______ _____ _____    ______ ____
ROOT
ATOM      1  C4  <0> A   1     -14.520   6.740  44.958  0.00  0.00    +0.088 C 
ATOM      2  C5  <0> A   1     -14.622   7.708  45.957  0.00  0.00    -0.208 C 
ATOM      3  C6  <0> A   1     -13.842   8.770  45.593  0.00  0.00    +0.125 C 
ATOM      4  N1  <0> A   1     -13.273   8.461  44.393  0.00  0.00    -0.359 N 
ATOM      5  N2  <0> A   1     -13.714   7.183  44.028  0.00  0.00    -0.275 NA
ENDROOT
BRANCH   3   6
ATOM      6  C14 <0> A   1     -13.652  10.021  46.358  0.00  0.00    -0.040 A 
ATOM      7  C15 <0> A   1     -12.552  10.164  47.204  0.00  0.00    +0.082 A 
ATOM      8  C16 <0> A   1     -12.379  11.333  47.914  0.00  0.00    -0.005 A 
ATOM      9  C17 <0> A   1     -13.296  12.365  47.790  0.00  0.00    +0.109 A 
ATOM     10  C18 <0> A   1     -14.390  12.228  46.950  0.00  0.00    -0.011 A 
ATOM     11  C19 <0> A   1     -14.569  11.065  46.231  0.00  0.00    +0.053 A 
ATOM     12  F1  <0> A   1     -13.122  13.508  48.489  0.00  0.00    -0.136 F 
ENDBRANCH   3   6
BRANCH   1  14
ATOM     13  C1  <0> A   1     -16.481   5.492  44.095  0.00  0.00    +0.032 C 
ATOM     14  C2  <0> A   1     -15.219   5.403  44.954  0.00  0.00    +0.073 C 
ATOM     15  C3  <0> A   1     -14.282   4.341  44.376  0.00  0.00    +0.033 C 
ENDBRANCH   1  14
BRANCH   4  16
ATOM     16  C7  <0> A   1     -12.358   9.312  43.628  0.00  0.00    +0.377 C 
BRANCH  16  17
ATOM     17  C8  <0> A   1     -13.090   9.901  42.448  0.00  0.00    -0.117 A 
ATOM     18  C9  <0> A   1     -12.921   9.358  41.189  0.00  0.00    +0.037 A 
ATOM     19  C10 <0> A   1     -13.592   9.899  40.108  0.00  0.00    +0.002 A 
ATOM     20  C11 <0> A   1     -14.431  10.982  40.287  0.00  0.00    +0.016 A 
ATOM     21  C12 <0> A   1     -14.601  11.524  41.547  0.00  0.00    +0.002 A 
ATOM     22  C13 <0> A   1     -13.933  10.981  42.629  0.00  0.00    +0.023 A 
ENDBRANCH  16  17
ENDBRANCH   4  16
BRANCH   2  23
ATOM     23  C20 <0> A   1     -15.445   7.602  47.215  0.00  0.00    +0.107 C 
BRANCH  23  24
ATOM     24  C21 <0> A   1     -16.930   7.719  46.864  0.00  0.00    +0.054 C 
BRANCH  24  25
ATOM     25  C22 <0> A   1     -17.710   6.610  47.573  0.00  0.00    +0.196 C 
ATOM     26  C23 <0> A   1     -17.158   6.422  48.988  0.00  0.00    +0.039 C 
ATOM     27  C24 <0> A   1     -17.968   5.342  49.711  0.00  0.00    +0.183 C 
ATOM     28  C25 <0> A   1     -19.438   5.777  49.767  0.00  0.00    +0.019 C 
ATOM     29  C26 <0> A   1     -19.879   6.143  48.366  0.00  0.00    +0.496 C 
ATOM     30  O1  <0> A   1     -20.905   5.704  47.904  0.00  0.00    -0.454 OA
ATOM     31  O2  <0> A   1     -19.094   6.973  47.649  0.00  0.00    -0.365 OA
BRANCH  27  32
ATOM     32  O3  <0> A   1     -17.860   4.107  48.999  0.00  0.00    -0.563 OA
ATOM     33  H29 <0> A   1     -17.016   3.989  48.541  0.00  0.00    +0.386 HD
ENDBRANCH  27  32
ENDBRANCH  24  25
ENDBRANCH  23  24
ENDBRANCH   2  23
TORSDOF 8
