REMARK  Name = CHEMBL77486
REMARK  14 active torsions:
REMARK  status: ('A' for Active; 'I' for Inactive)
REMARK    1  A    between atoms: C1_1  and  C2_2
REMARK    2  A    between atoms: C2_2  and  C3_3
REMARK    3  A    between atoms: C3_3  and  C4_5
REMARK    4  A    between atoms: C3_3  and  C5_6
REMARK    5  A    between atoms: C5_6  and  O2_8
REMARK    6  A    between atoms: O2_8  and  C6_9
REMARK    7  A    between atoms: C8_12  and  C24_38
REMARK    8  A    between atoms: C12_19  and  C17_26
REMARK    9  A    between atoms: C13_21  and  C16_25
REMARK   10  A    between atoms: C17_26  and  C18_27
REMARK   11  A    between atoms: C18_27  and  C19_28
REMARK   12  A    between atoms: C21_31  and  O5_37
REMARK   13  A    between atoms: C25_39  and  C26_40
REMARK   14  A    between atoms: C26_40  and  C27_41
REMARK                            x       y       z     vdW  Elec       q    Type
REMARK                         _______ _______ _______ _____ _____    ______ ____
ROOT
ATOM      1  C6  <0> A   1       1.698  -4.169  -2.340  0.00  0.00    +0.183 C 
ATOM      2  C7  <0> A   1       0.390  -4.662  -2.967  0.00  0.00    +0.020 C 
ATOM      3  C8  <0> A   1       0.305  -4.211  -4.426  0.00  0.00    +0.019 C 
ATOM      4  C9  <0> A   1       1.501  -4.755  -5.214  0.00  0.00    +0.034 C 
ATOM      5  C10 <0> A   1       2.787  -4.235  -4.577  0.00  0.00    +0.039 C 
ATOM      6  C11 <0> A   1       2.872  -4.740  -3.131  0.00  0.00    +0.017 C 
ATOM      7  C12 <0> A   1       4.209  -4.292  -2.540  0.00  0.00    +0.004 C 
ATOM      8  C13 <0> A   1       5.328  -5.044  -3.267  0.00  0.00    +0.023 C 
ATOM      9  C14 <0> A   1       5.117  -5.010  -4.751  0.00  0.00    -0.050 C 
ATOM     10  C15 <0> A   1       4.002  -4.681  -5.327  0.00  0.00    -0.043 C 
ATOM     11  C16 <0> A   1       5.345  -6.499  -2.795  0.00  0.00    +0.027 C 
ENDROOT
BRANCH   3  12
ATOM     12  C24 <0> A   1       0.313  -2.705  -4.485  0.00  0.00    -0.009 C 
ATOM     13  C25 <0> A   1      -0.747  -2.060  -4.905  0.00  0.00    -0.061 C 
BRANCH  13  14
ATOM     14  C26 <0> A   1      -0.698  -0.564  -5.082  0.00  0.00    +0.104 C 
BRANCH  14  15
ATOM     15  C27 <0> A   1      -1.083  -0.212  -6.495  0.00  0.00    -0.075 A 
ATOM     16  C28 <0> A   1      -0.114  -0.133  -7.477  0.00  0.00    +0.005 A 
ATOM     17  C29 <0> A   1      -0.467   0.189  -8.774  0.00  0.00    +0.002 A 
ATOM     18  C30 <0> A   1      -1.791   0.433  -9.089  0.00  0.00    -0.006 A 
ATOM     19  C31 <0> A   1      -2.761   0.353  -8.108  0.00  0.00    +0.002 A 
ATOM     20  C32 <0> A   1      -2.408   0.026  -6.812  0.00  0.00    +0.001 A 
ENDBRANCH  14  15
ENDBRANCH  13  14
ENDBRANCH   3  12
BRANCH   1  21
ATOM     21  O2  <0> A   1       1.741  -2.741  -2.382  0.00  0.00    -0.332 OA
BRANCH  21  22
ATOM     22  C5  <0> A   1       1.299  -2.086  -1.296  0.00  0.00    +0.460 C 
ATOM     23  O1  <0> A   1       0.790  -2.698  -0.387  0.00  0.00    -0.503 OA
BRANCH  22  24
ATOM     24  C3  <0> A   1       1.438  -0.588  -1.212  0.00  0.00    +0.022 C 
ATOM     25  C4  <0> A   1       0.561   0.067  -2.281  0.00  0.00    +0.056 C 
BRANCH  24  27
ATOM     26  C1  <0> A   1       1.254   1.391   0.302  0.00  0.00    +0.022 C 
ATOM     27  C2  <0> A   1       0.996  -0.112   0.173  0.00  0.00    +0.031 C 
ENDBRANCH  24  27
ENDBRANCH  22  24
ENDBRANCH  21  22
ENDBRANCH   1  21
BRANCH   7  28
ATOM     28  C17 <0> A   1       4.250  -4.621  -1.047  0.00  0.00    +0.019 C 
BRANCH  28  29
ATOM     29  C18 <0> A   1       5.535  -4.060  -0.435  0.00  0.00    +0.051 C 
BRANCH  29  30
ATOM     30  C19 <0> A   1       5.575  -4.389   1.058  0.00  0.00    +0.193 C 
ATOM     31  C20 <0> A   1       6.798  -3.724   1.695  0.00  0.00    +0.040 C 
ATOM     32  C21 <0> A   1       6.859  -4.090   3.182  0.00  0.00    +0.183 C 
ATOM     33  C22 <0> A   1       6.954  -5.616   3.314  0.00  0.00    +0.021 C 
ATOM     34  C23 <0> A   1       5.837  -6.233   2.501  0.00  0.00    +0.496 C 
ATOM     35  O3  <0> A   1       5.120  -7.083   2.975  0.00  0.00    -0.453 OA
ATOM     36  O4  <0> A   1       5.663  -5.808   1.233  0.00  0.00    -0.367 OA
BRANCH  32  37
ATOM     37  O5  <0> A   1       5.678  -3.624   3.838  0.00  0.00    -0.563 OA
ATOM     38  H35 <0> A   1       5.649  -3.822   4.784  0.00  0.00    +0.386 HD
ENDBRANCH  32  37
ENDBRANCH  29  30
ENDBRANCH  28  29
ENDBRANCH   7  28
TORSDOF 11
