REMARK VINA RESULT:      -8.8     20.688     24.390
REMARK  Name = CHEMBL355889
REMARK  10 active torsions:
REMARK  status: ('A' for Active; 'I' for Inactive)
REMARK    1  A    between atoms: C1_1  and  C2_2
REMARK    2  A    between atoms: C4_5  and  O4_28
REMARK    3  A    between atoms: C6_8  and  C13_17
REMARK    4  A    between atoms: C7_10  and  C12_16
REMARK    5  A    between atoms: C13_17  and  C14_18
REMARK    6  A    between atoms: C14_18  and  C15_19
REMARK    7  A    between atoms: C17_21  and  O3_27
REMARK    8  A    between atoms: O4_28  and  C20_29
REMARK    9  A    between atoms: C20_29  and  O6_31
REMARK   10  A    between atoms: O6_31  and  C21_32
REMARK                            x       y       z     vdW  Elec       q    Type
REMARK                         _______ _______ _______ _____ _____    ______ ____
ROOT
ATOM      1  C1  <0> A   1     -28.343   1.743  51.071  0.00  0.00    +0.035 C 
ATOM      2  C2  <0> A   1     -27.304   0.858  50.379  0.00  0.00    +0.027 C 
ATOM      3  C3  <0> A   1     -27.656  -0.620  50.593  0.00  0.00    +0.023 C 
ATOM      4  C4  <0> A   1     -26.615  -1.472  49.868  0.00  0.00    +0.191 C 
ATOM      5  C5  <0> A   1     -25.216  -1.202  50.372  0.00  0.00    +0.044 C 
ATOM      6  C6  <0> A   1     -24.757  -2.258  51.380  0.00  0.00    +0.012 C 
ATOM      7  C7  <0> A   1     -23.268  -2.053  51.662  0.00  0.00    +0.023 C 
ATOM      8  C8  <0> A   1     -22.960  -0.626  51.997  0.00  0.00    -0.030 C 
ATOM      9  C9  <0> A   1     -23.744   0.392  51.695  0.00  0.00    -0.005 C 
ATOM     10  C10 <0> A   1     -25.027   0.150  50.993  0.00  0.00    -0.085 C 
ATOM     11  C11 <0> A   1     -25.944   1.100  50.982  0.00  0.00    -0.019 C 
ATOM     12  C12 <0> A   1     -22.466  -2.458  50.423  0.00  0.00    +0.030 C 
ENDROOT
BRANCH   6  13
ATOM     13  C13 <0> A   1     -24.986  -3.654  50.799  0.00  0.00    +0.060 C 
BRANCH  13  14
ATOM     14  C14 <0> A   1     -24.762  -4.704  51.890  0.00  0.00    +0.044 C 
BRANCH  14  15
ATOM     15  C15 <0> A   1     -24.282  -6.009  51.252  0.00  0.00    +0.196 C 
ATOM     16  C16 <0> A   1     -25.280  -6.451  50.178  0.00  0.00    +0.038 C 
ATOM     17  C17 <0> A   1     -24.818  -7.780  49.571  0.00  0.00    +0.182 C 
ATOM     18  C18 <0> A   1     -24.737  -8.831  50.685  0.00  0.00    +0.018 C 
ATOM     19  C19 <0> A   1     -23.901  -8.266  51.812  0.00  0.00    +0.496 C 
ATOM     20  O1  <0> A   1     -22.999  -8.907  52.300  0.00  0.00    -0.454 OA
ATOM     21  O2  <0> A   1     -24.190  -7.026  52.257  0.00  0.00    -0.367 OA
BRANCH  17  22
ATOM     22  O3  <0> A   1     -23.531  -7.611  48.974  0.00  0.00    -0.562 OA
ATOM     23  H27 <0> A   1     -23.274  -8.334  48.385  0.00  0.00    +0.385 HD
ENDBRANCH  17  22
ENDBRANCH  14  15
ENDBRANCH  13  14
ENDBRANCH   6  13
BRANCH   4  24
ATOM     24  O4  <0> A   1     -26.921  -2.853  50.069  0.00  0.00    -0.284 OA
BRANCH  24  25
ATOM     25  C20 <0> A   1     -28.108  -3.288  49.611  0.00  0.00    +0.582 C 
ATOM     26  O5  <0> A   1     -28.347  -3.261  48.420  0.00  0.00    -0.529 OA
BRANCH  25  27
ATOM     27  O6  <0> A   1     -29.032  -3.755  50.470  0.00  0.00    -0.266 OA
BRANCH  27  28
ATOM     28  C21 <0> A   1     -28.792  -4.945  51.082  0.00  0.00    +0.090 A 
ATOM     29  C22 <0> A   1     -28.326  -4.974  52.388  0.00  0.00    +0.023 A 
ATOM     30  C23 <0> A   1     -28.085  -6.184  53.007  0.00  0.00    +0.026 A 
ATOM     31  C24 <0> A   1     -28.308  -7.367  52.327  0.00  0.00    +0.022 A 
ATOM     32  C25 <0> A   1     -28.773  -7.341  51.026  0.00  0.00    +0.028 A 
ATOM     33  C26 <0> A   1     -29.021  -6.133  50.403  0.00  0.00    +0.021 A 
ENDBRANCH  27  28
ENDBRANCH  25  27
ENDBRANCH  24  25
ENDBRANCH   4  24
TORSDOF 8
