REMARK VINA RESULT:      -7.3     17.950     21.579
REMARK  Name = CHEMBL293461
REMARK  12 active torsions:
REMARK  status: ('A' for Active; 'I' for Inactive)
REMARK    1  A    between atoms: C1_1  and  C2_2
REMARK    2  A    between atoms: C2_2  and  C3_3
REMARK    3  A    between atoms: C2_2  and  C4_4
REMARK    4  A    between atoms: C5_5  and  C17_22
REMARK    5  A    between atoms: C6_6  and  C11_15
REMARK    6  A    between atoms: C18_23  and  C19_24
REMARK    7  A    between atoms: C19_24  and  C20_25
REMARK    8  A    between atoms: C19_24  and  O4_33
REMARK    9  A    between atoms: C20_25  and  C21_26
REMARK   10  A    between atoms: C21_26  and  C22_28
REMARK   11  A    between atoms: C21_26  and  O3_32
REMARK   12  A    between atoms: C22_28  and  C23_29
REMARK                            x       y       z     vdW  Elec       q    Type
REMARK                         _______ _______ _______ _____ _____    ______ ____
ROOT
ATOM      1  C4  <0> A   1     -24.558  -3.688  51.387  0.00  0.00    +0.121 C 
ATOM      2  C5  <0> A   1     -25.254  -4.911  51.322  0.00  0.00    -0.163 C 
ATOM      3  C6  <0> A   1     -26.557  -4.667  51.740  0.00  0.00    +0.146 C 
ATOM      4  N1  <0> A   1     -26.633  -3.336  52.043  0.00  0.00    -0.321 N 
ATOM      5  N2  <0> A   1     -25.376  -2.766  51.817  0.00  0.00    -0.273 NA
ATOM      6  C7  <0> A   1     -27.768  -2.664  52.504  0.00  0.00    +0.324 A 
ATOM      7  C8  <0> A   1     -27.633  -1.496  53.248  0.00  0.00    +0.246 A 
ATOM      8  N3  <0> A   1     -28.707  -0.864  53.681  0.00  0.00    -0.415 NA
ATOM      9  C9  <0> A   1     -29.911  -1.340  53.410  0.00  0.00    +0.212 A 
ATOM     10  C10 <0> A   1     -30.048  -2.501  52.671  0.00  0.00    +0.265 A 
ATOM     11  N4  <0> A   1     -28.977  -3.135  52.228  0.00  0.00    -0.447 NA
ENDROOT
BRANCH   3  12
ATOM     12  C11 <0> A   1     -27.651  -5.655  51.836  0.00  0.00    -0.035 A 
ATOM     13  C12 <0> A   1     -28.417  -5.963  50.710  0.00  0.00    +0.091 A 
ATOM     14  C13 <0> A   1     -29.437  -6.886  50.807  0.00  0.00    -0.009 A 
ATOM     15  C14 <0> A   1     -29.701  -7.509  52.016  0.00  0.00    +0.114 A 
ATOM     16  C15 <0> A   1     -28.942  -7.207  53.137  0.00  0.00    -0.019 A 
ATOM     17  C16 <0> A   1     -27.916  -6.289  53.051  0.00  0.00    +0.069 A 
ATOM     18  F1  <0> A   1     -30.700  -8.413  52.104  0.00  0.00    -0.137 F 
ENDBRANCH   3  12
BRANCH   1  20
ATOM     19  C1  <0> A   1     -22.925  -2.074  50.450  0.00  0.00    +0.039 C 
ATOM     20  C2  <0> A   1     -23.110  -3.480  51.025  0.00  0.00    +0.081 C 
ATOM     21  C3  <0> A   1     -22.244  -3.638  52.277  0.00  0.00    +0.039 C 
ENDBRANCH   1  20
BRANCH   2  22
ATOM     22  C17 <0> A   1     -24.702  -6.212  50.891  0.00  0.00    +0.039 C 
ATOM     23  C18 <0> A   1     -24.999  -6.694  49.691  0.00  0.00    -0.051 C 
BRANCH  23  24
ATOM     24  C19 <0> A   1     -24.436  -8.021  49.252  0.00  0.00    +0.251 C 
BRANCH  24  25
ATOM     25  O4  <0> A   1     -23.245  -7.805  48.492  0.00  0.00    -0.538 OA
ATOM     26  H24 <0> A   1     -22.846  -6.935  48.626  0.00  0.00    +0.366 HD
ENDBRANCH  24  25
BRANCH  24  27
ATOM     27  C20 <0> A   1     -24.111  -8.869  50.482  0.00  0.00    -0.042 C 
BRANCH  27  28
ATOM     28  C21 <0> A   1     -25.088 -10.044  50.566  0.00  0.00    +0.230 C 
BRANCH  28  29
ATOM     29  O3  <0> A   1     -25.776 -10.180  49.321  0.00  0.00    -0.528 OA
ATOM     30  H23 <0> A   1     -26.274 -11.005  49.235  0.00  0.00    +0.350 HD
ENDBRANCH  28  29
BRANCH  28  31
ATOM     31  C22 <0> A   1     -24.316 -11.330  50.865  0.00  0.00    -0.102 C 
BRANCH  31  32
ATOM     32  C23 <0> A   1     -24.307 -12.208  49.640  0.00  0.00    +0.490 C 
ATOM     33  O1  <0> A   1     -25.087 -13.141  49.554  0.00  0.00    -0.681 OA
ATOM     34  O2  <0> A   1     -23.520 -11.985  48.736  0.00  0.00    -0.714 OA
ENDBRANCH  31  32
ENDBRANCH  28  31
ENDBRANCH  27  28
ENDBRANCH  24  27
ENDBRANCH  23  24
ENDBRANCH   2  22
TORSDOF 10
