REMARK VINA RESULT:      -8.0      5.197      9.303
REMARK  Name = CHEMBL295717
REMARK  7 active torsions:
REMARK  status: ('A' for Active; 'I' for Inactive)
REMARK    1  A    between atoms: C1_1  and  C2_2
REMARK    2  A    between atoms: C4_4  and  C23_28
REMARK    3  A    between atoms: C5_5  and  C16_17
REMARK    4  A    between atoms: C6_6  and  C8_8
REMARK    5  A    between atoms: C9_9  and  C10_10
REMARK    6  A    between atoms: C17_18  and  C18_19
REMARK    7  A    between atoms: C20_21  and  O3_27
REMARK                            x       y       z     vdW  Elec       q    Type
REMARK                         _______ _______ _______ _____ _____    ______ ____
ROOT
ATOM      1  C1  <0> A   1      -2.429  13.336  55.109  0.00  0.00    +0.090 C 
ATOM      2  C2  <0> A   1      -2.467  12.158  54.171  0.00  0.00    -0.077 A 
ATOM      3  C3  <0> A   1      -3.680  11.569  53.854  0.00  0.00    +0.006 A 
ATOM      4  C4  <0> A   1      -3.733  10.489  52.997  0.00  0.00    -0.068 A 
ATOM      5  C5  <0> A   1      -2.559   9.983  52.441  0.00  0.00    -0.056 A 
ATOM      6  C6  <0> A   1      -1.323  10.581  52.762  0.00  0.00    -0.038 A 
ATOM      7  C7  <0> A   1      -1.294  11.677  53.629  0.00  0.00    +0.009 A 
ATOM      8  C23 <0> A   1      -5.059   9.858  52.661  0.00  0.00    +0.092 C 
ENDROOT
BRANCH   6   9
ATOM      9  C8  <0> A   1      -0.075  10.060  52.185  0.00  0.00    +0.028 C 
ATOM     10  C9  <0> A   1       0.757   9.320  52.940  0.00  0.00    +0.016 C 
BRANCH  10  11
ATOM     11  C10 <0> A   1       2.007   8.799  52.361  0.00  0.00    -0.050 A 
ATOM     12  C11 <0> A   1       2.813   7.927  53.098  0.00  0.00    +0.034 A 
ATOM     13  C12 <0> A   1       3.982   7.443  52.549  0.00  0.00    +0.029 A 
ATOM     14  C13 <0> A   1       4.359   7.820  51.271  0.00  0.00    -0.035 A 
ATOM     15  C14 <0> A   1       3.566   8.685  50.535  0.00  0.00    +0.027 A 
ATOM     16  C15 <0> A   1       2.391   9.171  51.069  0.00  0.00    +0.038 A 
ATOM     17 Cl1  <0> A   1       5.832   7.208  50.589  0.00  0.00    -0.069 Cl
ENDBRANCH  10  11
ENDBRANCH   6   9
BRANCH   5  18
ATOM     18  C16 <0> A   1      -2.609   8.828  51.524  0.00  0.00    +0.047 C 
ATOM     19  C17 <0> A   1      -2.733   9.024  50.217  0.00  0.00    -0.022 C 
BRANCH  19  20
ATOM     20  C18 <0> A   1      -2.910   7.847  49.293  0.00  0.00    +0.239 C 
ATOM     21  C19 <0> A   1      -1.924   6.741  49.678  0.00  0.00    +0.052 C 
ATOM     22  C20 <0> A   1      -2.079   5.564  48.710  0.00  0.00    +0.186 C 
ATOM     23  C21 <0> A   1      -1.799   6.052  47.284  0.00  0.00    +0.023 C 
ATOM     24  C22 <0> A   1      -2.658   7.271  47.023  0.00  0.00    +0.497 C 
ATOM     25  O1  <0> A   1      -3.323   7.358  46.017  0.00  0.00    -0.450 OA
ATOM     26  O2  <0> A   1      -2.660   8.256  47.944  0.00  0.00    -0.369 OA
BRANCH  22  27
ATOM     27  O3  <0> A   1      -3.411   5.050  48.791  0.00  0.00    -0.564 OA
ATOM     28  H20 <0> A   1      -4.086   5.658  48.460  0.00  0.00    +0.387 HD
ENDBRANCH  22  27
ENDBRANCH  19  20
ENDBRANCH   5  18
TORSDOF 5
