REMARK VINA RESULT:      -7.2     16.974     19.932
REMARK  Name = CHEMBL301952
REMARK  4 active torsions:
REMARK  status: ('A' for Active; 'I' for Inactive)
REMARK    1  A    between atoms: C6_6  and  C7_7
REMARK    2  A    between atoms: C12_12  and  C13_13
REMARK    3  A    between atoms: C14_14  and  C15_15
REMARK    4  A    between atoms: C17_17  and  O3_23
REMARK                            x       y       z     vdW  Elec       q    Type
REMARK                         _______ _______ _______ _____ _____    ______ ____
ROOT
ATOM      1  C7  <0> A   1     -27.473  -2.954  52.066  0.00  0.00    -0.010 A 
ATOM      2  C8  <0> A   1     -28.563  -2.120  52.299  0.00  0.00    +0.054 A 
ATOM      3  C9  <0> A   1     -29.801  -2.665  52.581  0.00  0.00    -0.022 A 
ATOM      4  C10 <0> A   1     -29.968  -4.040  52.632  0.00  0.00    +0.051 A 
ATOM      5  C11 <0> A   1     -28.898  -4.882  52.403  0.00  0.00    -0.018 A 
ATOM      6  C12 <0> A   1     -27.641  -4.349  52.112  0.00  0.00    -0.030 A 
ATOM      7 Cl1  <0> A   1     -29.116  -6.603  52.470  0.00  0.00    -0.043 Cl
ATOM      8 Cl2  <0> A   1     -31.157  -1.620  52.872  0.00  0.00    -0.050 Cl
ENDROOT
BRANCH   1  14
ATOM      9  C1  <0> A   1     -25.831  -1.982  50.462  0.00  0.00    +0.067 A 
ATOM     10  C2  <0> A   1     -24.591  -1.442  50.186  0.00  0.00    -0.012 A 
ATOM     11  C3  <0> A   1     -23.658  -1.288  51.199  0.00  0.00    +0.108 A 
ATOM     12  C4  <0> A   1     -23.964  -1.677  52.493  0.00  0.00    -0.014 A 
ATOM     13  C5  <0> A   1     -25.201  -2.217  52.779  0.00  0.00    +0.072 A 
ATOM     14  C6  <0> A   1     -26.143  -2.374  51.763  0.00  0.00    -0.064 A 
ATOM     15  F1  <0> A   1     -22.446  -0.759  50.923  0.00  0.00    -0.137 F 
ENDBRANCH   1  14
BRANCH   6  16
ATOM     16  C13 <0> A   1     -26.495  -5.244  51.861  0.00  0.00    +0.042 C 
ATOM     17  C14 <0> A   1     -26.294  -5.739  50.646  0.00  0.00    -0.002 C 
BRANCH  17  18
ATOM     18  C15 <0> A   1     -25.124  -6.653  50.389  0.00  0.00    +0.243 C 
ATOM     19  C16 <0> A   1     -25.479  -7.638  49.272  0.00  0.00    +0.051 C 
ATOM     20  C17 <0> A   1     -24.302  -8.591  49.043  0.00  0.00    +0.186 C 
ATOM     21  C18 <0> A   1     -24.014  -9.347  50.346  0.00  0.00    +0.024 C 
ATOM     22  C19 <0> A   1     -23.866  -8.333  51.460  0.00  0.00    +0.497 C 
ATOM     23  O1  <0> A   1     -22.926  -8.375  52.218  0.00  0.00    -0.449 OA
ATOM     24  O2  <0> A   1     -24.816  -7.382  51.582  0.00  0.00    -0.368 OA
BRANCH  20  25
ATOM     25  O3  <0> A   1     -23.148  -7.842  48.655  0.00  0.00    -0.564 OA
ATOM     26  H15 <0> A   1     -23.253  -6.884  48.743  0.00  0.00    +0.388 HD
ENDBRANCH  20  25
ENDBRANCH  17  18
ENDBRANCH   6  16
TORSDOF 4
