MODEL 1
REMARK VINA RESULT:      -7.2      0.000      0.000
REMARK  Name = CHEMBL342975
REMARK  15 active torsions:
REMARK  status: ('A' for Active; 'I' for Inactive)
REMARK    1  A    between atoms: C1_1  and  C2_2
REMARK    2  A    between atoms: C5_5  and  C8_8
REMARK    3  A    between atoms: C11_11  and  C26_33
REMARK    4  A    between atoms: C12_12  and  O1_21
REMARK    5  A    between atoms: C13_13  and  C14_14
REMARK    6  A    between atoms: O1_21  and  C20_22
REMARK    7  A    between atoms: C20_22  and  C21_23
REMARK    8  A    between atoms: C21_23  and  C22_24
REMARK    9  A    between atoms: C21_23  and  O5_32
REMARK   10  A    between atoms: C22_24  and  C23_25
REMARK   11  A    between atoms: C23_25  and  C24_27
REMARK   12  A    between atoms: C23_25  and  O4_31
REMARK   13  A    between atoms: C24_27  and  C25_28
REMARK   14  A    between atoms: C26_33  and  C27_34
REMARK   15  A    between atoms: C26_33  and  C28_35
REMARK                            x       y       z     vdW  Elec       q    Type
REMARK                         _______ _______ _______ _____ _____    ______ ____
ROOT
ATOM      1  C8  <0> A   1     -14.395   7.610  47.764  0.00  0.00    -0.027 A 
ATOM      2  C9  <0> A   1     -14.945   6.334  47.847  0.00  0.00    +0.016 A 
ATOM      3  C10 <0> A   1     -15.195   5.612  46.696  0.00  0.00    +0.029 A 
ATOM      4  C11 <0> A   1     -14.901   6.148  45.455  0.00  0.00    -0.086 A 
ATOM      5  C12 <0> A   1     -14.354   7.417  45.352  0.00  0.00    +0.116 A 
ATOM      6  C13 <0> A   1     -14.101   8.160  46.508  0.00  0.00    -0.056 A 
ENDROOT
BRANCH   1  11
ATOM      7  C1  <0> A   1     -13.353  10.624  52.558  0.00  0.00    +0.086 C 
ATOM      8  C2  <0> A   1     -13.626   9.836  51.304  0.00  0.00    -0.083 A 
ATOM      9  C3  <0> A   1     -12.664   8.972  50.810  0.00  0.00    +0.001 A 
ATOM     10  C4  <0> A   1     -12.909   8.247  49.662  0.00  0.00    +0.020 A 
ATOM     11  C5  <0> A   1     -14.126   8.386  48.999  0.00  0.00    -0.048 A 
ATOM     12  C6  <0> A   1     -15.092   9.258  49.501  0.00  0.00    +0.031 A 
ATOM     13  C7  <0> A   1     -14.839   9.974  50.653  0.00  0.00    +0.003 A 
ENDBRANCH   1  11
BRANCH   6  14
ATOM     14  C14 <0> A   1     -13.521   9.521  46.406  0.00  0.00    -0.049 A 
ATOM     15  C15 <0> A   1     -12.139   9.698  46.475  0.00  0.00    +0.069 A 
ATOM     16  C16 <0> A   1     -11.604  10.966  46.381  0.00  0.00    -0.014 A 
ATOM     17  C17 <0> A   1     -12.437  12.062  46.218  0.00  0.00    +0.104 A 
ATOM     18  C18 <0> A   1     -13.810  11.890  46.149  0.00  0.00    -0.017 A 
ATOM     19  C19 <0> A   1     -14.354  10.625  46.236  0.00  0.00    +0.055 A 
ATOM     20  F1  <0> A   1     -11.908  13.302  46.125  0.00  0.00    -0.139 F 
ENDBRANCH   6  14
BRANCH   4  21
ATOM     21  C26 <0> A   1     -15.179   5.348  44.209  0.00  0.00    +0.031 C 
ATOM     22  C27 <0> A   1     -14.409   4.028  44.267  0.00  0.00    +0.029 C 
ATOM     23  C28 <0> A   1     -16.678   5.059  44.110  0.00  0.00    +0.024 C 
ENDBRANCH   4  21
BRANCH   5  24
ATOM     24  O1  <0> A   1     -14.069   7.938  44.131  0.00  0.00    -0.314 OA
BRANCH  24  25
ATOM     25  C20 <0> A   1     -12.817   7.570  43.546  0.00  0.00    +0.150 C 
BRANCH  25  26
ATOM     26  C21 <0> A   1     -12.452   8.574  42.450  0.00  0.00    +0.225 C 
BRANCH  26  27
ATOM     27  O5  <0> A   1     -12.487   7.924  41.178  0.00  0.00    -0.531 OA
ATOM     28  H23 <0> A   1     -11.640   7.925  40.712  0.00  0.00    +0.363 HD
ENDBRANCH  26  27
BRANCH  26  29
ATOM     29  C22 <0> A   1     -13.457   9.727  42.460  0.00  0.00    -0.043 C 
BRANCH  29  30
ATOM     30  C23 <0> A   1     -12.879  10.916  41.689  0.00  0.00    +0.235 C 
BRANCH  30  31
ATOM     31  O4  <0> A   1     -11.542  10.613  41.281  0.00  0.00    -0.526 OA
ATOM     32  H22 <0> A   1     -11.000  10.215  41.976  0.00  0.00    +0.350 HD
ENDBRANCH  30  31
BRANCH  30  33
ATOM     33  C24 <0> A   1     -13.739  11.192  40.455  0.00  0.00    -0.101 C 
BRANCH  33  34
ATOM     34  C25 <0> A   1     -12.895  11.057  39.214  0.00  0.00    +0.491 C 
ATOM     35  O2  <0> A   1     -12.411  12.049  38.696  0.00  0.00    -0.680 OA
ATOM     36  O3  <0> A   1     -12.696   9.957  38.728  0.00  0.00    -0.713 OA
ENDBRANCH  33  34
ENDBRANCH  30  33
ENDBRANCH  29  30
ENDBRANCH  26  29
ENDBRANCH  25  26
ENDBRANCH  24  25
ENDBRANCH   5  24
TORSDOF 12
ENDMDL
MODEL 2
REMARK VINA RESULT:      -7.1      2.663      5.005
REMARK  Name = CHEMBL342975
REMARK  15 active torsions:
REMARK  status: ('A' for Active; 'I' for Inactive)
REMARK    1  A    between atoms: C1_1  and  C2_2
REMARK    2  A    between atoms: C5_5  and  C8_8
REMARK    3  A    between atoms: C11_11  and  C26_33
REMARK    4  A    between atoms: C12_12  and  O1_21
REMARK    5  A    between atoms: C13_13  and  C14_14
REMARK    6  A    between atoms: O1_21  and  C20_22
REMARK    7  A    between atoms: C20_22  and  C21_23
REMARK    8  A    between atoms: C21_23  and  C22_24
REMARK    9  A    between atoms: C21_23  and  O5_32
REMARK   10  A    between atoms: C22_24  and  C23_25
REMARK   11  A    between atoms: C23_25  and  C24_27
REMARK   12  A    between atoms: C23_25  and  O4_31
REMARK   13  A    between atoms: C24_27  and  C25_28
REMARK   14  A    between atoms: C26_33  and  C27_34
REMARK   15  A    between atoms: C26_33  and  C28_35
REMARK                            x       y       z     vdW  Elec       q    Type
REMARK                         _______ _______ _______ _____ _____    ______ ____
ROOT
ATOM      1  C8  <0> A   1     -15.455   8.989  47.477  0.00  0.00    -0.027 A 
ATOM      2  C9  <0> A   1     -15.520  10.306  47.923  0.00  0.00    +0.016 A 
ATOM      3  C10 <0> A   1     -14.602  11.235  47.475  0.00  0.00    +0.029 A 
ATOM      4  C11 <0> A   1     -13.613  10.867  46.581  0.00  0.00    -0.086 A 
ATOM      5  C12 <0> A   1     -13.531   9.561  46.126  0.00  0.00    +0.116 A 
ATOM      6  C13 <0> A   1     -14.450   8.610  46.574  0.00  0.00    -0.056 A 
ENDROOT
BRANCH   1  11
ATOM      7  C1  <0> A   1     -19.280   5.111  49.345  0.00  0.00    +0.086 C 
ATOM      8  C2  <0> A   1     -18.279   6.125  48.857  0.00  0.00    -0.083 A 
ATOM      9  C3  <0> A   1     -18.499   6.792  47.664  0.00  0.00    +0.001 A 
ATOM     10  C4  <0> A   1     -17.586   7.722  47.212  0.00  0.00    +0.020 A 
ATOM     11  C5  <0> A   1     -16.441   7.990  47.958  0.00  0.00    -0.048 A 
ATOM     12  C6  <0> A   1     -16.224   7.316  49.159  0.00  0.00    +0.031 A 
ATOM     13  C7  <0> A   1     -17.146   6.392  49.605  0.00  0.00    +0.003 A 
ENDBRANCH   1  11
BRANCH   6  14
ATOM     14  C14 <0> A   1     -14.366   7.209  46.097  0.00  0.00    -0.049 A 
ATOM     15  C15 <0> A   1     -13.561   6.289  46.769  0.00  0.00    +0.069 A 
ATOM     16  C16 <0> A   1     -13.485   4.987  46.321  0.00  0.00    -0.014 A 
ATOM     17  C17 <0> A   1     -14.208   4.592  45.205  0.00  0.00    +0.104 A 
ATOM     18  C18 <0> A   1     -15.010   5.502  44.536  0.00  0.00    -0.017 A 
ATOM     19  C19 <0> A   1     -15.096   6.805  44.980  0.00  0.00    +0.055 A 
ATOM     20  F1  <0> A   1     -14.132   3.315  44.771  0.00  0.00    -0.139 F 
ENDBRANCH   6  14
BRANCH   4  21
ATOM     21  C26 <0> A   1     -12.619  11.893  46.101  0.00  0.00    +0.031 C 
ATOM     22  C27 <0> A   1     -13.216  12.672  44.927  0.00  0.00    +0.029 C 
ATOM     23  C28 <0> A   1     -12.290  12.859  47.240  0.00  0.00    +0.024 C 
ENDBRANCH   4  21
BRANCH   5  24
ATOM     24  O1  <0> A   1     -12.558   9.207  45.248  0.00  0.00    -0.314 OA
BRANCH  24  25
ATOM     25  C20 <0> A   1     -12.884   9.266  43.857  0.00  0.00    +0.150 C 
BRANCH  25  26
ATOM     26  C21 <0> A   1     -11.908   8.394  43.066  0.00  0.00    +0.225 C 
BRANCH  26  27
ATOM     27  O5  <0> A   1     -11.956   7.054  43.563  0.00  0.00    -0.531 OA
ATOM     28  H23 <0> A   1     -11.310   6.461  43.158  0.00  0.00    +0.363 HD
ENDBRANCH  26  27
BRANCH  26  29
ATOM     29  C22 <0> A   1     -12.300   8.402  41.587  0.00  0.00    -0.043 C 
BRANCH  29  30
ATOM     30  C23 <0> A   1     -12.759   9.806  41.189  0.00  0.00    +0.235 C 
BRANCH  30  31
ATOM     31  O4  <0> A   1     -11.615  10.623  40.926  0.00  0.00    -0.526 OA
ATOM     32  H22 <0> A   1     -11.675  11.514  41.297  0.00  0.00    +0.350 HD
ENDBRANCH  30  31
BRANCH  30  33
ATOM     33  C24 <0> A   1     -13.626   9.722  39.932  0.00  0.00    -0.101 C 
BRANCH  33  34
ATOM     34  C25 <0> A   1     -14.130  11.097  39.576  0.00  0.00    +0.491 C 
ATOM     35  O2  <0> A   1     -13.493  11.800  38.810  0.00  0.00    -0.680 OA
ATOM     36  O3  <0> A   1     -15.174  11.506  40.053  0.00  0.00    -0.713 OA
ENDBRANCH  33  34
ENDBRANCH  30  33
ENDBRANCH  29  30
ENDBRANCH  26  29
ENDBRANCH  25  26
ENDBRANCH  24  25
ENDBRANCH   5  24
TORSDOF 12
ENDMDL
MODEL 3
REMARK VINA RESULT:      -7.1      1.102      1.284
REMARK  Name = CHEMBL342975
REMARK  15 active torsions:
REMARK  status: ('A' for Active; 'I' for Inactive)
REMARK    1  A    between atoms: C1_1  and  C2_2
REMARK    2  A    between atoms: C5_5  and  C8_8
REMARK    3  A    between atoms: C11_11  and  C26_33
REMARK    4  A    between atoms: C12_12  and  O1_21
REMARK    5  A    between atoms: C13_13  and  C14_14
REMARK    6  A    between atoms: O1_21  and  C20_22
REMARK    7  A    between atoms: C20_22  and  C21_23
REMARK    8  A    between atoms: C21_23  and  C22_24
REMARK    9  A    between atoms: C21_23  and  O5_32
REMARK   10  A    between atoms: C22_24  and  C23_25
REMARK   11  A    between atoms: C23_25  and  C24_27
REMARK   12  A    between atoms: C23_25  and  O4_31
REMARK   13  A    between atoms: C24_27  and  C25_28
REMARK   14  A    between atoms: C26_33  and  C27_34
REMARK   15  A    between atoms: C26_33  and  C28_35
REMARK                            x       y       z     vdW  Elec       q    Type
REMARK                         _______ _______ _______ _____ _____    ______ ____
ROOT
ATOM      1  C8  <0> A   1     -15.375   7.774  47.668  0.00  0.00    -0.027 A 
ATOM      2  C9  <0> A   1     -16.050   6.562  47.548  0.00  0.00    +0.016 A 
ATOM      3  C10 <0> A   1     -15.986   5.848  46.369  0.00  0.00    +0.029 A 
ATOM      4  C11 <0> A   1     -15.252   6.327  45.298  0.00  0.00    -0.086 A 
ATOM      5  C12 <0> A   1     -14.574   7.531  45.398  0.00  0.00    +0.116 A 
ATOM      6  C13 <0> A   1     -14.634   8.267  46.583  0.00  0.00    -0.056 A 
ENDROOT
BRANCH   1  11
ATOM      7  C1  <0> A   1     -15.640  10.759  52.585  0.00  0.00    +0.086 C 
ATOM      8  C2  <0> A   1     -15.571   9.978  51.298  0.00  0.00    -0.083 A 
ATOM      9  C3  <0> A   1     -14.557   9.056  51.106  0.00  0.00    +0.001 A 
ATOM     10  C4  <0> A   1     -14.489   8.338  49.929  0.00  0.00    +0.020 A 
ATOM     11  C5  <0> A   1     -15.443   8.543  48.935  0.00  0.00    -0.048 A 
ATOM     12  C6  <0> A   1     -16.463   9.472  49.135  0.00  0.00    +0.031 A 
ATOM     13  C7  <0> A   1     -16.524  10.181  50.317  0.00  0.00    +0.003 A 
ENDBRANCH   1  11
BRANCH   6  14
ATOM     14  C14 <0> A   1     -13.916   9.559  46.696  0.00  0.00    -0.049 A 
ATOM     15  C15 <0> A   1     -12.609   9.592  47.183  0.00  0.00    +0.069 A 
ATOM     16  C16 <0> A   1     -11.945  10.796  47.287  0.00  0.00    -0.014 A 
ATOM     17  C17 <0> A   1     -12.574  11.972  46.908  0.00  0.00    +0.104 A 
ATOM     18  C18 <0> A   1     -13.871  11.944  46.423  0.00  0.00    -0.017 A 
ATOM     19  C19 <0> A   1     -14.541  10.743  46.311  0.00  0.00    +0.055 A 
ATOM     20  F1  <0> A   1     -11.919  13.149  47.010  0.00  0.00    -0.139 F 
ENDBRANCH   6  14
BRANCH   4  21
ATOM     21  C26 <0> A   1     -15.192   5.535  44.018  0.00  0.00    +0.031 C 
ATOM     22  C27 <0> A   1     -14.318   4.297  44.223  0.00  0.00    +0.029 C 
ATOM     23  C28 <0> A   1     -16.603   5.103  43.616  0.00  0.00    +0.024 C 
ENDBRANCH   4  21
BRANCH   5  24
ATOM     24  O1  <0> A   1     -13.856   7.996  44.343  0.00  0.00    -0.314 OA
BRANCH  24  25
ATOM     25  C20 <0> A   1     -12.515   7.518  44.210  0.00  0.00    +0.150 C 
BRANCH  25  26
ATOM     26  C21 <0> A   1     -12.110   7.538  42.735  0.00  0.00    +0.225 C 
BRANCH  26  27
ATOM     27  O5  <0> A   1     -11.897   6.200  42.281  0.00  0.00    -0.531 OA
ATOM     28  H23 <0> A   1     -12.565   5.571  42.584  0.00  0.00    +0.363 HD
ENDBRANCH  26  27
BRANCH  26  29
ATOM     29  C22 <0> A   1     -13.225   8.184  41.909  0.00  0.00    -0.043 C 
BRANCH  29  30
ATOM     30  C23 <0> A   1     -12.637   9.298  41.041  0.00  0.00    +0.235 C 
BRANCH  30  31
ATOM     31  O4  <0> A   1     -12.579   8.861  39.681  0.00  0.00    -0.526 OA
ATOM     32  H22 <0> A   1     -11.681   8.725  39.350  0.00  0.00    +0.350 HD
ENDBRANCH  30  31
BRANCH  30  33
ATOM     33  C24 <0> A   1     -13.520  10.542  41.140  0.00  0.00    -0.101 C 
BRANCH  33  34
ATOM     34  C25 <0> A   1     -13.511  11.272  39.821  0.00  0.00    +0.491 C 
ATOM     35  O2  <0> A   1     -12.511  11.871  39.463  0.00  0.00    -0.680 OA
ATOM     36  O3  <0> A   1     -14.503  11.262  39.112  0.00  0.00    -0.713 OA
ENDBRANCH  33  34
ENDBRANCH  30  33
ENDBRANCH  29  30
ENDBRANCH  26  29
ENDBRANCH  25  26
ENDBRANCH  24  25
ENDBRANCH   5  24
TORSDOF 12
ENDMDL
MODEL 4
REMARK VINA RESULT:      -7.0      3.084      5.473
REMARK  Name = CHEMBL342975
REMARK  15 active torsions:
REMARK  status: ('A' for Active; 'I' for Inactive)
REMARK    1  A    between atoms: C1_1  and  C2_2
REMARK    2  A    between atoms: C5_5  and  C8_8
REMARK    3  A    between atoms: C11_11  and  C26_33
REMARK    4  A    between atoms: C12_12  and  O1_21
REMARK    5  A    between atoms: C13_13  and  C14_14
REMARK    6  A    between atoms: O1_21  and  C20_22
REMARK    7  A    between atoms: C20_22  and  C21_23
REMARK    8  A    between atoms: C21_23  and  C22_24
REMARK    9  A    between atoms: C21_23  and  O5_32
REMARK   10  A    between atoms: C22_24  and  C23_25
REMARK   11  A    between atoms: C23_25  and  C24_27
REMARK   12  A    between atoms: C23_25  and  O4_31
REMARK   13  A    between atoms: C24_27  and  C25_28
REMARK   14  A    between atoms: C26_33  and  C27_34
REMARK   15  A    between atoms: C26_33  and  C28_35
REMARK                            x       y       z     vdW  Elec       q    Type
REMARK                         _______ _______ _______ _____ _____    ______ ____
ROOT
ATOM      1  C8  <0> A   1     -17.031   8.405  48.702  0.00  0.00    -0.027 A 
ATOM      2  C9  <0> A   1     -17.257   9.561  49.445  0.00  0.00    +0.016 A 
ATOM      3  C10 <0> A   1     -16.747  10.770  49.016  0.00  0.00    +0.029 A 
ATOM      4  C11 <0> A   1     -16.010  10.845  47.848  0.00  0.00    -0.086 A 
ATOM      5  C12 <0> A   1     -15.774   9.706  47.095  0.00  0.00    +0.116 A 
ATOM      6  C13 <0> A   1     -16.279   8.475  47.520  0.00  0.00    -0.056 A 
ENDROOT
BRANCH   1  11
ATOM      7  C1  <0> A   1     -19.155   3.360  50.488  0.00  0.00    +0.086 C 
ATOM      8  C2  <0> A   1     -18.600   4.680  50.021  0.00  0.00    -0.083 A 
ATOM      9  C3  <0> A   1     -17.400   5.143  50.532  0.00  0.00    +0.001 A 
ATOM     10  C4  <0> A   1     -16.886   6.351  50.107  0.00  0.00    +0.020 A 
ATOM     11  C5  <0> A   1     -17.578   7.105  49.162  0.00  0.00    -0.048 A 
ATOM     12  C6  <0> A   1     -18.786   6.634  48.650  0.00  0.00    +0.031 A 
ATOM     13  C7  <0> A   1     -19.287   5.422  49.078  0.00  0.00    +0.003 A 
ENDBRANCH   1  11
BRANCH   6  14
ATOM     14  C14 <0> A   1     -16.026   7.250  46.723  0.00  0.00    -0.049 A 
ATOM     15  C15 <0> A   1     -16.911   6.880  45.711  0.00  0.00    +0.069 A 
ATOM     16  C16 <0> A   1     -16.673   5.740  44.973  0.00  0.00    -0.014 A 
ATOM     17  C17 <0> A   1     -15.555   4.963  45.236  0.00  0.00    +0.104 A 
ATOM     18  C18 <0> A   1     -14.672   5.328  46.240  0.00  0.00    -0.017 A 
ATOM     19  C19 <0> A   1     -14.900   6.470  46.979  0.00  0.00    +0.055 A 
ATOM     20  F1  <0> A   1     -15.324   3.847  44.509  0.00  0.00    -0.139 F 
ENDBRANCH   6  14
BRANCH   4  21
ATOM     21  C26 <0> A   1     -15.461  12.172  47.393  0.00  0.00    +0.031 C 
ATOM     22  C27 <0> A   1     -16.535  13.250  47.548  0.00  0.00    +0.029 C 
ATOM     23  C28 <0> A   1     -14.243  12.540  48.242  0.00  0.00    +0.024 C 
ENDBRANCH   4  21
BRANCH   5  24
ATOM     24  O1  <0> A   1     -15.049   9.786  45.949  0.00  0.00    -0.314 OA
BRANCH  24  25
ATOM     25  C20 <0> A   1     -13.628   9.863  46.084  0.00  0.00    +0.150 C 
BRANCH  25  26
ATOM     26  C21 <0> A   1     -13.055  10.724  44.957  0.00  0.00    +0.225 C 
BRANCH  26  27
ATOM     27  O5  <0> A   1     -11.652  10.477  44.835  0.00  0.00    -0.531 OA
ATOM     28  H23 <0> A   1     -11.100  11.076  45.355  0.00  0.00    +0.363 HD
ENDBRANCH  26  27
BRANCH  26  29
ATOM     29  C22 <0> A   1     -13.750  10.371  43.641  0.00  0.00    -0.043 C 
BRANCH  29  30
ATOM     30  C23 <0> A   1     -13.341  11.375  42.561  0.00  0.00    +0.235 C 
BRANCH  30  31
ATOM     31  O4  <0> A   1     -12.152  10.918  41.913  0.00  0.00    -0.526 OA
ATOM     32  H22 <0> A   1     -11.729  11.583  41.353  0.00  0.00    +0.350 HD
ENDBRANCH  30  31
BRANCH  30  33
ATOM     33  C24 <0> A   1     -14.466  11.505  41.533  0.00  0.00    -0.101 C 
BRANCH  33  34
ATOM     34  C25 <0> A   1     -13.978  11.023  40.191  0.00  0.00    +0.491 C 
ATOM     35  O2  <0> A   1     -13.825   9.830  39.991  0.00  0.00    -0.680 OA
ATOM     36  O3  <0> A   1     -13.739  11.826  39.305  0.00  0.00    -0.713 OA
ENDBRANCH  33  34
ENDBRANCH  30  33
ENDBRANCH  29  30
ENDBRANCH  26  29
ENDBRANCH  25  26
ENDBRANCH  24  25
ENDBRANCH   5  24
TORSDOF 12
ENDMDL
MODEL 5
REMARK VINA RESULT:      -7.0     16.933     20.301
REMARK  Name = CHEMBL342975
REMARK  15 active torsions:
REMARK  status: ('A' for Active; 'I' for Inactive)
REMARK    1  A    between atoms: C1_1  and  C2_2
REMARK    2  A    between atoms: C5_5  and  C8_8
REMARK    3  A    between atoms: C11_11  and  C26_33
REMARK    4  A    between atoms: C12_12  and  O1_21
REMARK    5  A    between atoms: C13_13  and  C14_14
REMARK    6  A    between atoms: O1_21  and  C20_22
REMARK    7  A    between atoms: C20_22  and  C21_23
REMARK    8  A    between atoms: C21_23  and  C22_24
REMARK    9  A    between atoms: C21_23  and  O5_32
REMARK   10  A    between atoms: C22_24  and  C23_25
REMARK   11  A    between atoms: C23_25  and  C24_27
REMARK   12  A    between atoms: C23_25  and  O4_31
REMARK   13  A    between atoms: C24_27  and  C25_28
REMARK   14  A    between atoms: C26_33  and  C27_34
REMARK   15  A    between atoms: C26_33  and  C28_35
REMARK                            x       y       z     vdW  Elec       q    Type
REMARK                         _______ _______ _______ _____ _____    ______ ____
ROOT
ATOM      1  C8  <0> A   1     -27.694  -3.040  50.764  0.00  0.00    -0.027 A 
ATOM      2  C9  <0> A   1     -28.839  -3.726  50.367  0.00  0.00    +0.016 A 
ATOM      3  C10 <0> A   1     -28.822  -5.103  50.273  0.00  0.00    +0.029 A 
ATOM      4  C11 <0> A   1     -27.672  -5.812  50.571  0.00  0.00    -0.086 A 
ATOM      5  C12 <0> A   1     -26.523  -5.147  50.967  0.00  0.00    +0.116 A 
ATOM      6  C13 <0> A   1     -26.524  -3.754  51.062  0.00  0.00    -0.056 A 
ENDROOT
BRANCH   1  11
ATOM      7  C1  <0> A   1     -27.757   2.705  51.157  0.00  0.00    +0.086 C 
ATOM      8  C2  <0> A   1     -27.740   1.202  51.054  0.00  0.00    -0.083 A 
ATOM      9  C3  <0> A   1     -28.419   0.440  51.988  0.00  0.00    +0.001 A 
ATOM     10  C4  <0> A   1     -28.408  -0.938  51.899  0.00  0.00    +0.020 A 
ATOM     11  C5  <0> A   1     -27.710  -1.560  50.865  0.00  0.00    -0.048 A 
ATOM     12  C6  <0> A   1     -27.028  -0.787  49.927  0.00  0.00    +0.031 A 
ATOM     13  C7  <0> A   1     -27.051   0.589  50.023  0.00  0.00    +0.003 A 
ENDBRANCH   1  11
BRANCH   6  14
ATOM     14  C14 <0> A   1     -25.297  -3.034  51.480  0.00  0.00    -0.049 A 
ATOM     15  C15 <0> A   1     -25.222  -2.457  52.748  0.00  0.00    +0.069 A 
ATOM     16  C16 <0> A   1     -24.079  -1.788  53.132  0.00  0.00    -0.014 A 
ATOM     17  C17 <0> A   1     -23.005  -1.689  52.260  0.00  0.00    +0.104 A 
ATOM     18  C18 <0> A   1     -23.075  -2.262  51.000  0.00  0.00    -0.017 A 
ATOM     19  C19 <0> A   1     -24.212  -2.937  50.610  0.00  0.00    +0.055 A 
ATOM     20  F1  <0> A   1     -21.887  -1.034  52.641  0.00  0.00    -0.139 F 
ENDBRANCH   6  14
BRANCH   4  21
ATOM     21  C26 <0> A   1     -27.671  -7.315  50.464  0.00  0.00    +0.031 C 
ATOM     22  C27 <0> A   1     -28.596  -7.905  51.530  0.00  0.00    +0.029 C 
ATOM     23  C28 <0> A   1     -28.162  -7.730  49.076  0.00  0.00    +0.024 C 
ENDBRANCH   4  21
BRANCH   5  24
ATOM     24  O1  <0> A   1     -25.398  -5.849  51.259  0.00  0.00    -0.314 OA
BRANCH  24  25
ATOM     25  C20 <0> A   1     -24.693  -6.431  50.160  0.00  0.00    +0.150 C 
BRANCH  25  26
ATOM     26  C21 <0> A   1     -24.051  -7.747  50.604  0.00  0.00    +0.225 C 
BRANCH  26  27
ATOM     27  O5  <0> A   1     -24.688  -8.208  51.797  0.00  0.00    -0.531 OA
ATOM     28  H23 <0> A   1     -24.510  -7.663  52.575  0.00  0.00    +0.363 HD
ENDBRANCH  26  27
BRANCH  26  29
ATOM     29  C22 <0> A   1     -24.217  -8.793  49.501  0.00  0.00    -0.043 C 
BRANCH  29  30
ATOM     30  C23 <0> A   1     -24.464 -10.165  50.131  0.00  0.00    +0.235 C 
BRANCH  30  31
ATOM     31  O4  <0> A   1     -25.868 -10.432  50.155  0.00  0.00    -0.526 OA
ATOM     32  H22 <0> A   1     -26.369  -9.963  49.474  0.00  0.00    +0.350 HD
ENDBRANCH  30  31
BRANCH  30  33
ATOM     33  C24 <0> A   1     -23.753 -11.240  49.308  0.00  0.00    -0.101 C 
BRANCH  33  34
ATOM     34  C25 <0> A   1     -24.748 -12.292  48.889  0.00  0.00    +0.491 C 
ATOM     35  O2  <0> A   1     -24.995 -13.227  49.632  0.00  0.00    -0.680 OA
ATOM     36  O3  <0> A   1     -25.307 -12.207  47.809  0.00  0.00    -0.713 OA
ENDBRANCH  33  34
ENDBRANCH  30  33
ENDBRANCH  29  30
ENDBRANCH  26  29
ENDBRANCH  25  26
ENDBRANCH  24  25
ENDBRANCH   5  24
TORSDOF 12
ENDMDL
MODEL 6
REMARK VINA RESULT:      -6.9     15.011     18.537
REMARK  Name = CHEMBL342975
REMARK  15 active torsions:
REMARK  status: ('A' for Active; 'I' for Inactive)
REMARK    1  A    between atoms: C1_1  and  C2_2
REMARK    2  A    between atoms: C5_5  and  C8_8
REMARK    3  A    between atoms: C11_11  and  C26_33
REMARK    4  A    between atoms: C12_12  and  O1_21
REMARK    5  A    between atoms: C13_13  and  C14_14
REMARK    6  A    between atoms: O1_21  and  C20_22
REMARK    7  A    between atoms: C20_22  and  C21_23
REMARK    8  A    between atoms: C21_23  and  C22_24
REMARK    9  A    between atoms: C21_23  and  O5_32
REMARK   10  A    between atoms: C22_24  and  C23_25
REMARK   11  A    between atoms: C23_25  and  C24_27
REMARK   12  A    between atoms: C23_25  and  O4_31
REMARK   13  A    between atoms: C24_27  and  C25_28
REMARK   14  A    between atoms: C26_33  and  C27_34
REMARK   15  A    between atoms: C26_33  and  C28_35
REMARK                            x       y       z     vdW  Elec       q    Type
REMARK                         _______ _______ _______ _____ _____    ______ ____
ROOT
ATOM      1  C8  <0> A   1     -26.270   1.479  51.967  0.00  0.00    -0.027 A 
ATOM      2  C9  <0> A   1     -25.410   2.542  52.232  0.00  0.00    +0.016 A 
ATOM      3  C10 <0> A   1     -24.047   2.381  52.085  0.00  0.00    +0.029 A 
ATOM      4  C11 <0> A   1     -23.524   1.168  51.674  0.00  0.00    -0.086 A 
ATOM      5  C12 <0> A   1     -24.364   0.099  51.406  0.00  0.00    +0.116 A 
ATOM      6  C13 <0> A   1     -25.745   0.245  51.555  0.00  0.00    -0.056 A 
ENDROOT
BRANCH   1  11
ATOM      7  C1  <0> A   1     -31.957   2.144  52.580  0.00  0.00    +0.086 C 
ATOM      8  C2  <0> A   1     -30.469   1.970  52.419  0.00  0.00    -0.083 A 
ATOM      9  C3  <0> A   1     -29.661   1.880  53.539  0.00  0.00    +0.001 A 
ATOM     10  C4  <0> A   1     -28.298   1.720  53.398  0.00  0.00    +0.020 A 
ATOM     11  C5  <0> A   1     -27.735   1.650  52.125  0.00  0.00    -0.048 A 
ATOM     12  C6  <0> A   1     -28.554   1.742  51.000  0.00  0.00    +0.031 A 
ATOM     13  C7  <0> A   1     -29.917   1.896  51.153  0.00  0.00    +0.003 A 
ENDBRANCH   1  11
BRANCH   6  14
ATOM     14  C14 <0> A   1     -26.650  -0.895  51.277  0.00  0.00    -0.049 A 
ATOM     15  C15 <0> A   1     -26.839  -1.333  49.966  0.00  0.00    +0.069 A 
ATOM     16  C16 <0> A   1     -27.682  -2.394  49.711  0.00  0.00    -0.014 A 
ATOM     17  C17 <0> A   1     -28.342  -3.025  50.755  0.00  0.00    +0.104 A 
ATOM     18  C18 <0> A   1     -28.156  -2.594  52.059  0.00  0.00    -0.017 A 
ATOM     19  C19 <0> A   1     -27.310  -1.537  52.323  0.00  0.00    +0.055 A 
ATOM     20  F1  <0> A   1     -29.166  -4.065  50.500  0.00  0.00    -0.139 F 
ENDBRANCH   6  14
BRANCH   4  21
ATOM     21  C26 <0> A   1     -22.034   1.009  51.517  0.00  0.00    +0.031 C 
ATOM     22  C27 <0> A   1     -21.446   2.282  50.907  0.00  0.00    +0.029 C 
ATOM     23  C28 <0> A   1     -21.400   0.760  52.886  0.00  0.00    +0.024 C 
ENDBRANCH   4  21
BRANCH   5  24
ATOM     24  O1  <0> A   1     -23.845  -1.090  51.003  0.00  0.00    -0.314 OA
BRANCH  24  25
ATOM     25  C20 <0> A   1     -23.600  -2.068  52.016  0.00  0.00    +0.150 C 
BRANCH  25  26
ATOM     26  C21 <0> A   1     -23.672  -3.467  51.402  0.00  0.00    +0.225 C 
BRANCH  26  27
ATOM     27  O5  <0> A   1     -22.575  -4.252  51.876  0.00  0.00    -0.531 OA
ATOM     28  H23 <0> A   1     -22.796  -4.829  52.619  0.00  0.00    +0.363 HD
ENDBRANCH  26  27
BRANCH  26  29
ATOM     29  C22 <0> A   1     -24.988  -4.135  51.806  0.00  0.00    -0.043 C 
BRANCH  29  30
ATOM     30  C23 <0> A   1     -25.293  -5.285  50.845  0.00  0.00    +0.235 C 
BRANCH  30  31
ATOM     31  O4  <0> A   1     -24.165  -5.507  49.994  0.00  0.00    -0.526 OA
ATOM     32  H22 <0> A   1     -23.337  -5.144  50.337  0.00  0.00    +0.350 HD
ENDBRANCH  30  31
BRANCH  30  33
ATOM     33  C24 <0> A   1     -25.586  -6.555  51.644  0.00  0.00    -0.101 C 
BRANCH  33  34
ATOM     34  C25 <0> A   1     -24.357  -7.427  51.672  0.00  0.00    +0.491 C 
ATOM     35  O2  <0> A   1     -23.431  -7.152  52.416  0.00  0.00    -0.680 OA
ATOM     36  O3  <0> A   1     -24.289  -8.408  50.951  0.00  0.00    -0.713 OA
ENDBRANCH  33  34
ENDBRANCH  30  33
ENDBRANCH  29  30
ENDBRANCH  26  29
ENDBRANCH  25  26
ENDBRANCH  24  25
ENDBRANCH   5  24
TORSDOF 12
ENDMDL
MODEL 7
REMARK VINA RESULT:      -6.8     16.414     19.748
REMARK  Name = CHEMBL342975
REMARK  15 active torsions:
REMARK  status: ('A' for Active; 'I' for Inactive)
REMARK    1  A    between atoms: C1_1  and  C2_2
REMARK    2  A    between atoms: C5_5  and  C8_8
REMARK    3  A    between atoms: C11_11  and  C26_33
REMARK    4  A    between atoms: C12_12  and  O1_21
REMARK    5  A    between atoms: C13_13  and  C14_14
REMARK    6  A    between atoms: O1_21  and  C20_22
REMARK    7  A    between atoms: C20_22  and  C21_23
REMARK    8  A    between atoms: C21_23  and  C22_24
REMARK    9  A    between atoms: C21_23  and  O5_32
REMARK   10  A    between atoms: C22_24  and  C23_25
REMARK   11  A    between atoms: C23_25  and  C24_27
REMARK   12  A    between atoms: C23_25  and  O4_31
REMARK   13  A    between atoms: C24_27  and  C25_28
REMARK   14  A    between atoms: C26_33  and  C27_34
REMARK   15  A    between atoms: C26_33  and  C28_35
REMARK                            x       y       z     vdW  Elec       q    Type
REMARK                         _______ _______ _______ _____ _____    ______ ____
ROOT
ATOM      1  C8  <0> A   1     -27.959  -2.130  52.030  0.00  0.00    -0.027 A 
ATOM      2  C9  <0> A   1     -29.192  -2.769  52.131  0.00  0.00    +0.016 A 
ATOM      3  C10 <0> A   1     -29.255  -4.148  52.173  0.00  0.00    +0.029 A 
ATOM      4  C11 <0> A   1     -28.098  -4.904  52.117  0.00  0.00    -0.086 A 
ATOM      5  C12 <0> A   1     -26.862  -4.287  52.016  0.00  0.00    +0.116 A 
ATOM      6  C13 <0> A   1     -26.783  -2.893  51.967  0.00  0.00    -0.056 A 
ENDROOT
BRANCH   1  11
ATOM      7  C1  <0> A   1     -27.691   3.619  51.852  0.00  0.00    +0.086 C 
ATOM      8  C2  <0> A   1     -27.761   2.115  51.899  0.00  0.00    -0.083 A 
ATOM      9  C3  <0> A   1     -27.843   1.392  50.722  0.00  0.00    +0.001 A 
ATOM     10  C4  <0> A   1     -27.907   0.014  50.759  0.00  0.00    +0.020 A 
ATOM     11  C5  <0> A   1     -27.890  -0.649  51.984  0.00  0.00    -0.048 A 
ATOM     12  C6  <0> A   1     -27.806   0.084  53.167  0.00  0.00    +0.031 A 
ATOM     13  C7  <0> A   1     -27.737   1.461  53.118  0.00  0.00    +0.003 A 
ENDBRANCH   1  11
BRANCH   6  14
ATOM     14  C14 <0> A   1     -25.465  -2.224  51.852  0.00  0.00    -0.049 A 
ATOM     15  C15 <0> A   1     -24.964  -1.879  50.598  0.00  0.00    +0.069 A 
ATOM     16  C16 <0> A   1     -23.737  -1.257  50.496  0.00  0.00    -0.014 A 
ATOM     17  C17 <0> A   1     -23.003  -0.976  51.638  0.00  0.00    +0.104 A 
ATOM     18  C18 <0> A   1     -23.498  -1.317  52.886  0.00  0.00    -0.017 A 
ATOM     19  C19 <0> A   1     -24.727  -1.934  52.998  0.00  0.00    +0.055 A 
ATOM     20  F1  <0> A   1     -21.802  -0.366  51.533  0.00  0.00    -0.139 F 
ENDBRANCH   6  14
BRANCH   4  21
ATOM     21  C26 <0> A   1     -28.184  -6.408  52.165  0.00  0.00    +0.031 C 
ATOM     22  C27 <0> A   1     -28.955  -6.836  53.415  0.00  0.00    +0.029 C 
ATOM     23  C28 <0> A   1     -28.908  -6.919  50.919  0.00  0.00    +0.024 C 
ENDBRANCH   4  21
BRANCH   5  24
ATOM     24  O1  <0> A   1     -25.730  -5.035  51.961  0.00  0.00    -0.314 OA
BRANCH  24  25
ATOM     25  C20 <0> A   1     -25.142  -5.229  50.672  0.00  0.00    +0.150 C 
BRANCH  25  26
ATOM     26  C21 <0> A   1     -25.337  -6.683  50.236  0.00  0.00    +0.225 C 
BRANCH  26  27
ATOM     27  O5  <0> A   1     -25.292  -6.762  48.810  0.00  0.00    -0.531 OA
ATOM     28  H23 <0> A   1     -25.462  -7.646  48.459  0.00  0.00    +0.363 HD
ENDBRANCH  26  27
BRANCH  26  29
ATOM     29  C22 <0> A   1     -24.221  -7.546  50.829  0.00  0.00    -0.043 C 
BRANCH  29  30
ATOM     30  C23 <0> A   1     -24.679  -9.005  50.882  0.00  0.00    +0.235 C 
BRANCH  30  31
ATOM     31  O4  <0> A   1     -26.057  -9.085  50.512  0.00  0.00    -0.526 OA
ATOM     32  H22 <0> A   1     -26.203  -9.346  49.592  0.00  0.00    +0.350 HD
ENDBRANCH  30  31
BRANCH  30  33
ATOM     33  C24 <0> A   1     -23.841  -9.839  49.912  0.00  0.00    -0.101 C 
BRANCH  33  34
ATOM     34  C25 <0> A   1     -24.695 -10.262  48.745  0.00  0.00    +0.491 C 
ATOM     35  O2  <0> A   1     -24.839  -9.514  47.792  0.00  0.00    -0.680 OA
ATOM     36  O3  <0> A   1     -25.242 -11.351  48.753  0.00  0.00    -0.713 OA
ENDBRANCH  33  34
ENDBRANCH  30  33
ENDBRANCH  29  30
ENDBRANCH  26  29
ENDBRANCH  25  26
ENDBRANCH  24  25
ENDBRANCH   5  24
TORSDOF 12
ENDMDL
MODEL 8
REMARK VINA RESULT:      -6.8     18.031     21.936
REMARK  Name = CHEMBL342975
REMARK  15 active torsions:
REMARK  status: ('A' for Active; 'I' for Inactive)
REMARK    1  A    between atoms: C1_1  and  C2_2
REMARK    2  A    between atoms: C5_5  and  C8_8
REMARK    3  A    between atoms: C11_11  and  C26_33
REMARK    4  A    between atoms: C12_12  and  O1_21
REMARK    5  A    between atoms: C13_13  and  C14_14
REMARK    6  A    between atoms: O1_21  and  C20_22
REMARK    7  A    between atoms: C20_22  and  C21_23
REMARK    8  A    between atoms: C21_23  and  C22_24
REMARK    9  A    between atoms: C21_23  and  O5_32
REMARK   10  A    between atoms: C22_24  and  C23_25
REMARK   11  A    between atoms: C23_25  and  C24_27
REMARK   12  A    between atoms: C23_25  and  O4_31
REMARK   13  A    between atoms: C24_27  and  C25_28
REMARK   14  A    between atoms: C26_33  and  C27_34
REMARK   15  A    between atoms: C26_33  and  C28_35
REMARK                            x       y       z     vdW  Elec       q    Type
REMARK                         _______ _______ _______ _____ _____    ______ ____
ROOT
ATOM      1  C8  <0> A   1     -24.716  -5.041  51.471  0.00  0.00    -0.027 A 
ATOM      2  C9  <0> A   1     -23.657  -4.137  51.494  0.00  0.00    +0.016 A 
ATOM      3  C10 <0> A   1     -23.870  -2.831  51.887  0.00  0.00    +0.029 A 
ATOM      4  C11 <0> A   1     -25.133  -2.409  52.263  0.00  0.00    -0.086 A 
ATOM      5  C12 <0> A   1     -26.199  -3.293  52.247  0.00  0.00    +0.116 A 
ATOM      6  C13 <0> A   1     -26.000  -4.616  51.846  0.00  0.00    -0.056 A 
ENDROOT
BRANCH   1  11
ATOM      7  C1  <0> A   1     -23.833 -10.489  49.830  0.00  0.00    +0.086 C 
ATOM      8  C2  <0> A   1     -24.064  -9.063  50.259  0.00  0.00    -0.083 A 
ATOM      9  C3  <0> A   1     -24.430  -8.112  49.323  0.00  0.00    +0.001 A 
ATOM     10  C4  <0> A   1     -24.643  -6.805  49.711  0.00  0.00    +0.020 A 
ATOM     11  C5  <0> A   1     -24.489  -6.444  51.048  0.00  0.00    -0.048 A 
ATOM     12  C6  <0> A   1     -24.121  -7.407  51.987  0.00  0.00    +0.031 A 
ATOM     13  C7  <0> A   1     -23.916  -8.712  51.589  0.00  0.00    +0.003 A 
ENDBRANCH   1  11
BRANCH   6  14
ATOM     14  C14 <0> A   1     -27.137  -5.567  51.820  0.00  0.00    -0.049 A 
ATOM     15  C15 <0> A   1     -27.526  -6.223  52.988  0.00  0.00    +0.069 A 
ATOM     16  C16 <0> A   1     -28.584  -7.107  52.960  0.00  0.00    -0.014 A 
ATOM     17  C17 <0> A   1     -29.260  -7.344  51.773  0.00  0.00    +0.104 A 
ATOM     18  C18 <0> A   1     -28.878  -6.694  50.611  0.00  0.00    -0.017 A 
ATOM     19  C19 <0> A   1     -27.824  -5.804  50.631  0.00  0.00    +0.055 A 
ATOM     20  F1  <0> A   1     -30.297  -8.210  51.751  0.00  0.00    -0.139 F 
ENDBRANCH   6  14
BRANCH   4  21
ATOM     21  C26 <0> A   1     -25.349  -0.981  52.691  0.00  0.00    +0.031 C 
ATOM     22  C27 <0> A   1     -24.830  -0.791  54.117  0.00  0.00    +0.029 C 
ATOM     23  C28 <0> A   1     -24.595  -0.044  51.745  0.00  0.00    +0.024 C 
ENDBRANCH   4  21
BRANCH   5  24
ATOM     24  O1  <0> A   1     -27.437  -2.873  52.616  0.00  0.00    -0.314 OA
BRANCH  24  25
ATOM     25  C20 <0> A   1     -28.242  -2.258  51.608  0.00  0.00    +0.150 C 
BRANCH  25  26
ATOM     26  C21 <0> A   1     -29.709  -2.629  51.829  0.00  0.00    +0.225 C 
BRANCH  26  27
ATOM     27  O5  <0> A   1     -30.170  -3.422  50.733  0.00  0.00    -0.531 OA
ATOM     28  H23 <0> A   1     -31.008  -3.875  50.899  0.00  0.00    +0.363 HD
ENDBRANCH  26  27
BRANCH  26  29
ATOM     29  C22 <0> A   1     -29.843  -3.429  53.127  0.00  0.00    -0.043 C 
BRANCH  29  30
ATOM     30  C23 <0> A   1     -31.321  -3.545  53.505  0.00  0.00    +0.235 C 
BRANCH  30  31
ATOM     31  O4  <0> A   1     -32.106  -2.769  52.597  0.00  0.00    -0.526 OA
ATOM     32  H22 <0> A   1     -33.032  -2.676  52.859  0.00  0.00    +0.350 HD
ENDBRANCH  30  31
BRANCH  30  33
ATOM     33  C24 <0> A   1     -31.753  -5.010  53.430  0.00  0.00    -0.101 C 
BRANCH  33  34
ATOM     34  C25 <0> A   1     -32.670  -5.204  52.250  0.00  0.00    +0.491 C 
ATOM     35  O2  <0> A   1     -33.875  -5.089  52.389  0.00  0.00    -0.680 OA
ATOM     36  O3  <0> A   1     -32.205  -5.475  51.156  0.00  0.00    -0.713 OA
ENDBRANCH  33  34
ENDBRANCH  30  33
ENDBRANCH  29  30
ENDBRANCH  26  29
ENDBRANCH  25  26
ENDBRANCH  24  25
ENDBRANCH   5  24
TORSDOF 12
ENDMDL
MODEL 9
REMARK VINA RESULT:      -6.8     18.378     22.152
REMARK  Name = CHEMBL342975
REMARK  15 active torsions:
REMARK  status: ('A' for Active; 'I' for Inactive)
REMARK    1  A    between atoms: C1_1  and  C2_2
REMARK    2  A    between atoms: C5_5  and  C8_8
REMARK    3  A    between atoms: C11_11  and  C26_33
REMARK    4  A    between atoms: C12_12  and  O1_21
REMARK    5  A    between atoms: C13_13  and  C14_14
REMARK    6  A    between atoms: O1_21  and  C20_22
REMARK    7  A    between atoms: C20_22  and  C21_23
REMARK    8  A    between atoms: C21_23  and  C22_24
REMARK    9  A    between atoms: C21_23  and  O5_32
REMARK   10  A    between atoms: C22_24  and  C23_25
REMARK   11  A    between atoms: C23_25  and  C24_27
REMARK   12  A    between atoms: C23_25  and  O4_31
REMARK   13  A    between atoms: C24_27  and  C25_28
REMARK   14  A    between atoms: C26_33  and  C27_34
REMARK   15  A    between atoms: C26_33  and  C28_35
REMARK                            x       y       z     vdW  Elec       q    Type
REMARK                         _______ _______ _______ _____ _____    ______ ____
ROOT
ATOM      1  C8  <0> A   1     -27.582  -4.120  51.992  0.00  0.00    -0.027 A 
ATOM      2  C9  <0> A   1     -26.949  -2.963  52.439  0.00  0.00    +0.016 A 
ATOM      3  C10 <0> A   1     -25.643  -2.704  52.075  0.00  0.00    +0.029 A 
ATOM      4  C11 <0> A   1     -24.953  -3.589  51.265  0.00  0.00    -0.086 A 
ATOM      5  C12 <0> A   1     -25.565  -4.746  50.811  0.00  0.00    +0.116 A 
ATOM      6  C13 <0> A   1     -26.885  -5.023  51.175  0.00  0.00    -0.056 A 
ENDROOT
BRANCH   1  11
ATOM      7  C1  <0> A   1     -33.030  -5.203  53.509  0.00  0.00    +0.086 C 
ATOM      8  C2  <0> A   1     -31.605  -4.919  53.112  0.00  0.00    -0.083 A 
ATOM      9  C3  <0> A   1     -30.573  -5.235  53.978  0.00  0.00    +0.001 A 
ATOM     10  C4  <0> A   1     -29.265  -4.978  53.619  0.00  0.00    +0.020 A 
ATOM     11  C5  <0> A   1     -28.985  -4.399  52.383  0.00  0.00    -0.048 A 
ATOM     12  C6  <0> A   1     -30.029  -4.084  51.514  0.00  0.00    +0.031 A 
ATOM     13  C7  <0> A   1     -31.332  -4.351  51.881  0.00  0.00    +0.003 A 
ENDBRANCH   1  11
BRANCH   6  14
ATOM     14  C14 <0> A   1     -27.545  -6.261  50.699  0.00  0.00    -0.049 A 
ATOM     15  C15 <0> A   1     -28.061  -6.324  49.404  0.00  0.00    +0.069 A 
ATOM     16  C16 <0> A   1     -28.676  -7.477  48.965  0.00  0.00    -0.014 A 
ATOM     17  C17 <0> A   1     -28.781  -8.574  49.807  0.00  0.00    +0.104 A 
ATOM     18  C18 <0> A   1     -28.268  -8.516  51.093  0.00  0.00    -0.017 A 
ATOM     19  C19 <0> A   1     -27.647  -7.368  51.539  0.00  0.00    +0.055 A 
ATOM     20  F1  <0> A   1     -29.382  -9.702  49.372  0.00  0.00    -0.139 F 
ENDBRANCH   6  14
BRANCH   4  21
ATOM     21  C26 <0> A   1     -23.527  -3.292  50.876  0.00  0.00    +0.031 C 
ATOM     22  C27 <0> A   1     -23.393  -1.810  50.518  0.00  0.00    +0.029 C 
ATOM     23  C28 <0> A   1     -22.599  -3.619  52.047  0.00  0.00    +0.024 C 
ENDBRANCH   4  21
BRANCH   5  24
ATOM     24  O1  <0> A   1     -24.882  -5.610  50.016  0.00  0.00    -0.314 OA
BRANCH  24  25
ATOM     25  C20 <0> A   1     -24.272  -6.734  50.654  0.00  0.00    +0.150 C 
BRANCH  25  26
ATOM     26  C21 <0> A   1     -24.353  -7.951  49.730  0.00  0.00    +0.225 C 
BRANCH  26  27
ATOM     27  O5  <0> A   1     -23.518  -7.739  48.590  0.00  0.00    -0.531 OA
ATOM     28  H23 <0> A   1     -23.959  -7.895  47.744  0.00  0.00    +0.363 HD
ENDBRANCH  26  27
BRANCH  26  29
ATOM     29  C22 <0> A   1     -23.879  -9.195  50.483  0.00  0.00    -0.043 C 
BRANCH  29  30
ATOM     30  C23 <0> A   1     -24.970 -10.267  50.436  0.00  0.00    +0.235 C 
BRANCH  30  31
ATOM     31  O4  <0> A   1     -25.514 -10.334  49.116  0.00  0.00    -0.526 OA
ATOM     32  H22 <0> A   1     -26.468 -10.490  49.092  0.00  0.00    +0.350 HD
ENDBRANCH  30  31
BRANCH  30  33
ATOM     33  C24 <0> A   1     -24.371 -11.622  50.811  0.00  0.00    -0.101 C 
BRANCH  33  34
ATOM     34  C25 <0> A   1     -24.372 -12.524  49.603  0.00  0.00    +0.491 C 
ATOM     35  O2  <0> A   1     -23.469 -12.451  48.788  0.00  0.00    -0.680 OA
ATOM     36  O3  <0> A   1     -25.276 -13.326  49.443  0.00  0.00    -0.713 OA
ENDBRANCH  33  34
ENDBRANCH  30  33
ENDBRANCH  29  30
ENDBRANCH  26  29
ENDBRANCH  25  26
ENDBRANCH  24  25
ENDBRANCH   5  24
TORSDOF 12
ENDMDL
MODEL 10
REMARK VINA RESULT:      -6.8     16.936     20.513
REMARK  Name = CHEMBL342975
REMARK  15 active torsions:
REMARK  status: ('A' for Active; 'I' for Inactive)
REMARK    1  A    between atoms: C1_1  and  C2_2
REMARK    2  A    between atoms: C5_5  and  C8_8
REMARK    3  A    between atoms: C11_11  and  C26_33
REMARK    4  A    between atoms: C12_12  and  O1_21
REMARK    5  A    between atoms: C13_13  and  C14_14
REMARK    6  A    between atoms: O1_21  and  C20_22
REMARK    7  A    between atoms: C20_22  and  C21_23
REMARK    8  A    between atoms: C21_23  and  C22_24
REMARK    9  A    between atoms: C21_23  and  O5_32
REMARK   10  A    between atoms: C22_24  and  C23_25
REMARK   11  A    between atoms: C23_25  and  C24_27
REMARK   12  A    between atoms: C23_25  and  O4_31
REMARK   13  A    between atoms: C24_27  and  C25_28
REMARK   14  A    between atoms: C26_33  and  C27_34
REMARK   15  A    between atoms: C26_33  and  C28_35
REMARK                            x       y       z     vdW  Elec       q    Type
REMARK                         _______ _______ _______ _____ _____    ______ ____
ROOT
ATOM      1  C8  <0> A   1     -26.999  -1.779  52.741  0.00  0.00    -0.027 A 
ATOM      2  C9  <0> A   1     -26.086  -1.106  53.549  0.00  0.00    +0.016 A 
ATOM      3  C10 <0> A   1     -24.737  -1.379  53.445  0.00  0.00    +0.029 A 
ATOM      4  C11 <0> A   1     -24.280  -2.320  52.538  0.00  0.00    -0.086 A 
ATOM      5  C12 <0> A   1     -25.173  -3.000  51.726  0.00  0.00    +0.116 A 
ATOM      6  C13 <0> A   1     -26.541  -2.738  51.825  0.00  0.00    -0.056 A 
ENDROOT
BRANCH   1  11
ATOM      7  C1  <0> A   1     -32.628  -0.647  53.175  0.00  0.00    +0.086 C 
ATOM      8  C2  <0> A   1     -31.155  -0.943  53.062  0.00  0.00    -0.083 A 
ATOM      9  C3  <0> A   1     -30.379  -0.244  52.154  0.00  0.00    +0.001 A 
ATOM     10  C4  <0> A   1     -29.030  -0.511  52.046  0.00  0.00    +0.020 A 
ATOM     11  C5  <0> A   1     -28.449  -1.487  52.853  0.00  0.00    -0.048 A 
ATOM     12  C6  <0> A   1     -29.235  -2.189  53.766  0.00  0.00    +0.031 A 
ATOM     13  C7  <0> A   1     -30.582  -1.909  53.869  0.00  0.00    +0.003 A 
ENDBRANCH   1  11
BRANCH   6  14
ATOM     14  C14 <0> A   1     -27.504  -3.465  50.963  0.00  0.00    -0.049 A 
ATOM     15  C15 <0> A   1     -28.191  -4.571  51.463  0.00  0.00    +0.069 A 
ATOM     16  C16 <0> A   1     -29.085  -5.246  50.658  0.00  0.00    -0.014 A 
ATOM     17  C17 <0> A   1     -29.301  -4.826  49.355  0.00  0.00    +0.104 A 
ATOM     18  C18 <0> A   1     -28.621  -3.727  48.855  0.00  0.00    -0.017 A 
ATOM     19  C19 <0> A   1     -27.729  -3.043  49.654  0.00  0.00    +0.055 A 
ATOM     20  F1  <0> A   1     -30.179  -5.489  48.571  0.00  0.00    -0.139 F 
ENDBRANCH   6  14
BRANCH   4  21
ATOM     21  C26 <0> A   1     -22.804  -2.606  52.436  0.00  0.00    +0.031 C 
ATOM     22  C27 <0> A   1     -22.221  -1.857  51.236  0.00  0.00    +0.029 C 
ATOM     23  C28 <0> A   1     -22.104  -2.144  53.715  0.00  0.00    +0.024 C 
ENDBRANCH   4  21
BRANCH   5  24
ATOM     24  O1  <0> A   1     -24.718  -3.922  50.838  0.00  0.00    -0.314 OA
BRANCH  24  25
ATOM     25  C20 <0> A   1     -24.496  -5.244  51.333  0.00  0.00    +0.150 C 
BRANCH  25  26
ATOM     26  C21 <0> A   1     -25.100  -6.261  50.362  0.00  0.00    +0.225 C 
BRANCH  26  27
ATOM     27  O5  <0> A   1     -24.079  -6.752  49.491  0.00  0.00    -0.531 OA
ATOM     28  H23 <0> A   1     -24.279  -6.646  48.551  0.00  0.00    +0.363 HD
ENDBRANCH  26  27
BRANCH  26  29
ATOM     29  C22 <0> A   1     -25.699  -7.427  51.152  0.00  0.00    -0.043 C 
BRANCH  29  30
ATOM     30  C23 <0> A   1     -26.717  -8.164  50.280  0.00  0.00    +0.235 C 
BRANCH  30  31
ATOM     31  O4  <0> A   1     -26.907  -7.445  49.059  0.00  0.00    -0.526 OA
ATOM     32  H22 <0> A   1     -26.150  -6.901  48.801  0.00  0.00    +0.350 HD
ENDBRANCH  30  31
BRANCH  30  33
ATOM     33  C24 <0> A   1     -26.200  -9.569  49.969  0.00  0.00    -0.101 C 
BRANCH  33  34
ATOM     34  C25 <0> A   1     -25.896  -9.679  48.497  0.00  0.00    +0.491 C 
ATOM     35  O2  <0> A   1     -26.705 -10.194  47.744  0.00  0.00    -0.680 OA
ATOM     36  O3  <0> A   1     -24.842  -9.251  48.059  0.00  0.00    -0.713 OA
ENDBRANCH  33  34
ENDBRANCH  30  33
ENDBRANCH  29  30
ENDBRANCH  26  29
ENDBRANCH  25  26
ENDBRANCH  24  25
ENDBRANCH   5  24
TORSDOF 12
ENDMDL
