REMARK VINA RESULT:      -7.0      1.362      1.649
REMARK  Name = CHEMBL154868
REMARK  13 active torsions:
REMARK  status: ('A' for Active; 'I' for Inactive)
REMARK    1  A    between atoms: C1_1  and  C2_2
REMARK    2  A    between atoms: C2_2  and  C3_3
REMARK    3  A    between atoms: C2_2  and  C4_4
REMARK    4  A    between atoms: C5_5  and  C19_21
REMARK    5  A    between atoms: C6_6  and  C13_14
REMARK    6  A    between atoms: C7_7  and  C8_9
REMARK    7  A    between atoms: C20_22  and  C21_23
REMARK    8  A    between atoms: C21_23  and  C22_25
REMARK    9  A    between atoms: C21_23  and  O4_33
REMARK   10  A    between atoms: C22_25  and  C23_26
REMARK   11  A    between atoms: C23_26  and  C24_28
REMARK   12  A    between atoms: C23_26  and  O3_32
REMARK   13  A    between atoms: C24_28  and  C25_29
REMARK                            x       y       z     vdW  Elec       q    Type
REMARK                         _______ _______ _______ _____ _____    ______ ____
ROOT
ATOM      1  C4  <0> A   1     -15.120   6.457  45.857  0.00  0.00    -0.126 C 
ATOM      2  C5  <0> A   1     -14.613   7.724  45.913  0.00  0.00    -0.075 C 
ATOM      3  C6  <0> A   1     -14.691   8.423  47.176  0.00  0.00    -0.076 C 
ATOM      4  C7  <0> A   1     -15.265   7.772  48.226  0.00  0.00    -0.120 C 
ATOM      5  S1  <0> A   1     -15.717   6.200  47.517  0.00  0.00    +0.041 S 
ENDROOT
BRANCH   3   6
ATOM      6  C13 <0> A   1     -14.163   9.800  47.324  0.00  0.00    -0.031 A 
ATOM      7  C14 <0> A   1     -12.858  10.005  47.771  0.00  0.00    +0.053 A 
ATOM      8  C15 <0> A   1     -12.372  11.288  47.907  0.00  0.00    -0.015 A 
ATOM      9  C16 <0> A   1     -13.177  12.373  47.599  0.00  0.00    +0.099 A 
ATOM     10  C17 <0> A   1     -14.474  12.175  47.155  0.00  0.00    -0.011 A 
ATOM     11  C18 <0> A   1     -14.967  10.894  47.009  0.00  0.00    +0.058 A 
ATOM     12  F1  <0> A   1     -12.696  13.629  47.734  0.00  0.00    -0.140 F 
ENDBRANCH   3   6
BRANCH   4  13
ATOM     13  C8  <0> A   1     -15.473   8.262  49.636  0.00  0.00    +0.084 C 
ATOM     14  C9  <0> A   1     -14.383   7.683  50.562  0.00  0.00    +0.022 C 
ATOM     15  C10 <0> A   1     -15.125   7.403  51.892  0.00  0.00    +0.012 C 
ATOM     16  C11 <0> A   1     -16.506   6.892  51.412  0.00  0.00    +0.008 C 
ATOM     17  C12 <0> A   1     -16.822   7.759  50.176  0.00  0.00    +0.019 C 
ENDBRANCH   4  13
BRANCH   1  19
ATOM     18  C1  <0> A   1     -14.601   4.155  45.094  0.00  0.00    +0.035 C 
ATOM     19  C2  <0> A   1     -15.170   5.515  44.682  0.00  0.00    +0.081 C 
ATOM     20  C3  <0> A   1     -16.620   5.343  44.226  0.00  0.00    +0.033 C 
ENDBRANCH   1  19
BRANCH   2  21
ATOM     21  C19 <0> A   1     -14.004   8.357  44.726  0.00  0.00    +0.023 C 
ATOM     22  C20 <0> A   1     -12.729   8.135  44.436  0.00  0.00    -0.055 C 
BRANCH  22  23
ATOM     23  C21 <0> A   1     -12.108   8.780  43.224  0.00  0.00    +0.250 C 
BRANCH  23  24
ATOM     24  O4  <0> A   1     -11.324   7.815  42.520  0.00  0.00    -0.538 OA
ATOM     25  H30 <0> A   1     -11.659   6.910  42.588  0.00  0.00    +0.365 HD
ENDBRANCH  23  24
BRANCH  23  26
ATOM     26  C22 <0> A   1     -13.213   9.308  42.305  0.00  0.00    -0.043 C 
BRANCH  26  27
ATOM     27  C23 <0> A   1     -12.782  10.650  41.710  0.00  0.00    +0.231 C 
BRANCH  27  28
ATOM     28  O3  <0> A   1     -11.422  10.566  41.278  0.00  0.00    -0.528 OA
ATOM     29  H29 <0> A   1     -11.114  11.344  40.794  0.00  0.00    +0.350 HD
ENDBRANCH  27  28
BRANCH  27  30
ATOM     30  C24 <0> A   1     -13.675  10.989  40.515  0.00  0.00    -0.102 C 
BRANCH  30  31
ATOM     31  C25 <0> A   1     -12.844  11.015  39.258  0.00  0.00    +0.491 C 
ATOM     32  O1  <0> A   1     -12.590   9.975  38.674  0.00  0.00    -0.681 OA
ATOM     33  O2  <0> A   1     -12.427  12.075  38.825  0.00  0.00    -0.713 OA
ENDBRANCH  30  31
ENDBRANCH  27  30
ENDBRANCH  26  27
ENDBRANCH  23  26
ENDBRANCH  22  23
ENDBRANCH   2  21
TORSDOF 11
