REMARK VINA RESULT:      -8.3     13.172     18.983
REMARK  Name = CHEMBL444210
REMARK  17 active torsions:
REMARK  status: ('A' for Active; 'I' for Inactive)
REMARK    1  A    between atoms: C1_1  and  C2_2
REMARK    2  A    between atoms: C2_2  and  C3_3
REMARK    3  A    between atoms: C2_2  and  C4_4
REMARK    4  A    between atoms: C5_5  and  C20_29
REMARK    5  A    between atoms: C6_7  and  C14_22
REMARK    6  A    between atoms: N2_8  and  C7_9
REMARK    7  A    between atoms: C7_9  and  C8_10
REMARK    8  A    between atoms: C8_10  and  C9_11
REMARK    9  A    between atoms: C9_11  and  C10_13
REMARK   10  A    between atoms: C9_11  and  O4_21
REMARK   11  A    between atoms: C10_13  and  C11_14
REMARK   12  A    between atoms: C11_14  and  C12_16
REMARK   13  A    between atoms: C11_14  and  O3_20
REMARK   14  A    between atoms: C12_16  and  C13_17
REMARK   15  A    between atoms: N3_31  and  C21_32
REMARK   16  A    between atoms: C21_32  and  C22_33
REMARK   17  A    between atoms: C26_37  and  C28_39
REMARK                            x       y       z     vdW  Elec       q    Type
REMARK                         _______ _______ _______ _____ _____    ______ ____
ROOT
ATOM      1  C4  <0> A   1     -26.247  -4.574  51.157  0.00  0.00    +0.092 C 
ATOM      2  C5  <0> A   1     -24.993  -4.180  50.788  0.00  0.00    -0.064 C 
ATOM      3  N1  <0> A   1     -24.297  -5.282  50.441  0.00  0.00    -0.446 NA
ATOM      4  C6  <0> A   1     -25.065  -6.335  50.581  0.00  0.00    +0.246 C 
ATOM      5  N2  <0> A   1     -26.290  -5.927  51.032  0.00  0.00    -0.436 N 
ENDROOT
BRANCH   4   6
ATOM      6  C14 <0> A   1     -24.671  -7.733  50.302  0.00  0.00    -0.022 A 
ATOM      7  C15 <0> A   1     -24.301  -8.578  51.349  0.00  0.00    +0.046 A 
ATOM      8  C16 <0> A   1     -23.936  -9.881  51.084  0.00  0.00    -0.001 A 
ATOM      9  C17 <0> A   1     -23.936 -10.352  49.780  0.00  0.00    +0.109 A 
ATOM     10  C18 <0> A   1     -24.302  -9.516  48.736  0.00  0.00    -0.010 A 
ATOM     11  C19 <0> A   1     -24.675  -8.214  48.992  0.00  0.00    +0.094 A 
ATOM     12  F1  <0> A   1     -23.576 -11.629  49.524  0.00  0.00    -0.136 F 
ENDBRANCH   4   6
BRANCH   2  13
ATOM     13  C20 <0> A   1     -24.490  -2.795  50.770  0.00  0.00    +0.610 C 
ATOM     14  O5  <0> A   1     -23.528  -2.489  51.449  0.00  0.00    -0.540 OA
ATOM     15  N3  <0> A   1     -25.096  -1.866  50.004  0.00  0.00    -0.715 N 
ATOM     16  H24 <0> A   1     -25.863  -2.110  49.464  0.00  0.00    +0.410 HD
BRANCH  15  17
ATOM     17  C21 <0> A   1     -24.596  -0.490  49.988  0.00  0.00    +0.320 C 
BRANCH  17  18
ATOM     18  C22 <0> A   1     -25.435   0.360  50.906  0.00  0.00    -0.106 A 
ATOM     19  C23 <0> A   1     -24.851   1.392  51.618  0.00  0.00    +0.035 A 
ATOM     20  C24 <0> A   1     -25.615   2.177  52.463  0.00  0.00    +0.010 A 
ATOM     21  C25 <0> A   1     -26.967   1.933  52.600  0.00  0.00    +0.034 A 
ATOM     22  C26 <0> A   1     -27.561   0.896  51.884  0.00  0.00    -0.054 A 
ATOM     23  C27 <0> A   1     -26.787   0.112  51.031  0.00  0.00    +0.047 A 
BRANCH  22  24
ATOM     24  C28 <0> A   1     -29.013   0.629  52.028  0.00  0.00    -0.080 A 
ATOM     25  C29 <0> A   1     -29.941   1.443  51.380  0.00  0.00    +0.058 A 
ATOM     26  C30 <0> A   1     -31.292   1.192  51.517  0.00  0.00    +0.006 A 
ATOM     27  C31 <0> A   1     -31.726   0.134  52.295  0.00  0.00    +0.045 A 
ATOM     28  C32 <0> A   1     -30.812  -0.679  52.940  0.00  0.00    -0.017 A 
ATOM     29  C33 <0> A   1     -29.456  -0.440  52.806  0.00  0.00    +0.108 A 
ATOM     30  F2  <0> A   1     -28.563  -1.238  53.432  0.00  0.00    -0.134 F 
ENDBRANCH  22  24
ENDBRANCH  17  18
ENDBRANCH  15  17
ENDBRANCH   2  13
BRANCH   1  32
ATOM     31  C1  <0> A   1     -28.272  -3.338  50.435  0.00  0.00    +0.032 C 
ATOM     32  C2  <0> A   1     -27.368  -3.680  51.621  0.00  0.00    +0.086 C 
ATOM     33  C3  <0> A   1     -28.186  -4.403  52.693  0.00  0.00    +0.034 C 
ENDBRANCH   1  32
BRANCH   5  34
ATOM     34  C7  <0> A   1     -27.438  -6.789  51.324  0.00  0.00    +0.304 C 
BRANCH  34  35
ATOM     35  C8  <0> A   1     -28.039  -7.299  50.013  0.00  0.00    -0.015 C 
BRANCH  35  36
ATOM     36  C9  <0> A   1     -28.653  -8.683  50.238  0.00  0.00    +0.219 C 
BRANCH  36  37
ATOM     37  O4  <0> A   1     -27.612  -9.658  50.326  0.00  0.00    -0.538 OA
ATOM     38  H19 <0> A   1     -27.693 -10.377  49.684  0.00  0.00    +0.367 HD
ENDBRANCH  36  37
BRANCH  36  39
ATOM     39  C10 <0> A   1     -29.458  -8.677  51.539  0.00  0.00    -0.046 C 
BRANCH  39  40
ATOM     40  C11 <0> A   1     -30.347  -9.922  51.594  0.00  0.00    +0.232 C 
BRANCH  40  41
ATOM     41  O3  <0> A   1     -30.147 -10.701  50.412  0.00  0.00    -0.527 OA
ATOM     42  H18 <0> A   1     -30.949 -11.129  50.082  0.00  0.00    +0.351 HD
ENDBRANCH  40  41
BRANCH  40  43
ATOM     43  C12 <0> A   1     -29.980 -10.757  52.823  0.00  0.00    -0.102 C 
BRANCH  43  44
ATOM     44  C13 <0> A   1     -29.330 -12.043  52.380  0.00  0.00    +0.491 C 
ATOM     45  O1  <0> A   1     -29.979 -13.074  52.350  0.00  0.00    -0.681 OA
ATOM     46  O2  <0> A   1     -28.155 -12.051  52.054  0.00  0.00    -0.712 OA
ENDBRANCH  43  44
ENDBRANCH  40  43
ENDBRANCH  39  40
ENDBRANCH  36  39
ENDBRANCH  35  36
ENDBRANCH  34  35
ENDBRANCH   5  34
TORSDOF 15
