REMARK VINA RESULT:      -7.2      3.382      5.620
REMARK  Name = CHEMBL400576
REMARK  14 active torsions:
REMARK  status: ('A' for Active; 'I' for Inactive)
REMARK    1  A    between atoms: C1_1  and  C2_2
REMARK    2  A    between atoms: C2_2  and  C3_3
REMARK    3  A    between atoms: C2_2  and  C4_4
REMARK    4  A    between atoms: C5_5  and  C19_29
REMARK    5  A    between atoms: N2_7  and  C13_22
REMARK    6  A    between atoms: C6_8  and  O1_9
REMARK    7  A    between atoms: O1_9  and  C7_10
REMARK    8  A    between atoms: C7_10  and  C8_11
REMARK    9  A    between atoms: C8_11  and  C9_13
REMARK   10  A    between atoms: C8_11  and  O5_21
REMARK   11  A    between atoms: C9_13  and  C10_14
REMARK   12  A    between atoms: C10_14  and  C11_16
REMARK   13  A    between atoms: C10_14  and  O4_20
REMARK   14  A    between atoms: C11_16  and  C12_17
REMARK                            x       y       z     vdW  Elec       q    Type
REMARK                         _______ _______ _______ _____ _____    ______ ____
ROOT
ATOM      1  C4  <0> A   1     -13.836  10.092  47.907  0.00  0.00    -0.182 C 
ATOM      2  C5  <0> A   1     -14.066   9.433  49.133  0.00  0.00    +0.060 C 
ATOM      3  N1  <0> A   1     -14.502   8.216  48.868  0.00  0.00    -0.234 NA
ATOM      4  N2  <0> A   1     -14.561   8.065  47.476  0.00  0.00    -0.327 N 
ATOM      5  C6  <0> A   1     -14.153   9.232  46.908  0.00  0.00    +0.269 C 
ENDROOT
BRANCH   2   6
ATOM      6  C19 <0> A   1     -13.856  10.003  50.478  0.00  0.00    +0.610 C 
ATOM      7  O6  <0> A   1     -14.780  10.534  51.065  0.00  0.00    -0.516 OA
ATOM      8  N3  <0> A   1     -12.640   9.938  51.056  0.00  0.00    -0.599 N 
ATOM      9  C20 <0> A   1     -11.491   9.393  50.321  0.00  0.00    +0.265 C 
ATOM     10  C21 <0> A   1     -10.352  10.417  50.356  0.00  0.00    +0.011 C 
ATOM     11  C22 <0> A   1     -10.050  10.789  51.810  0.00  0.00    +0.012 C 
ATOM     12  C23 <0> A   1     -11.290  11.422  52.444  0.00  0.00    +0.011 C 
ATOM     13  C24 <0> A   1     -12.438  10.415  52.431  0.00  0.00    +0.279 C 
ENDBRANCH   2   6
BRANCH   4  14
ATOM     14  C13 <0> A   1     -14.974   6.916  46.790  0.00  0.00    +0.128 A 
ATOM     15  C14 <0> A   1     -14.131   5.816  46.704  0.00  0.00    +0.066 A 
ATOM     16  C15 <0> A   1     -14.539   4.684  46.028  0.00  0.00    +0.008 A 
ATOM     17  C16 <0> A   1     -15.789   4.645  45.432  0.00  0.00    +0.107 A 
ATOM     18  C17 <0> A   1     -16.631   5.742  45.515  0.00  0.00    +0.018 A 
ATOM     19  C18 <0> A   1     -16.229   6.873  46.197  0.00  0.00    +0.065 A 
ATOM     20  F1  <0> A   1     -16.187   3.537  44.769  0.00  0.00    -0.132 F 
ENDBRANCH   4  14
BRANCH   1  22
ATOM     21  C1  <0> A   1     -11.947  11.478  47.095  0.00  0.00    +0.025 C 
ATOM     22  C2  <0> A   1     -13.335  11.503  47.739  0.00  0.00    +0.062 C 
ATOM     23  C3  <0> A   1     -14.299  12.284  46.843  0.00  0.00    +0.036 C 
ENDBRANCH   1  22
BRANCH   5  24
ATOM     24  O1  <0> A   1     -14.073   9.490  45.576  0.00  0.00    -0.283 OA
BRANCH  24  25
ATOM     25  C7  <0> A   1     -13.013   8.857  44.856  0.00  0.00    +0.155 C 
BRANCH  25  26
ATOM     26  C8  <0> A   1     -12.797   9.583  43.527  0.00  0.00    +0.230 C 
BRANCH  26  27
ATOM     27  O5  <0> A   1     -13.032   8.678  42.446  0.00  0.00    -0.527 OA
ATOM     28  H17 <0> A   1     -12.278   8.109  42.238  0.00  0.00    +0.364 HD
ENDBRANCH  26  27
BRANCH  26  29
ATOM     29  C9  <0> A   1     -13.767  10.762  43.425  0.00  0.00    -0.040 C 
BRANCH  29  30
ATOM     30  C10 <0> A   1     -13.408  11.615  42.207  0.00  0.00    +0.236 C 
BRANCH  30  31
ATOM     31  O4  <0> A   1     -12.186  11.142  41.638  0.00  0.00    -0.526 OA
ATOM     32  H16 <0> A   1     -12.122  11.270  40.682  0.00  0.00    +0.351 HD
ENDBRANCH  30  31
BRANCH  30  33
ATOM     33  C11 <0> A   1     -14.527  11.517  41.168  0.00  0.00    -0.101 C 
BRANCH  33  34
ATOM     34  C12 <0> A   1     -13.968  10.975  39.878  0.00  0.00    +0.491 C 
ATOM     35  O2  <0> A   1     -13.802   9.774  39.742  0.00  0.00    -0.680 OA
ATOM     36  O3  <0> A   1     -13.681  11.736  38.970  0.00  0.00    -0.712 OA
ENDBRANCH  33  34
ENDBRANCH  30  33
ENDBRANCH  29  30
ENDBRANCH  26  29
ENDBRANCH  25  26
ENDBRANCH  24  25
ENDBRANCH   5  24
TORSDOF 12
