REMARK  Name = CHEMBL228955
REMARK  14 active torsions:
REMARK  status: ('A' for Active; 'I' for Inactive)
REMARK    1  A    between atoms: C1_1  and  C2_2
REMARK    2  A    between atoms: C2_2  and  C3_3
REMARK    3  A    between atoms: C2_2  and  N1_4
REMARK    4  A    between atoms: C4_5  and  C24_28
REMARK    5  A    between atoms: C5_6  and  C18_21
REMARK    6  A    between atoms: N2_11  and  C12_15
REMARK    7  A    between atoms: C24_28  and  C25_29
REMARK    8  A    between atoms: C25_29  and  C26_30
REMARK    9  A    between atoms: C26_30  and  C27_32
REMARK   10  A    between atoms: C26_30  and  O5_40
REMARK   11  A    between atoms: C27_32  and  C28_33
REMARK   12  A    between atoms: C28_33  and  C29_35
REMARK   13  A    between atoms: C28_33  and  O4_39
REMARK   14  A    between atoms: C29_35  and  C30_36
REMARK                            x       y       z     vdW  Elec       q    Type
REMARK                         _______ _______ _______ _____ _____    ______ ____
ROOT
ATOM      1  N1  <0> A   1      -1.425  -0.574  -0.158  0.00  0.00    -0.392 N 
ATOM      2  C4  <0> A   1      -1.779  -1.511  -1.056  0.00  0.00    +0.101 C 
ATOM      3  C5  <0> A   1      -3.072  -1.871  -0.818  0.00  0.00    -0.157 C 
ATOM      4  C6  <0> A   1      -3.528  -1.113   0.285  0.00  0.00    -0.071 C 
ATOM      5  C7  <0> A   1      -2.499  -0.312   0.679  0.00  0.00    -0.044 C 
ATOM      6  C8  <0> A   1      -2.460   0.672   1.750  0.00  0.00    +0.593 C 
ATOM      7  O1  <0> A   1      -1.402   1.260   1.882  0.00  0.00    -0.552 OA
ATOM      8  N2  <0> A   1      -3.405   1.015   2.594  0.00  0.00    -0.540 N 
ATOM      9  C9  <0> A   1      -4.723   0.460   2.752  0.00  0.00    +0.265 C 
ATOM     10  C10 <0> A   1      -5.394   0.070   1.463  0.00  0.00    +0.026 C 
ATOM     11  C11 <0> A   1      -4.895  -1.222   0.883  0.00  0.00    +0.101 C 
ENDROOT
BRANCH   3  12
ATOM     12  C18 <0> A   1      -3.858  -2.876  -1.578  0.00  0.00    -0.006 A 
ATOM     13  C19 <0> A   1      -4.165  -2.653  -2.918  0.00  0.00    +0.049 A 
ATOM     14  C20 <0> A   1      -4.896  -3.590  -3.621  0.00  0.00    -0.015 A 
ATOM     15  C21 <0> A   1      -5.324  -4.749  -2.996  0.00  0.00    +0.093 A 
ATOM     16  C22 <0> A   1      -5.021  -4.974  -1.663  0.00  0.00    -0.017 A 
ATOM     17  C23 <0> A   1      -4.286  -4.045  -0.954  0.00  0.00    +0.050 A 
ATOM     18  F1  <0> A   1      -6.039  -5.663  -3.687  0.00  0.00    -0.142 F 
ENDBRANCH   3  12
BRANCH   8  19
ATOM     19  C12 <0> A   1      -3.087   2.066   3.459  0.00  0.00    +0.139 A 
ATOM     20  C13 <0> A   1      -2.951   3.357   2.966  0.00  0.00    +0.021 A 
ATOM     21  C14 <0> A   1      -2.636   4.393   3.823  0.00  0.00    +0.015 A 
ATOM     22  C15 <0> A   1      -2.457   4.146   5.172  0.00  0.00    +0.006 A 
ATOM     23  C16 <0> A   1      -2.591   2.861   5.666  0.00  0.00    +0.016 A 
ATOM     24  C17 <0> A   1      -2.911   1.822   4.815  0.00  0.00    +0.007 A 
ENDBRANCH   8  19
BRANCH   1  26
ATOM     25  C1  <0> A   1       0.976  -1.012   0.005  0.00  0.00    +0.038 C 
ATOM     26  C2  <0> A   1      -0.109   0.064  -0.074  0.00  0.00    +0.242 C 
ATOM     27  C3  <0> A   1       0.119   0.928  -1.316  0.00  0.00    +0.039 C 
ENDBRANCH   1  26
BRANCH   2  28
ATOM     28  C24 <0> A   1      -0.896  -2.069  -2.142  0.00  0.00    +0.115 C 
BRANCH  28  29
ATOM     29  C25 <0> A   1      -0.236  -3.359  -1.651  0.00  0.00    -0.006 C 
BRANCH  29  30
ATOM     30  C26 <0> A   1       0.718  -3.885  -2.724  0.00  0.00    +0.212 C 
BRANCH  30  31
ATOM     31  O5  <0> A   1       1.790  -2.958  -2.905  0.00  0.00    -0.541 OA
ATOM     32  H34 <0> A   1       2.315  -2.803  -2.108  0.00  0.00    +0.362 HD
ENDBRANCH  30  31
BRANCH  30  33
ATOM     33  C27 <0> A   1       1.283  -5.238  -2.287  0.00  0.00    -0.051 C 
BRANCH  33  34
ATOM     34  C28 <0> A   1       2.138  -5.822  -3.413  0.00  0.00    +0.231 C 
BRANCH  34  35
ATOM     35  O4  <0> A   1       3.279  -4.988  -3.626  0.00  0.00    -0.528 OA
ATOM     36  H33 <0> A   1       3.850  -4.897  -2.852  0.00  0.00    +0.349 HD
ENDBRANCH  34  35
BRANCH  34  37
ATOM     37  C29 <0> A   1       2.601  -7.228  -3.025  0.00  0.00    -0.103 C 
BRANCH  37  38
ATOM     38  C30 <0> A   1       3.339  -7.851  -4.182  0.00  0.00    +0.490 C 
ATOM     39  O2  <0> A   1       3.482  -7.228  -5.220  0.00  0.00    -0.681 OA
ATOM     40  O3  <0> A   1       3.793  -8.978  -4.079  0.00  0.00    -0.713 OA
ENDBRANCH  37  38
ENDBRANCH  34  37
ENDBRANCH  33  34
ENDBRANCH  30  33
ENDBRANCH  29  30
ENDBRANCH  28  29
ENDBRANCH   2  28
TORSDOF 12
