REMARK VINA RESULT:      -7.5      4.333      7.476
REMARK  Name = CHEMBL398239
REMARK  18 active torsions:
REMARK  status: ('A' for Active; 'I' for Inactive)
REMARK    1  A    between atoms: C1_1  and  C2_2
REMARK    2  A    between atoms: C4_5  and  C5_7
REMARK    3  A    between atoms: C5_7  and  N2_8
REMARK    4  A    between atoms: C6_9  and  C7_11
REMARK    5  A    between atoms: C8_12  and  C27_39
REMARK    6  A    between atoms: C9_13  and  C21_32
REMARK    7  A    between atoms: C10_14  and  C14_19
REMARK    8  A    between atoms: N3_15  and  C11_16
REMARK    9  A    between atoms: C11_16  and  C12_17
REMARK   10  A    between atoms: C11_16  and  C13_18
REMARK   11  A    between atoms: C14_19  and  C15_20
REMARK   12  A    between atoms: C15_20  and  C16_21
REMARK   13  A    between atoms: C16_21  and  C17_23
REMARK   14  A    between atoms: C16_21  and  O5_31
REMARK   15  A    between atoms: C17_23  and  C18_24
REMARK   16  A    between atoms: C18_24  and  C19_26
REMARK   17  A    between atoms: C18_24  and  O4_30
REMARK   18  A    between atoms: C19_26  and  C20_27
REMARK                            x       y       z     vdW  Elec       q    Type
REMARK                         _______ _______ _______ _____ _____    ______ ____
ROOT
ATOM      1  C7  <0> A   1     -12.874   9.963  46.400  0.00  0.00    -0.033 C 
ATOM      2  C8  <0> A   1     -13.791  10.179  47.421  0.00  0.00    -0.054 C 
ATOM      3  C9  <0> A   1     -13.616   9.125  48.354  0.00  0.00    -0.122 C 
ATOM      4  C10 <0> A   1     -12.622   8.322  47.882  0.00  0.00    +0.075 C 
ATOM      5  N3  <0> A   1     -12.174   8.817  46.704  0.00  0.00    -0.403 N 
ENDROOT
BRANCH   3   6
ATOM      6  C21 <0> A   1     -14.376   8.933  49.614  0.00  0.00    -0.010 A 
ATOM      7  C22 <0> A   1     -13.853   9.389  50.822  0.00  0.00    +0.053 A 
ATOM      8  C23 <0> A   1     -14.564   9.209  51.992  0.00  0.00    -0.013 A 
ATOM      9  C24 <0> A   1     -15.795   8.576  51.965  0.00  0.00    +0.095 A 
ATOM     10  C25 <0> A   1     -16.318   8.120  50.765  0.00  0.00    -0.020 A 
ATOM     11  C26 <0> A   1     -15.618   8.301  49.592  0.00  0.00    +0.054 A 
ATOM     12  F1  <0> A   1     -16.487   8.400  53.112  0.00  0.00    -0.142 F 
ENDBRANCH   3   6
BRANCH   2  13
ATOM     13  C27 <0> A   1     -14.762  11.292  47.516  0.00  0.00    -0.012 A 
ATOM     14  C28 <0> A   1     -16.063  11.130  47.037  0.00  0.00    +0.027 A 
ATOM     15  C29 <0> A   1     -16.964  12.171  47.129  0.00  0.00    +0.003 A 
ATOM     16  C30 <0> A   1     -16.579  13.374  47.695  0.00  0.00    -0.002 A 
ATOM     17  C31 <0> A   1     -15.291  13.541  48.172  0.00  0.00    +0.001 A 
ATOM     18  C32 <0> A   1     -14.383  12.505  48.090  0.00  0.00    +0.010 A 
ENDBRANCH   2  13
BRANCH   1  20
ATOM     19  N2  <0> A   1     -13.500  10.646  44.147  0.00  0.00    -0.719 N 
ATOM     20  C6  <0> A   1     -12.688  10.799  45.213  0.00  0.00    +0.609 C 
ATOM     21  O1  <0> A   1     -11.802  11.633  45.188  0.00  0.00    -0.513 OA
ATOM     22  H9  <0> A   1     -14.160   9.936  44.139  0.00  0.00    +0.406 HD
BRANCH  19  23
ATOM     23  C5  <0> A   1     -13.384  11.553  43.003  0.00  0.00    +0.415 C 
BRANCH  23  28
ATOM     24  C1  <0> A   1     -12.414   7.461  40.288  0.00  0.00    +0.147 C 
ATOM     25  C2  <0> A   1     -12.781   8.916  40.433  0.00  0.00    +0.061 C 
ATOM     26  C3  <0> A   1     -13.011   9.702  39.350  0.00  0.00    -0.026 C 
ATOM     27  S1  <0> A   1     -13.385  11.257  40.144  0.00  0.00    +0.127 S 
ATOM     28  C4  <0> A   1     -13.213  10.748  41.740  0.00  0.00    +0.026 C 
ATOM     29  N1  <0> A   1     -12.899   9.482  41.618  0.00  0.00    -0.492 NA
ENDBRANCH  23  28
ENDBRANCH  19  23
ENDBRANCH   1  20
BRANCH   5  30
ATOM     30  C11 <0> A   1     -11.113   8.228  45.884  0.00  0.00    +0.230 C 
ATOM     31  C12 <0> A   1     -11.654   7.935  44.482  0.00  0.00    +0.041 C 
ATOM     32  C13 <0> A   1      -9.942   9.208  45.784  0.00  0.00    +0.046 C 
ENDBRANCH   5  30
BRANCH   4  33
ATOM     33  C14 <0> A   1     -12.106   7.078  48.560  0.00  0.00    +0.118 C 
BRANCH  33  34
ATOM     34  C15 <0> A   1     -13.142   5.960  48.433  0.00  0.00    -0.009 C 
BRANCH  34  35
ATOM     35  C16 <0> A   1     -13.584   5.838  46.973  0.00  0.00    +0.213 C 
BRANCH  35  36
ATOM     36  O5  <0> A   1     -12.892   4.751  46.356  0.00  0.00    -0.542 OA
ATOM     37  H26 <0> A   1     -12.768   4.854  45.403  0.00  0.00    +0.363 HD
ENDBRANCH  35  36
BRANCH  35  38
ATOM     38  C17 <0> A   1     -15.092   5.581  46.917  0.00  0.00    -0.051 C 
BRANCH  38  39
ATOM     39  C18 <0> A   1     -15.687   6.301  45.705  0.00  0.00    +0.230 C 
BRANCH  39  40
ATOM     40  O4  <0> A   1     -14.724   7.215  45.174  0.00  0.00    -0.528 OA
ATOM     41  H25 <0> A   1     -14.803   7.359  44.221  0.00  0.00    +0.349 HD
ENDBRANCH  39  40
BRANCH  39  42
ATOM     42  C19 <0> A   1     -16.060   5.273  44.634  0.00  0.00    -0.103 C 
BRANCH  42  43
ATOM     43  C20 <0> A   1     -15.002   5.260  43.561  0.00  0.00    +0.490 C 
ATOM     44  O2  <0> A   1     -14.072   4.474  43.632  0.00  0.00    -0.681 OA
ATOM     45  O3  <0> A   1     -15.075   6.034  42.623  0.00  0.00    -0.713 OA
ENDBRANCH  42  43
ENDBRANCH  39  42
ENDBRANCH  38  39
ENDBRANCH  35  38
ENDBRANCH  34  35
ENDBRANCH  33  34
ENDBRANCH   4  33
TORSDOF 15
