REMARK VINA RESULT:      -7.6      2.830      8.556
REMARK  Name = CHEMBL398240
REMARK  17 active torsions:
REMARK  status: ('A' for Active; 'I' for Inactive)
REMARK    1  A    between atoms: C1_1  and  C2_2
REMARK    2  A    between atoms: C2_2  and  C3_3
REMARK    3  A    between atoms: C2_2  and  N1_4
REMARK    4  A    between atoms: C4_5  and  C27_32
REMARK    5  A    between atoms: C5_6  and  C21_25
REMARK    6  A    between atoms: C6_7  and  C15_19
REMARK    7  A    between atoms: C7_8  and  C8_9
REMARK    8  A    between atoms: N2_11  and  C9_12
REMARK    9  A    between atoms: C9_12  and  C10_13
REMARK   10  A    between atoms: C27_32  and  C28_33
REMARK   11  A    between atoms: C28_33  and  C29_34
REMARK   12  A    between atoms: C29_34  and  C30_36
REMARK   13  A    between atoms: C29_34  and  O5_44
REMARK   14  A    between atoms: C30_36  and  C31_37
REMARK   15  A    between atoms: C31_37  and  C32_39
REMARK   16  A    between atoms: C31_37  and  O4_43
REMARK   17  A    between atoms: C32_39  and  C33_40
REMARK                            x       y       z     vdW  Elec       q    Type
REMARK                         _______ _______ _______ _____ _____    ______ ____
ROOT
ATOM      1  N1  <0> A   1     -15.215   6.640  45.580  0.00  0.00    -0.402 N 
ATOM      2  C4  <0> A   1     -15.847   6.962  46.734  0.00  0.00    +0.073 C 
ATOM      3  C5  <0> A   1     -15.303   8.108  47.234  0.00  0.00    -0.122 C 
ATOM      4  C6  <0> A   1     -14.278   8.517  46.343  0.00  0.00    -0.058 C 
ATOM      5  C7  <0> A   1     -14.241   7.578  45.320  0.00  0.00    -0.030 C 
ENDROOT
BRANCH   3   6
ATOM      6  C21 <0> A   1     -15.708   8.799  48.481  0.00  0.00    -0.008 A 
ATOM      7  C22 <0> A   1     -15.158   8.416  49.703  0.00  0.00    +0.050 A 
ATOM      8  C23 <0> A   1     -15.538   9.062  50.862  0.00  0.00    -0.016 A 
ATOM      9  C24 <0> A   1     -16.467  10.089  50.812  0.00  0.00    +0.095 A 
ATOM     10  C25 <0> A   1     -17.017  10.473  49.601  0.00  0.00    -0.017 A 
ATOM     11  C26 <0> A   1     -16.637   9.837  48.436  0.00  0.00    +0.055 A 
ATOM     12  F1  <0> A   1     -16.836  10.717  51.950  0.00  0.00    -0.142 F 
ENDBRANCH   3   6
BRANCH   4  13
ATOM     13  C15 <0> A   1     -13.412   9.711  46.479  0.00  0.00    -0.012 A 
ATOM     14  C16 <0> A   1     -13.757  10.902  45.840  0.00  0.00    +0.024 A 
ATOM     15  C17 <0> A   1     -12.946  12.010  45.970  0.00  0.00    +0.001 A 
ATOM     16  C18 <0> A   1     -11.793  11.942  46.732  0.00  0.00    -0.003 A 
ATOM     17  C19 <0> A   1     -11.446  10.764  47.368  0.00  0.00    +0.003 A 
ATOM     18  C20 <0> A   1     -12.252   9.650  47.250  0.00  0.00    +0.013 A 
ENDBRANCH   4  13
BRANCH   5  19
ATOM     19  C8  <0> A   1     -13.332   7.585  44.172  0.00  0.00    +0.606 C 
ATOM     20  O1  <0> A   1     -12.135   7.442  44.343  0.00  0.00    -0.519 OA
ATOM     21  N2  <0> A   1     -13.820   7.749  42.927  0.00  0.00    -0.713 N 
ATOM     22  H10 <0> A   1     -14.764   7.929  42.795  0.00  0.00    +0.404 HD
BRANCH  21  23
ATOM     23  C9  <0> A   1     -12.924   7.657  41.771  0.00  0.00    +0.348 C 
BRANCH  23  24
ATOM     24  C10 <0> A   1     -12.990   8.939  40.981  0.00  0.00    +0.105 A 
ATOM     25  C11 <0> A   1     -13.388  10.106  41.604  0.00  0.00    -0.016 A 
ATOM     26  C12 <0> A   1     -13.446  11.279  40.868  0.00  0.00    +0.063 A 
ATOM     27  C13 <0> A   1     -13.099  11.234  39.525  0.00  0.00    -0.027 A 
ATOM     28  C14 <0> A   1     -12.711  10.030  38.971  0.00  0.00    +0.260 A 
ATOM     29  N3  <0> A   1     -12.662   8.934  39.703  0.00  0.00    -0.466 NA
ENDBRANCH  23  24
ENDBRANCH  21  23
ENDBRANCH   5  19
BRANCH   1  31
ATOM     30  C1  <0> A   1     -15.561   4.219  45.619  0.00  0.00    +0.046 C 
ATOM     31  C2  <0> A   1     -15.515   5.474  44.745  0.00  0.00    +0.229 C 
ATOM     32  C3  <0> A   1     -16.871   5.670  44.062  0.00  0.00    +0.042 C 
ENDBRANCH   1  31
BRANCH   2  33
ATOM     33  C27 <0> A   1     -16.971   6.181  47.362  0.00  0.00    +0.117 C 
BRANCH  33  34
ATOM     34  C28 <0> A   1     -18.312   6.741  46.883  0.00  0.00    -0.007 C 
BRANCH  34  35
ATOM     35  C29 <0> A   1     -19.264   6.874  48.072  0.00  0.00    +0.212 C 
BRANCH  35  36
ATOM     36  O5  <0> A   1     -20.404   6.038  47.867  0.00  0.00    -0.541 OA
ATOM     37  H35 <0> A   1     -20.290   5.385  47.163  0.00  0.00    +0.362 HD
ENDBRANCH  35  36
BRANCH  35  38
ATOM     38  C30 <0> A   1     -18.543   6.447  49.353  0.00  0.00    -0.051 C 
BRANCH  38  39
ATOM     39  C31 <0> A   1     -19.086   7.251  50.537  0.00  0.00    +0.230 C 
BRANCH  39  40
ATOM     40  O4  <0> A   1     -20.027   8.217  50.065  0.00  0.00    -0.528 OA
ATOM     41  H34 <0> A   1     -19.662   9.106  49.966  0.00  0.00    +0.349 HD
ENDBRANCH  39  40
BRANCH  39  42
ATOM     42  C32 <0> A   1     -19.778   6.304  51.521  0.00  0.00    -0.103 C 
BRANCH  42  43
ATOM     43  C33 <0> A   1     -21.259   6.290  51.246  0.00  0.00    +0.490 C 
ATOM     44  O2  <0> A   1     -22.001   7.036  51.862  0.00  0.00    -0.681 OA
ATOM     45  O3  <0> A   1     -21.716   5.531  50.408  0.00  0.00    -0.713 OA
ENDBRANCH  42  43
ENDBRANCH  39  42
ENDBRANCH  38  39
ENDBRANCH  35  38
ENDBRANCH  34  35
ENDBRANCH  33  34
ENDBRANCH   2  33
TORSDOF 15
