MODEL 1
REMARK VINA RESULT:      -8.0      0.000      0.000
REMARK  Name = CHEMBL398523
REMARK  15 active torsions:
REMARK  status: ('A' for Active; 'I' for Inactive)
REMARK    1  A    between atoms: C1_1  and  C2_2
REMARK    2  A    between atoms: C2_2  and  C3_3
REMARK    3  A    between atoms: C2_2  and  C4_4
REMARK    4  A    between atoms: C5_5  and  C25_30
REMARK    5  A    between atoms: N1_6  and  C19_23
REMARK    6  A    between atoms: C6_8  and  C7_9
REMARK    7  A    between atoms: C12_16  and  C13_17
REMARK    8  A    between atoms: C25_30  and  C26_31
REMARK    9  A    between atoms: C26_31  and  C27_32
REMARK   10  A    between atoms: C27_32  and  C28_34
REMARK   11  A    between atoms: C27_32  and  O5_42
REMARK   12  A    between atoms: C28_34  and  C29_35
REMARK   13  A    between atoms: C29_35  and  C30_37
REMARK   14  A    between atoms: C29_35  and  O4_41
REMARK   15  A    between atoms: C30_37  and  C31_38
REMARK                            x       y       z     vdW  Elec       q    Type
REMARK                         _______ _______ _______ _____ _____    ______ ____
ROOT
ATOM      1  C4  <0> A   1     -20.131   0.032  53.590  0.00  0.00    -0.123 C 
ATOM      2  C5  <0> A   1     -21.159   0.565  52.890  0.00  0.00    +0.031 C 
ATOM      3  N1  <0> A   1     -22.012  -0.452  52.596  0.00  0.00    -0.236 N 
ATOM      4  N2  <0> A   1     -21.563  -1.557  53.073  0.00  0.00    -0.263 NA
ATOM      5  C6  <0> A   1     -20.416  -1.351  53.690  0.00  0.00    +0.002 C 
ENDROOT
BRANCH   5   6
ATOM      6  C7  <0> A   1     -19.586  -2.371  54.362  0.00  0.00    +0.594 C 
ATOM      7  O1  <0> A   1     -18.544  -2.738  53.855  0.00  0.00    -0.481 OA
ATOM      8  N3  <0> A   1     -19.983  -2.894  55.538  0.00  0.00    -0.597 N 
ATOM      9  C8  <0> A   1     -21.301  -2.565  56.097  0.00  0.00    +0.274 C 
ATOM     10  C9  <0> A   1     -21.117  -2.047  57.527  0.00  0.00    +0.009 C 
ATOM     11  C10 <0> A   1     -20.328  -3.078  58.340  0.00  0.00    +0.009 C 
ATOM     12  C11 <0> A   1     -18.946  -3.275  57.715  0.00  0.00    +0.021 C 
ATOM     13  C12 <0> A   1     -19.109  -3.811  56.284  0.00  0.00    +0.268 C 
BRANCH  13  14
ATOM     14  C13 <0> A   1     -17.762  -3.881  55.612  0.00  0.00    -0.055 A 
ATOM     15  C14 <0> A   1     -16.804  -2.921  55.881  0.00  0.00    +0.040 A 
ATOM     16  C15 <0> A   1     -15.568  -2.987  55.265  0.00  0.00    -0.005 A 
ATOM     17  C16 <0> A   1     -15.290  -4.012  54.381  0.00  0.00    -0.006 A 
ATOM     18  C17 <0> A   1     -16.248  -4.972  54.112  0.00  0.00    -0.006 A 
ATOM     19  C18 <0> A   1     -17.482  -4.909  54.731  0.00  0.00    -0.003 A 
ENDBRANCH  13  14
ENDBRANCH   5   6
BRANCH   3  20
ATOM     20  C19 <0> A   1     -23.208  -0.315  51.877  0.00  0.00    +0.117 A 
ATOM     21  C20 <0> A   1     -24.184   0.570  52.315  0.00  0.00    +0.068 A 
ATOM     22  C21 <0> A   1     -25.361   0.705  51.606  0.00  0.00    +0.020 A 
ATOM     23  C22 <0> A   1     -25.568  -0.043  50.459  0.00  0.00    +0.112 A 
ATOM     24  C23 <0> A   1     -24.597  -0.927  50.022  0.00  0.00    +0.008 A 
ATOM     25  C24 <0> A   1     -23.416  -1.060  50.724  0.00  0.00    +0.070 A 
ATOM     26  F1  <0> A   1     -26.722   0.090  49.767  0.00  0.00    -0.131 F 
ENDBRANCH   3  20
BRANCH   1  28
ATOM     27  C1  <0> A   1     -18.727   0.366  55.607  0.00  0.00    +0.028 C 
ATOM     28  C2  <0> A   1     -18.931   0.758  54.142  0.00  0.00    +0.060 C 
ATOM     29  C3  <0> A   1     -17.689   0.378  53.334  0.00  0.00    +0.025 C 
ENDBRANCH   1  28
BRANCH   2  30
ATOM     30  C25 <0> A   1     -21.328   2.012  52.508  0.00  0.00    +0.127 C 
BRANCH  30  31
ATOM     31  C26 <0> A   1     -20.917   2.205  51.047  0.00  0.00    -0.008 C 
BRANCH  31  32
ATOM     32  C27 <0> A   1     -19.687   3.112  50.978  0.00  0.00    +0.214 C 
BRANCH  32  33
ATOM     33  O5  <0> A   1     -18.881   2.739  49.858  0.00  0.00    -0.540 OA
ATOM     34  H37 <0> A   1     -18.440   1.884  49.958  0.00  0.00    +0.363 HD
ENDBRANCH  32  33
BRANCH  32  35
ATOM     35  C28 <0> A   1     -20.134   4.567  50.821  0.00  0.00    -0.052 C 
BRANCH  35  36
ATOM     36  C29 <0> A   1     -20.057   4.969  49.347  0.00  0.00    +0.231 C 
BRANCH  36  37
ATOM     37  O4  <0> A   1     -21.275   4.609  48.691  0.00  0.00    -0.528 OA
ATOM     38  H36 <0> A   1     -21.148   4.173  47.838  0.00  0.00    +0.349 HD
ENDBRANCH  36  37
BRANCH  36  39
ATOM     39  C30 <0> A   1     -19.847   6.480  49.240  0.00  0.00    -0.103 C 
BRANCH  39  40
ATOM     40  C31 <0> A   1     -19.453   6.834  47.830  0.00  0.00    +0.491 C 
ATOM     41  O2  <0> A   1     -20.259   6.714  46.923  0.00  0.00    -0.681 OA
ATOM     42  O3  <0> A   1     -18.328   7.243  47.595  0.00  0.00    -0.713 OA
ENDBRANCH  39  40
ENDBRANCH  36  39
ENDBRANCH  35  36
ENDBRANCH  32  35
ENDBRANCH  31  32
ENDBRANCH  30  31
ENDBRANCH   2  30
TORSDOF 13
ENDMDL
MODEL 2
REMARK VINA RESULT:      -7.9      6.648     10.874
REMARK  Name = CHEMBL398523
REMARK  15 active torsions:
REMARK  status: ('A' for Active; 'I' for Inactive)
REMARK    1  A    between atoms: C1_1  and  C2_2
REMARK    2  A    between atoms: C2_2  and  C3_3
REMARK    3  A    between atoms: C2_2  and  C4_4
REMARK    4  A    between atoms: C5_5  and  C25_30
REMARK    5  A    between atoms: N1_6  and  C19_23
REMARK    6  A    between atoms: C6_8  and  C7_9
REMARK    7  A    between atoms: C12_16  and  C13_17
REMARK    8  A    between atoms: C25_30  and  C26_31
REMARK    9  A    between atoms: C26_31  and  C27_32
REMARK   10  A    between atoms: C27_32  and  C28_34
REMARK   11  A    between atoms: C27_32  and  O5_42
REMARK   12  A    between atoms: C28_34  and  C29_35
REMARK   13  A    between atoms: C29_35  and  C30_37
REMARK   14  A    between atoms: C29_35  and  O4_41
REMARK   15  A    between atoms: C30_37  and  C31_38
REMARK                            x       y       z     vdW  Elec       q    Type
REMARK                         _______ _______ _______ _____ _____    ______ ____
ROOT
ATOM      1  C4  <0> A   1     -25.316  -3.776  51.170  0.00  0.00    -0.123 C 
ATOM      2  C5  <0> A   1     -25.943  -4.910  50.780  0.00  0.00    +0.031 C 
ATOM      3  N1  <0> A   1     -27.151  -4.933  51.404  0.00  0.00    -0.236 N 
ATOM      4  N2  <0> A   1     -27.288  -3.889  52.139  0.00  0.00    -0.263 NA
ATOM      5  C6  <0> A   1     -26.210  -3.132  52.059  0.00  0.00    +0.002 C 
ENDROOT
BRANCH   5   6
ATOM      6  C7  <0> A   1     -25.981  -1.854  52.761  0.00  0.00    +0.594 C 
ATOM      7  O1  <0> A   1     -25.223  -1.809  53.710  0.00  0.00    -0.481 OA
ATOM      8  N3  <0> A   1     -26.611  -0.737  52.348  0.00  0.00    -0.597 N 
ATOM      9  C8  <0> A   1     -27.631  -0.799  51.293  0.00  0.00    +0.274 C 
ATOM     10  C9  <0> A   1     -27.263   0.199  50.190  0.00  0.00    +0.009 C 
ATOM     11  C10 <0> A   1     -27.079   1.588  50.807  0.00  0.00    +0.009 C 
ATOM     12  C11 <0> A   1     -25.939   1.550  51.825  0.00  0.00    +0.021 C 
ATOM     13  C12 <0> A   1     -26.296   0.567  52.950  0.00  0.00    +0.268 C 
BRANCH  13  14
ATOM     14  C13 <0> A   1     -25.125   0.420  53.887  0.00  0.00    -0.055 A 
ATOM     15  C14 <0> A   1     -25.340   0.272  55.244  0.00  0.00    +0.040 A 
ATOM     16  C15 <0> A   1     -24.266   0.136  56.103  0.00  0.00    -0.005 A 
ATOM     17  C16 <0> A   1     -22.976   0.148  55.605  0.00  0.00    -0.006 A 
ATOM     18  C17 <0> A   1     -22.762   0.296  54.247  0.00  0.00    -0.006 A 
ATOM     19  C18 <0> A   1     -23.836   0.427  53.388  0.00  0.00    -0.003 A 
ENDBRANCH  13  14
ENDBRANCH   5   6
BRANCH   3  20
ATOM     20  C19 <0> A   1     -28.108  -5.947  51.263  0.00  0.00    +0.117 A 
ATOM     21  C20 <0> A   1     -28.956  -5.955  50.163  0.00  0.00    +0.068 A 
ATOM     22  C21 <0> A   1     -29.898  -6.956  50.026  0.00  0.00    +0.020 A 
ATOM     23  C22 <0> A   1     -29.997  -7.950  50.984  0.00  0.00    +0.112 A 
ATOM     24  C23 <0> A   1     -29.153  -7.943  52.082  0.00  0.00    +0.008 A 
ATOM     25  C24 <0> A   1     -28.206  -6.948  52.220  0.00  0.00    +0.070 A 
ATOM     26  F1  <0> A   1     -30.920  -8.928  50.848  0.00  0.00    -0.131 F 
ENDBRANCH   3  20
BRANCH   1  28
ATOM     27  C1  <0> A   1     -24.021  -1.824  50.354  0.00  0.00    +0.028 C 
ATOM     28  C2  <0> A   1     -23.949  -3.301  50.750  0.00  0.00    +0.060 C 
ATOM     29  C3  <0> A   1     -22.971  -3.469  51.914  0.00  0.00    +0.025 C 
ENDBRANCH   1  28
BRANCH   2  30
ATOM     30  C25 <0> A   1     -25.405  -5.951  49.834  0.00  0.00    +0.127 C 
BRANCH  30  31
ATOM     31  C26 <0> A   1     -24.535  -6.943  50.608  0.00  0.00    -0.008 C 
BRANCH  31  32
ATOM     32  C27 <0> A   1     -24.191  -8.131  49.707  0.00  0.00    +0.214 C 
BRANCH  32  33
ATOM     33  O5  <0> A   1     -23.426  -7.676  48.589  0.00  0.00    -0.540 OA
ATOM     34  H37 <0> A   1     -22.681  -8.249  48.361  0.00  0.00    +0.363 HD
ENDBRANCH  32  33
BRANCH  32  35
ATOM     35  C28 <0> A   1     -23.374  -9.153  50.501  0.00  0.00    -0.052 C 
BRANCH  35  36
ATOM     36  C29 <0> A   1     -24.084 -10.508  50.471  0.00  0.00    +0.231 C 
BRANCH  36  37
ATOM     37  O4  <0> A   1     -25.497 -10.303  50.411  0.00  0.00    -0.528 OA
ATOM     38  H36 <0> A   1     -25.847 -10.233  49.513  0.00  0.00    +0.349 HD
ENDBRANCH  36  37
BRANCH  36  39
ATOM     39  C30 <0> A   1     -23.630 -11.294  49.239  0.00  0.00    -0.103 C 
BRANCH  39  40
ATOM     40  C31 <0> A   1     -24.728 -12.234  48.811  0.00  0.00    +0.491 C 
ATOM     41  O2  <0> A   1     -25.355 -12.012  47.789  0.00  0.00    -0.681 OA
ATOM     42  O3  <0> A   1     -24.987 -13.216  49.485  0.00  0.00    -0.713 OA
ENDBRANCH  39  40
ENDBRANCH  36  39
ENDBRANCH  35  36
ENDBRANCH  32  35
ENDBRANCH  31  32
ENDBRANCH  30  31
ENDBRANCH   2  30
TORSDOF 13
ENDMDL
MODEL 3
REMARK VINA RESULT:      -7.8      8.952     12.418
REMARK  Name = CHEMBL398523
REMARK  15 active torsions:
REMARK  status: ('A' for Active; 'I' for Inactive)
REMARK    1  A    between atoms: C1_1  and  C2_2
REMARK    2  A    between atoms: C2_2  and  C3_3
REMARK    3  A    between atoms: C2_2  and  C4_4
REMARK    4  A    between atoms: C5_5  and  C25_30
REMARK    5  A    between atoms: N1_6  and  C19_23
REMARK    6  A    between atoms: C6_8  and  C7_9
REMARK    7  A    between atoms: C12_16  and  C13_17
REMARK    8  A    between atoms: C25_30  and  C26_31
REMARK    9  A    between atoms: C26_31  and  C27_32
REMARK   10  A    between atoms: C27_32  and  C28_34
REMARK   11  A    between atoms: C27_32  and  O5_42
REMARK   12  A    between atoms: C28_34  and  C29_35
REMARK   13  A    between atoms: C29_35  and  C30_37
REMARK   14  A    between atoms: C29_35  and  O4_41
REMARK   15  A    between atoms: C30_37  and  C31_38
REMARK                            x       y       z     vdW  Elec       q    Type
REMARK                         _______ _______ _______ _____ _____    ______ ____
ROOT
ATOM      1  C4  <0> A   1     -27.761  -7.368  50.695  0.00  0.00    -0.123 C 
ATOM      2  C5  <0> A   1     -26.652  -7.849  50.087  0.00  0.00    +0.031 C 
ATOM      3  N1  <0> A   1     -26.728  -9.205  50.131  0.00  0.00    -0.236 N 
ATOM      4  N2  <0> A   1     -27.809  -9.567  50.723  0.00  0.00    -0.263 NA
ATOM      5  C6  <0> A   1     -28.494  -8.507  51.105  0.00  0.00    +0.002 C 
ENDROOT
BRANCH   5   6
ATOM      6  C7  <0> A   1     -29.785  -8.508  51.822  0.00  0.00    +0.594 C 
ATOM      7  O1  <0> A   1     -29.818  -8.282  53.015  0.00  0.00    -0.481 OA
ATOM      8  N3  <0> A   1     -30.927  -8.759  51.152  0.00  0.00    -0.597 N 
ATOM      9  C8  <0> A   1     -30.893  -9.169  49.742  0.00  0.00    +0.274 C 
ATOM     10  C9  <0> A   1     -31.796  -8.232  48.933  0.00  0.00    +0.009 C 
ATOM     11  C10 <0> A   1     -33.197  -8.222  49.552  0.00  0.00    +0.009 C 
ATOM     12  C11 <0> A   1     -33.119  -7.700  50.987  0.00  0.00    +0.021 C 
ATOM     13  C12 <0> A   1     -32.230  -8.636  51.820  0.00  0.00    +0.268 C 
BRANCH  13  14
ATOM     14  C13 <0> A   1     -32.037  -8.059  53.199  0.00  0.00    -0.055 A 
ATOM     15  C14 <0> A   1     -31.933  -6.691  53.368  0.00  0.00    +0.040 A 
ATOM     16  C15 <0> A   1     -31.757  -6.162  54.633  0.00  0.00    -0.005 A 
ATOM     17  C16 <0> A   1     -31.685  -7.001  55.729  0.00  0.00    -0.006 A 
ATOM     18  C17 <0> A   1     -31.789  -8.370  55.560  0.00  0.00    -0.006 A 
ATOM     19  C18 <0> A   1     -31.969  -8.898  54.296  0.00  0.00    -0.003 A 
ENDBRANCH  13  14
ENDBRANCH   5   6
BRANCH   3  20
ATOM     20  C19 <0> A   1     -25.768 -10.081  49.605  0.00  0.00    +0.117 A 
ATOM     21  C20 <0> A   1     -25.621 -10.205  48.230  0.00  0.00    +0.068 A 
ATOM     22  C21 <0> A   1     -24.675 -11.069  47.713  0.00  0.00    +0.020 A 
ATOM     23  C22 <0> A   1     -23.873 -11.809  48.565  0.00  0.00    +0.112 A 
ATOM     24  C23 <0> A   1     -24.019 -11.687  49.937  0.00  0.00    +0.008 A 
ATOM     25  C24 <0> A   1     -24.960 -10.820  50.458  0.00  0.00    +0.070 A 
ATOM     26  F1  <0> A   1     -22.948 -12.653  48.057  0.00  0.00    -0.131 F 
ENDBRANCH   3  20
BRANCH   1  28
ATOM     27  C1  <0> A   1     -29.560  -5.687  50.391  0.00  0.00    +0.028 C 
ATOM     28  C2  <0> A   1     -28.134  -5.922  50.897  0.00  0.00    +0.060 C 
ATOM     29  C3  <0> A   1     -28.061  -5.580  52.387  0.00  0.00    +0.025 C 
ENDBRANCH   1  28
BRANCH   2  30
ATOM     30  C25 <0> A   1     -25.541  -7.034  49.477  0.00  0.00    +0.127 C 
BRANCH  30  31
ATOM     31  C26 <0> A   1     -24.314  -7.079  50.391  0.00  0.00    -0.008 C 
BRANCH  31  32
ATOM     32  C27 <0> A   1     -24.437  -5.994  51.462  0.00  0.00    +0.214 C 
BRANCH  32  33
ATOM     33  O5  <0> A   1     -23.199  -5.879  52.168  0.00  0.00    -0.540 OA
ATOM     34  H37 <0> A   1     -22.796  -5.001  52.116  0.00  0.00    +0.363 HD
ENDBRANCH  32  33
BRANCH  32  35
ATOM     35  C28 <0> A   1     -24.770  -4.656  50.798  0.00  0.00    -0.052 C 
BRANCH  35  36
ATOM     36  C29 <0> A   1     -23.841  -3.570  51.343  0.00  0.00    +0.231 C 
BRANCH  36  37
ATOM     37  O4  <0> A   1     -22.759  -3.368  50.431  0.00  0.00    -0.528 OA
ATOM     38  H36 <0> A   1     -23.027  -3.005  49.577  0.00  0.00    +0.349 HD
ENDBRANCH  36  37
BRANCH  36  39
ATOM     39  C30 <0> A   1     -24.622  -2.265  51.505  0.00  0.00    -0.103 C 
BRANCH  39  40
ATOM     40  C31 <0> A   1     -23.917  -1.162  50.759  0.00  0.00    +0.491 C 
ATOM     41  O2  <0> A   1     -22.887  -0.685  51.204  0.00  0.00    -0.681 OA
ATOM     42  O3  <0> A   1     -24.376  -0.747  49.708  0.00  0.00    -0.713 OA
ENDBRANCH  39  40
ENDBRANCH  36  39
ENDBRANCH  35  36
ENDBRANCH  32  35
ENDBRANCH  31  32
ENDBRANCH  30  31
ENDBRANCH   2  30
TORSDOF 13
ENDMDL
MODEL 4
REMARK VINA RESULT:      -7.7      6.670     10.739
REMARK  Name = CHEMBL398523
REMARK  15 active torsions:
REMARK  status: ('A' for Active; 'I' for Inactive)
REMARK    1  A    between atoms: C1_1  and  C2_2
REMARK    2  A    between atoms: C2_2  and  C3_3
REMARK    3  A    between atoms: C2_2  and  C4_4
REMARK    4  A    between atoms: C5_5  and  C25_30
REMARK    5  A    between atoms: N1_6  and  C19_23
REMARK    6  A    between atoms: C6_8  and  C7_9
REMARK    7  A    between atoms: C12_16  and  C13_17
REMARK    8  A    between atoms: C25_30  and  C26_31
REMARK    9  A    between atoms: C26_31  and  C27_32
REMARK   10  A    between atoms: C27_32  and  C28_34
REMARK   11  A    between atoms: C27_32  and  O5_42
REMARK   12  A    between atoms: C28_34  and  C29_35
REMARK   13  A    between atoms: C29_35  and  C30_37
REMARK   14  A    between atoms: C29_35  and  O4_41
REMARK   15  A    between atoms: C30_37  and  C31_38
REMARK                            x       y       z     vdW  Elec       q    Type
REMARK                         _______ _______ _______ _____ _____    ______ ____
ROOT
ATOM      1  C4  <0> A   1     -25.238  -2.986  51.754  0.00  0.00    -0.123 C 
ATOM      2  C5  <0> A   1     -25.536  -4.190  51.211  0.00  0.00    +0.031 C 
ATOM      3  N1  <0> A   1     -26.842  -4.442  51.490  0.00  0.00    -0.236 N 
ATOM      4  N2  <0> A   1     -27.345  -3.469  52.162  0.00  0.00    -0.263 NA
ATOM      5  C6  <0> A   1     -26.432  -2.542  52.372  0.00  0.00    +0.002 C 
ENDROOT
BRANCH   5   6
ATOM      6  C7  <0> A   1     -26.619  -1.277  53.109  0.00  0.00    +0.594 C 
ATOM      7  O1  <0> A   1     -26.196  -1.165  54.243  0.00  0.00    -0.481 OA
ATOM      8  N3  <0> A   1     -27.258  -0.245  52.524  0.00  0.00    -0.597 N 
ATOM      9  C8  <0> A   1     -27.895  -0.406  51.210  0.00  0.00    +0.274 C 
ATOM     10  C9  <0> A   1     -27.369   0.682  50.269  0.00  0.00    +0.009 C 
ATOM     11  C10 <0> A   1     -27.590   2.055  50.911  0.00  0.00    +0.009 C 
ATOM     12  C11 <0> A   1     -26.815   2.136  52.226  0.00  0.00    +0.021 C 
ATOM     13  C12 <0> A   1     -27.339   1.062  53.191  0.00  0.00    +0.268 C 
BRANCH  13  14
ATOM     14  C13 <0> A   1     -26.493   1.044  54.438  0.00  0.00    -0.055 A 
ATOM     15  C14 <0> A   1     -27.077   0.798  55.666  0.00  0.00    +0.040 A 
ATOM     16  C15 <0> A   1     -26.301   0.781  56.810  0.00  0.00    -0.005 A 
ATOM     17  C16 <0> A   1     -24.941   1.009  56.726  0.00  0.00    -0.006 A 
ATOM     18  C17 <0> A   1     -24.356   1.256  55.497  0.00  0.00    -0.006 A 
ATOM     19  C18 <0> A   1     -25.131   1.269  54.354  0.00  0.00    -0.003 A 
ENDBRANCH  13  14
ENDBRANCH   5   6
BRANCH   3  20
ATOM     20  C19 <0> A   1     -27.539  -5.594  51.099  0.00  0.00    +0.117 A 
ATOM     21  C20 <0> A   1     -27.836  -6.576  52.034  0.00  0.00    +0.068 A 
ATOM     22  C21 <0> A   1     -28.523  -7.710  51.647  0.00  0.00    +0.020 A 
ATOM     23  C22 <0> A   1     -28.915  -7.867  50.329  0.00  0.00    +0.112 A 
ATOM     24  C23 <0> A   1     -28.619  -6.889  49.395  0.00  0.00    +0.008 A 
ATOM     25  C24 <0> A   1     -27.938  -5.751  49.779  0.00  0.00    +0.070 A 
ATOM     26  F1  <0> A   1     -29.587  -8.978  49.953  0.00  0.00    -0.131 F 
ENDBRANCH   3  20
BRANCH   1  28
ATOM     27  C1  <0> A   1     -24.082  -0.918  51.021  0.00  0.00    +0.028 C 
ATOM     28  C2  <0> A   1     -23.911  -2.272  51.713  0.00  0.00    +0.060 C 
ATOM     29  C3  <0> A   1     -23.406  -2.055  53.141  0.00  0.00    +0.025 C 
ENDBRANCH   1  28
BRANCH   2  30
ATOM     30  C25 <0> A   1     -24.597  -5.083  50.443  0.00  0.00    +0.127 C 
BRANCH  30  31
ATOM     31  C26 <0> A   1     -24.272  -6.322  51.281  0.00  0.00    -0.008 C 
BRANCH  31  32
ATOM     32  C27 <0> A   1     -24.484  -7.579  50.435  0.00  0.00    +0.214 C 
BRANCH  32  33
ATOM     33  O5  <0> A   1     -23.910  -7.386  49.140  0.00  0.00    -0.540 OA
ATOM     34  H37 <0> A   1     -22.949  -7.278  49.148  0.00  0.00    +0.363 HD
ENDBRANCH  32  33
BRANCH  32  35
ATOM     35  C28 <0> A   1     -23.812  -8.772  51.117  0.00  0.00    -0.052 C 
BRANCH  35  36
ATOM     36  C29 <0> A   1     -24.565 -10.056  50.759  0.00  0.00    +0.231 C 
BRANCH  36  37
ATOM     37  O4  <0> A   1     -25.870  -9.724  50.281  0.00  0.00    -0.528 OA
ATOM     38  H36 <0> A   1     -26.073 -10.085  49.408  0.00  0.00    +0.349 HD
ENDBRANCH  36  37
BRANCH  36  39
ATOM     39  C30 <0> A   1     -23.799 -10.809  49.670  0.00  0.00    -0.103 C 
BRANCH  39  40
ATOM     40  C31 <0> A   1     -24.621 -10.839  48.407  0.00  0.00    +0.491 C 
ATOM     41  O2  <0> A   1     -25.282 -11.826  48.133  0.00  0.00    -0.681 OA
ATOM     42  O3  <0> A   1     -24.626  -9.875  47.661  0.00  0.00    -0.713 OA
ENDBRANCH  39  40
ENDBRANCH  36  39
ENDBRANCH  35  36
ENDBRANCH  32  35
ENDBRANCH  31  32
ENDBRANCH  30  31
ENDBRANCH   2  30
TORSDOF 13
ENDMDL
MODEL 5
REMARK VINA RESULT:      -7.6      3.365      5.573
REMARK  Name = CHEMBL398523
REMARK  15 active torsions:
REMARK  status: ('A' for Active; 'I' for Inactive)
REMARK    1  A    between atoms: C1_1  and  C2_2
REMARK    2  A    between atoms: C2_2  and  C3_3
REMARK    3  A    between atoms: C2_2  and  C4_4
REMARK    4  A    between atoms: C5_5  and  C25_30
REMARK    5  A    between atoms: N1_6  and  C19_23
REMARK    6  A    between atoms: C6_8  and  C7_9
REMARK    7  A    between atoms: C12_16  and  C13_17
REMARK    8  A    between atoms: C25_30  and  C26_31
REMARK    9  A    between atoms: C26_31  and  C27_32
REMARK   10  A    between atoms: C27_32  and  C28_34
REMARK   11  A    between atoms: C27_32  and  O5_42
REMARK   12  A    between atoms: C28_34  and  C29_35
REMARK   13  A    between atoms: C29_35  and  C30_37
REMARK   14  A    between atoms: C29_35  and  O4_41
REMARK   15  A    between atoms: C30_37  and  C31_38
REMARK                            x       y       z     vdW  Elec       q    Type
REMARK                         _______ _______ _______ _____ _____    ______ ____
ROOT
ATOM      1  C4  <0> A   1     -22.656  -1.163  52.223  0.00  0.00    -0.123 C 
ATOM      2  C5  <0> A   1     -22.870   0.024  51.608  0.00  0.00    +0.031 C 
ATOM      3  N1  <0> A   1     -21.923   0.886  52.063  0.00  0.00    -0.236 N 
ATOM      4  N2  <0> A   1     -21.157   0.294  52.907  0.00  0.00    -0.263 NA
ATOM      5  C6  <0> A   1     -21.538  -0.958  53.067  0.00  0.00    +0.002 C 
ENDROOT
BRANCH   5   6
ATOM      6  C7  <0> A   1     -20.916  -1.958  53.956  0.00  0.00    +0.594 C 
ATOM      7  O1  <0> A   1     -20.044  -2.691  53.532  0.00  0.00    -0.481 OA
ATOM      8  N3  <0> A   1     -21.315  -2.059  55.240  0.00  0.00    -0.597 N 
ATOM      9  C8  <0> A   1     -22.458  -1.279  55.732  0.00  0.00    +0.274 C 
ATOM     10  C9  <0> A   1     -22.023  -0.492  56.971  0.00  0.00    +0.009 C 
ATOM     11  C10 <0> A   1     -21.430  -1.457  58.001  0.00  0.00    +0.009 C 
ATOM     12  C11 <0> A   1     -20.200  -2.146  57.409  0.00  0.00    +0.021 C 
ATOM     13  C12 <0> A   1     -20.618  -2.957  56.172  0.00  0.00    +0.268 C 
BRANCH  13  14
ATOM     14  C13 <0> A   1     -19.396  -3.529  55.503  0.00  0.00    -0.055 A 
ATOM     15  C14 <0> A   1     -18.217  -2.809  55.483  0.00  0.00    +0.040 A 
ATOM     16  C15 <0> A   1     -17.095  -3.335  54.870  0.00  0.00    -0.005 A 
ATOM     17  C16 <0> A   1     -17.153  -4.582  54.276  0.00  0.00    -0.006 A 
ATOM     18  C17 <0> A   1     -18.333  -5.303  54.296  0.00  0.00    -0.006 A 
ATOM     19  C18 <0> A   1     -19.452  -4.779  54.913  0.00  0.00    -0.003 A 
ENDBRANCH  13  14
ENDBRANCH   5   6
BRANCH   3  20
ATOM     20  C19 <0> A   1     -21.799   2.225  51.666  0.00  0.00    +0.117 A 
ATOM     21  C20 <0> A   1     -20.977   2.560  50.599  0.00  0.00    +0.068 A 
ATOM     22  C21 <0> A   1     -20.857   3.880  50.210  0.00  0.00    +0.020 A 
ATOM     23  C22 <0> A   1     -21.555   4.867  50.883  0.00  0.00    +0.112 A 
ATOM     24  C23 <0> A   1     -22.374   4.535  51.949  0.00  0.00    +0.008 A 
ATOM     25  C24 <0> A   1     -22.502   3.216  52.337  0.00  0.00    +0.070 A 
ATOM     26  F1  <0> A   1     -21.435   6.158  50.500  0.00  0.00    -0.131 F 
ENDBRANCH   3  20
BRANCH   1  28
ATOM     27  C1  <0> A   1     -24.808  -2.286  52.730  0.00  0.00    +0.028 C 
ATOM     28  C2  <0> A   1     -23.446  -2.435  52.048  0.00  0.00    +0.060 C 
ATOM     29  C3  <0> A   1     -23.650  -2.708  50.557  0.00  0.00    +0.025 C 
ENDBRANCH   1  28
BRANCH   2  30
ATOM     30  C25 <0> A   1     -23.954   0.331  50.608  0.00  0.00    +0.127 C 
BRANCH  30  31
ATOM     31  C26 <0> A   1     -25.178   0.887  51.339  0.00  0.00    -0.008 C 
BRANCH  31  32
ATOM     32  C27 <0> A   1     -26.444   0.534  50.554  0.00  0.00    +0.214 C 
BRANCH  32  33
ATOM     33  O5  <0> A   1     -26.118  -0.388  49.512  0.00  0.00    -0.540 OA
ATOM     34  H37 <0> A   1     -26.530  -0.183  48.662  0.00  0.00    +0.363 HD
ENDBRANCH  32  33
BRANCH  32  35
ATOM     35  C28 <0> A   1     -27.467  -0.104  51.497  0.00  0.00    -0.052 C 
BRANCH  35  36
ATOM     36  C29 <0> A   1     -28.394   0.979  52.052  0.00  0.00    +0.231 C 
BRANCH  36  37
ATOM     37  O4  <0> A   1     -27.965   1.345  53.366  0.00  0.00    -0.528 OA
ATOM     38  H36 <0> A   1     -27.064   1.693  53.402  0.00  0.00    +0.349 HD
ENDBRANCH  36  37
BRANCH  36  39
ATOM     39  C30 <0> A   1     -28.348   2.206  51.140  0.00  0.00    -0.103 C 
BRANCH  39  40
ATOM     40  C31 <0> A   1     -28.095   3.439  51.969  0.00  0.00    +0.491 C 
ATOM     41  O2  <0> A   1     -29.028   4.027  52.488  0.00  0.00    -0.681 OA
ATOM     42  O3  <0> A   1     -26.956   3.846  52.123  0.00  0.00    -0.713 OA
ENDBRANCH  39  40
ENDBRANCH  36  39
ENDBRANCH  35  36
ENDBRANCH  32  35
ENDBRANCH  31  32
ENDBRANCH  30  31
ENDBRANCH   2  30
TORSDOF 13
ENDMDL
MODEL 6
REMARK VINA RESULT:      -7.6      3.303      7.864
REMARK  Name = CHEMBL398523
REMARK  15 active torsions:
REMARK  status: ('A' for Active; 'I' for Inactive)
REMARK    1  A    between atoms: C1_1  and  C2_2
REMARK    2  A    between atoms: C2_2  and  C3_3
REMARK    3  A    between atoms: C2_2  and  C4_4
REMARK    4  A    between atoms: C5_5  and  C25_30
REMARK    5  A    between atoms: N1_6  and  C19_23
REMARK    6  A    between atoms: C6_8  and  C7_9
REMARK    7  A    between atoms: C12_16  and  C13_17
REMARK    8  A    between atoms: C25_30  and  C26_31
REMARK    9  A    between atoms: C26_31  and  C27_32
REMARK   10  A    between atoms: C27_32  and  C28_34
REMARK   11  A    between atoms: C27_32  and  O5_42
REMARK   12  A    between atoms: C28_34  and  C29_35
REMARK   13  A    between atoms: C29_35  and  C30_37
REMARK   14  A    between atoms: C29_35  and  O4_41
REMARK   15  A    between atoms: C30_37  and  C31_38
REMARK                            x       y       z     vdW  Elec       q    Type
REMARK                         _______ _______ _______ _____ _____    ______ ____
ROOT
ATOM      1  C4  <0> A   1     -23.551  -0.036  52.621  0.00  0.00    -0.123 C 
ATOM      2  C5  <0> A   1     -22.466  -0.243  53.403  0.00  0.00    +0.031 C 
ATOM      3  N1  <0> A   1     -22.890  -0.918  54.504  0.00  0.00    -0.236 N 
ATOM      4  N2  <0> A   1     -24.155  -1.128  54.433  0.00  0.00    -0.263 NA
ATOM      5  C6  <0> A   1     -24.638  -0.617  53.317  0.00  0.00    +0.002 C 
ENDROOT
BRANCH   5   6
ATOM      6  C7  <0> A   1     -26.047  -0.646  52.876  0.00  0.00    +0.594 C 
ATOM      7  O1  <0> A   1     -26.743   0.342  52.997  0.00  0.00    -0.481 OA
ATOM      8  N3  <0> A   1     -26.560  -1.770  52.337  0.00  0.00    -0.597 N 
ATOM      9  C8  <0> A   1     -25.776  -3.012  52.308  0.00  0.00    +0.274 C 
ATOM     10  C9  <0> A   1     -25.729  -3.534  50.869  0.00  0.00    +0.009 C 
ATOM     11  C10 <0> A   1     -27.158  -3.679  50.337  0.00  0.00    +0.009 C 
ATOM     12  C11 <0> A   1     -27.845  -2.312  50.335  0.00  0.00    +0.021 C 
ATOM     13  C12 <0> A   1     -27.917  -1.778  51.773  0.00  0.00    +0.268 C 
BRANCH  13  14
ATOM     14  C13 <0> A   1     -28.469  -0.377  51.767  0.00  0.00    -0.055 A 
ATOM     15  C14 <0> A   1     -28.052   0.527  50.808  0.00  0.00    +0.040 A 
ATOM     16  C15 <0> A   1     -28.559   1.813  50.803  0.00  0.00    -0.005 A 
ATOM     17  C16 <0> A   1     -29.484   2.196  51.756  0.00  0.00    -0.006 A 
ATOM     18  C17 <0> A   1     -29.902   1.291  52.716  0.00  0.00    -0.006 A 
ATOM     19  C18 <0> A   1     -29.398   0.005  52.718  0.00  0.00    -0.003 A 
ENDBRANCH  13  14
ENDBRANCH   5   6
BRANCH   3  20
ATOM     20  C19 <0> A   1     -22.067  -1.326  55.562  0.00  0.00    +0.117 A 
ATOM     21  C20 <0> A   1     -21.992  -0.561  56.719  0.00  0.00    +0.068 A 
ATOM     22  C21 <0> A   1     -21.180  -0.965  57.761  0.00  0.00    +0.020 A 
ATOM     23  C22 <0> A   1     -20.442  -2.131  57.653  0.00  0.00    +0.112 A 
ATOM     24  C23 <0> A   1     -20.514  -2.894  56.499  0.00  0.00    +0.008 A 
ATOM     25  C24 <0> A   1     -21.329  -2.497  55.458  0.00  0.00    +0.070 A 
ATOM     26  F1  <0> A   1     -19.648  -2.523  58.674  0.00  0.00    -0.131 F 
ENDBRANCH   3  20
BRANCH   1  28
ATOM     27  C1  <0> A   1     -24.294  -0.221  50.262  0.00  0.00    +0.028 C 
ATOM     28  C2  <0> A   1     -23.593   0.670  51.290  0.00  0.00    +0.060 C 
ATOM     29  C3  <0> A   1     -24.362   1.985  51.435  0.00  0.00    +0.025 C 
ENDBRANCH   1  28
BRANCH   2  30
ATOM     30  C25 <0> A   1     -21.054   0.191  53.108  0.00  0.00    +0.127 C 
BRANCH  30  31
ATOM     31  C26 <0> A   1     -20.840   1.614  53.629  0.00  0.00    -0.008 C 
BRANCH  31  32
ATOM     32  C27 <0> A   1     -20.964   2.605  52.469  0.00  0.00    +0.214 C 
BRANCH  32  33
ATOM     33  O5  <0> A   1     -21.496   3.840  52.953  0.00  0.00    -0.540 OA
ATOM     34  H37 <0> A   1     -22.442   3.954  52.786  0.00  0.00    +0.363 HD
ENDBRANCH  32  33
BRANCH  32  35
ATOM     35  C28 <0> A   1     -19.583   2.850  51.857  0.00  0.00    -0.052 C 
BRANCH  35  36
ATOM     36  C29 <0> A   1     -19.721   3.037  50.345  0.00  0.00    +0.231 C 
BRANCH  36  37
ATOM     37  O4  <0> A   1     -21.040   2.665  49.938  0.00  0.00    -0.528 OA
ATOM     38  H36 <0> A   1     -21.064   1.942  49.297  0.00  0.00    +0.349 HD
ENDBRANCH  36  37
BRANCH  36  39
ATOM     39  C30 <0> A   1     -19.472   4.503  49.987  0.00  0.00    -0.103 C 
BRANCH  39  40
ATOM     40  C31 <0> A   1     -20.758   5.130  49.512  0.00  0.00    +0.491 C 
ATOM     41  O2  <0> A   1     -21.605   5.469  50.320  0.00  0.00    -0.681 OA
ATOM     42  O3  <0> A   1     -20.948   5.300  48.320  0.00  0.00    -0.713 OA
ENDBRANCH  39  40
ENDBRANCH  36  39
ENDBRANCH  35  36
ENDBRANCH  32  35
ENDBRANCH  31  32
ENDBRANCH  30  31
ENDBRANCH   2  30
TORSDOF 13
ENDMDL
MODEL 7
REMARK VINA RESULT:      -7.6      8.003     13.172
REMARK  Name = CHEMBL398523
REMARK  15 active torsions:
REMARK  status: ('A' for Active; 'I' for Inactive)
REMARK    1  A    between atoms: C1_1  and  C2_2
REMARK    2  A    between atoms: C2_2  and  C3_3
REMARK    3  A    between atoms: C2_2  and  C4_4
REMARK    4  A    between atoms: C5_5  and  C25_30
REMARK    5  A    between atoms: N1_6  and  C19_23
REMARK    6  A    between atoms: C6_8  and  C7_9
REMARK    7  A    between atoms: C12_16  and  C13_17
REMARK    8  A    between atoms: C25_30  and  C26_31
REMARK    9  A    between atoms: C26_31  and  C27_32
REMARK   10  A    between atoms: C27_32  and  C28_34
REMARK   11  A    between atoms: C27_32  and  O5_42
REMARK   12  A    between atoms: C28_34  and  C29_35
REMARK   13  A    between atoms: C29_35  and  C30_37
REMARK   14  A    between atoms: C29_35  and  O4_41
REMARK   15  A    between atoms: C30_37  and  C31_38
REMARK                            x       y       z     vdW  Elec       q    Type
REMARK                         _______ _______ _______ _____ _____    ______ ____
ROOT
ATOM      1  C4  <0> A   1     -15.514   6.331  45.817  0.00  0.00    -0.123 C 
ATOM      2  C5  <0> A   1     -14.334   6.781  45.329  0.00  0.00    +0.031 C 
ATOM      3  N1  <0> A   1     -13.888   7.739  46.183  0.00  0.00    -0.236 N 
ATOM      4  N2  <0> A   1     -14.721   7.892  47.149  0.00  0.00    -0.263 NA
ATOM      5  C6  <0> A   1     -15.745   7.075  46.999  0.00  0.00    +0.002 C 
ENDROOT
BRANCH   5   6
ATOM      6  C7  <0> A   1     -16.912   6.956  47.896  0.00  0.00    +0.594 C 
ATOM      7  O1  <0> A   1     -17.509   5.901  47.979  0.00  0.00    -0.481 OA
ATOM      8  N3  <0> A   1     -17.314   8.017  48.622  0.00  0.00    -0.597 N 
ATOM      9  C8  <0> A   1     -16.691   9.334  48.432  0.00  0.00    +0.274 C 
ATOM     10  C9  <0> A   1     -16.202   9.850  49.789  0.00  0.00    +0.009 C 
ATOM     11  C10 <0> A   1     -17.368   9.843  50.782  0.00  0.00    +0.009 C 
ATOM     12  C11 <0> A   1     -17.877   8.413  50.964  0.00  0.00    +0.021 C 
ATOM     13  C12 <0> A   1     -18.388   7.882  49.616  0.00  0.00    +0.268 C 
BRANCH  13  14
ATOM     14  C13 <0> A   1     -18.768   6.430  49.753  0.00  0.00    -0.055 A 
ATOM     15  C14 <0> A   1     -17.967   5.572  50.483  0.00  0.00    +0.040 A 
ATOM     16  C15 <0> A   1     -18.315   4.240  50.609  0.00  0.00    -0.005 A 
ATOM     17  C16 <0> A   1     -19.465   3.766  50.006  0.00  0.00    -0.006 A 
ATOM     18  C17 <0> A   1     -20.267   4.625  49.276  0.00  0.00    -0.006 A 
ATOM     19  C18 <0> A   1     -19.921   5.957  49.154  0.00  0.00    -0.003 A 
ENDBRANCH  13  14
ENDBRANCH   5   6
BRANCH   3  20
ATOM     20  C19 <0> A   1     -12.692   8.454  46.033  0.00  0.00    +0.117 A 
ATOM     21  C20 <0> A   1     -12.727   9.817  45.767  0.00  0.00    +0.068 A 
ATOM     22  C21 <0> A   1     -11.547  10.520  45.620  0.00  0.00    +0.020 A 
ATOM     23  C22 <0> A   1     -10.332   9.868  45.737  0.00  0.00    +0.112 A 
ATOM     24  C23 <0> A   1     -10.295   8.509  46.001  0.00  0.00    +0.008 A 
ATOM     25  C24 <0> A   1     -11.472   7.804  46.156  0.00  0.00    +0.070 A 
ATOM     26  F1  <0> A   1      -9.179  10.559  45.592  0.00  0.00    -0.131 F 
ENDBRANCH   3  20
BRANCH   1  28
ATOM     27  C1  <0> A   1     -16.862   5.704  43.831  0.00  0.00    +0.028 C 
ATOM     28  C2  <0> A   1     -16.399   5.265  45.223  0.00  0.00    +0.060 C 
ATOM     29  C3  <0> A   1     -15.614   3.957  45.109  0.00  0.00    +0.025 C 
ENDBRANCH   1  28
BRANCH   2  30
ATOM     30  C25 <0> A   1     -13.646   6.308  44.075  0.00  0.00    +0.127 C 
BRANCH  30  31
ATOM     31  C26 <0> A   1     -13.662   7.427  43.032  0.00  0.00    -0.008 C 
BRANCH  31  32
ATOM     32  C27 <0> A   1     -12.240   7.671  42.523  0.00  0.00    +0.214 C 
BRANCH  32  33
ATOM     33  O5  <0> A   1     -11.976   6.808  41.414  0.00  0.00    -0.540 OA
ATOM     34  H37 <0> A   1     -12.089   7.229  40.552  0.00  0.00    +0.363 HD
ENDBRANCH  32  33
BRANCH  32  35
ATOM     35  C28 <0> A   1     -12.100   9.128  42.078  0.00  0.00    -0.052 C 
BRANCH  35  36
ATOM     36  C29 <0> A   1     -13.428   9.613  41.494  0.00  0.00    +0.231 C 
BRANCH  36  37
ATOM     37  O4  <0> A   1     -13.721  10.919  41.996  0.00  0.00    -0.528 OA
ATOM     38  H36 <0> A   1     -13.409  11.637  41.429  0.00  0.00    +0.349 HD
ENDBRANCH  36  37
BRANCH  36  39
ATOM     39  C30 <0> A   1     -13.326   9.664  39.968  0.00  0.00    -0.103 C 
BRANCH  39  40
ATOM     40  C31 <0> A   1     -13.292  11.101  39.515  0.00  0.00    +0.491 C 
ATOM     41  O2  <0> A   1     -14.316  11.645  39.139  0.00  0.00    -0.681 OA
ATOM     42  O3  <0> A   1     -12.241  11.719  39.526  0.00  0.00    -0.713 OA
ENDBRANCH  39  40
ENDBRANCH  36  39
ENDBRANCH  35  36
ENDBRANCH  32  35
ENDBRANCH  31  32
ENDBRANCH  30  31
ENDBRANCH   2  30
TORSDOF 13
ENDMDL
MODEL 8
REMARK VINA RESULT:      -7.6      3.548      6.232
REMARK  Name = CHEMBL398523
REMARK  15 active torsions:
REMARK  status: ('A' for Active; 'I' for Inactive)
REMARK    1  A    between atoms: C1_1  and  C2_2
REMARK    2  A    between atoms: C2_2  and  C3_3
REMARK    3  A    between atoms: C2_2  and  C4_4
REMARK    4  A    between atoms: C5_5  and  C25_30
REMARK    5  A    between atoms: N1_6  and  C19_23
REMARK    6  A    between atoms: C6_8  and  C7_9
REMARK    7  A    between atoms: C12_16  and  C13_17
REMARK    8  A    between atoms: C25_30  and  C26_31
REMARK    9  A    between atoms: C26_31  and  C27_32
REMARK   10  A    between atoms: C27_32  and  C28_34
REMARK   11  A    between atoms: C27_32  and  O5_42
REMARK   12  A    between atoms: C28_34  and  C29_35
REMARK   13  A    between atoms: C29_35  and  C30_37
REMARK   14  A    between atoms: C29_35  and  O4_41
REMARK   15  A    between atoms: C30_37  and  C31_38
REMARK                            x       y       z     vdW  Elec       q    Type
REMARK                         _______ _______ _______ _____ _____    ______ ____
ROOT
ATOM      1  C4  <0> A   1     -22.637  -1.048  52.341  0.00  0.00    -0.123 C 
ATOM      2  C5  <0> A   1     -22.844   0.140  51.726  0.00  0.00    +0.031 C 
ATOM      3  N1  <0> A   1     -21.856   0.979  52.134  0.00  0.00    -0.236 N 
ATOM      4  N2  <0> A   1     -21.072   0.373  52.951  0.00  0.00    -0.263 NA
ATOM      5  C6  <0> A   1     -21.480  -0.867  53.137  0.00  0.00    +0.002 C 
ENDROOT
BRANCH   5   6
ATOM      6  C7  <0> A   1     -20.849  -1.878  54.008  0.00  0.00    +0.594 C 
ATOM      7  O1  <0> A   1     -19.975  -2.600  53.569  0.00  0.00    -0.481 OA
ATOM      8  N3  <0> A   1     -21.241  -2.000  55.292  0.00  0.00    -0.597 N 
ATOM      9  C8  <0> A   1     -22.387  -1.234  55.801  0.00  0.00    +0.274 C 
ATOM     10  C9  <0> A   1     -21.949  -0.463  57.050  0.00  0.00    +0.009 C 
ATOM     11  C10 <0> A   1     -21.347  -1.441  58.062  0.00  0.00    +0.009 C 
ATOM     12  C11 <0> A   1     -20.116  -2.115  57.454  0.00  0.00    +0.021 C 
ATOM     13  C12 <0> A   1     -20.537  -2.908  56.208  0.00  0.00    +0.268 C 
BRANCH  13  14
ATOM     14  C13 <0> A   1     -19.315  -3.465  55.524  0.00  0.00    -0.055 A 
ATOM     15  C14 <0> A   1     -18.140  -2.737  55.506  0.00  0.00    +0.040 A 
ATOM     16  C15 <0> A   1     -17.019  -3.248  54.879  0.00  0.00    -0.005 A 
ATOM     17  C16 <0> A   1     -17.072  -4.488  54.271  0.00  0.00    -0.006 A 
ATOM     18  C17 <0> A   1     -18.247  -5.217  54.289  0.00  0.00    -0.006 A 
ATOM     19  C18 <0> A   1     -19.366  -4.707  54.919  0.00  0.00    -0.003 A 
ENDBRANCH  13  14
ENDBRANCH   5   6
BRANCH   3  20
ATOM     20  C19 <0> A   1     -21.712   2.311  51.722  0.00  0.00    +0.117 A 
ATOM     21  C20 <0> A   1     -22.268   3.335  52.478  0.00  0.00    +0.068 A 
ATOM     22  C21 <0> A   1     -22.125   4.648  52.071  0.00  0.00    +0.020 A 
ATOM     23  C22 <0> A   1     -21.429   4.942  50.911  0.00  0.00    +0.112 A 
ATOM     24  C23 <0> A   1     -20.876   3.921  50.155  0.00  0.00    +0.008 A 
ATOM     25  C24 <0> A   1     -21.010   2.609  50.562  0.00  0.00    +0.070 A 
ATOM     26  F1  <0> A   1     -21.291   6.226  50.514  0.00  0.00    -0.131 F 
ENDBRANCH   3  20
BRANCH   1  28
ATOM     27  C1  <0> A   1     -24.814  -2.092  52.908  0.00  0.00    +0.028 C 
ATOM     28  C2  <0> A   1     -23.468  -2.299  52.210  0.00  0.00    +0.060 C 
ATOM     29  C3  <0> A   1     -23.702  -2.601  50.728  0.00  0.00    +0.025 C 
ENDBRANCH   1  28
BRANCH   2  30
ATOM     30  C25 <0> A   1     -23.960   0.470  50.769  0.00  0.00    +0.127 C 
BRANCH  30  31
ATOM     31  C26 <0> A   1     -25.091   1.169  51.526  0.00  0.00    -0.008 C 
BRANCH  31  32
ATOM     32  C27 <0> A   1     -26.437   0.602  51.069  0.00  0.00    +0.214 C 
BRANCH  32  33
ATOM     33  O5  <0> A   1     -27.310   1.676  50.712  0.00  0.00    -0.540 OA
ATOM     34  H37 <0> A   1     -28.173   1.643  51.146  0.00  0.00    +0.363 HD
ENDBRANCH  32  33
BRANCH  32  35
ATOM     35  C28 <0> A   1     -26.223  -0.306  49.857  0.00  0.00    -0.052 C 
BRANCH  35  36
ATOM     36  C29 <0> A   1     -27.391  -1.288  49.742  0.00  0.00    +0.231 C 
BRANCH  36  37
ATOM     37  O4  <0> A   1     -26.980  -2.429  48.986  0.00  0.00    -0.528 OA
ATOM     38  H36 <0> A   1     -27.713  -2.963  48.651  0.00  0.00    +0.349 HD
ENDBRANCH  36  37
BRANCH  36  39
ATOM     39  C30 <0> A   1     -27.823  -1.732  51.141  0.00  0.00    -0.103 C 
BRANCH  39  40
ATOM     40  C31 <0> A   1     -28.236  -3.181  51.103  0.00  0.00    +0.491 C 
ATOM     41  O2  <0> A   1     -29.324  -3.492  50.650  0.00  0.00    -0.681 OA
ATOM     42  O3  <0> A   1     -27.482  -4.041  51.523  0.00  0.00    -0.713 OA
ENDBRANCH  39  40
ENDBRANCH  36  39
ENDBRANCH  35  36
ENDBRANCH  32  35
ENDBRANCH  31  32
ENDBRANCH  30  31
ENDBRANCH   2  30
TORSDOF 13
ENDMDL
MODEL 9
REMARK VINA RESULT:      -7.6      8.686     13.279
REMARK  Name = CHEMBL398523
REMARK  15 active torsions:
REMARK  status: ('A' for Active; 'I' for Inactive)
REMARK    1  A    between atoms: C1_1  and  C2_2
REMARK    2  A    between atoms: C2_2  and  C3_3
REMARK    3  A    between atoms: C2_2  and  C4_4
REMARK    4  A    between atoms: C5_5  and  C25_30
REMARK    5  A    between atoms: N1_6  and  C19_23
REMARK    6  A    between atoms: C6_8  and  C7_9
REMARK    7  A    between atoms: C12_16  and  C13_17
REMARK    8  A    between atoms: C25_30  and  C26_31
REMARK    9  A    between atoms: C26_31  and  C27_32
REMARK   10  A    between atoms: C27_32  and  C28_34
REMARK   11  A    between atoms: C27_32  and  O5_42
REMARK   12  A    between atoms: C28_34  and  C29_35
REMARK   13  A    between atoms: C29_35  and  C30_37
REMARK   14  A    between atoms: C29_35  and  O4_41
REMARK   15  A    between atoms: C30_37  and  C31_38
REMARK                            x       y       z     vdW  Elec       q    Type
REMARK                         _______ _______ _______ _____ _____    ______ ____
ROOT
ATOM      1  C4  <0> A   1     -14.542   7.452  46.825  0.00  0.00    -0.123 C 
ATOM      2  C5  <0> A   1     -13.877   8.284  45.990  0.00  0.00    +0.031 C 
ATOM      3  N1  <0> A   1     -14.339   9.540  46.226  0.00  0.00    -0.236 N 
ATOM      4  N2  <0> A   1     -15.235   9.515  47.146  0.00  0.00    -0.263 NA
ATOM      5  C6  <0> A   1     -15.424   8.278  47.562  0.00  0.00    +0.002 C 
ENDROOT
BRANCH   5   6
ATOM      6  C7  <0> A   1     -16.375   7.837  48.602  0.00  0.00    +0.594 C 
ATOM      7  O1  <0> A   1     -17.458   7.387  48.285  0.00  0.00    -0.481 OA
ATOM      8  N3  <0> A   1     -16.040   7.934  49.904  0.00  0.00    -0.597 N 
ATOM      9  C8  <0> A   1     -14.796   8.600  50.310  0.00  0.00    +0.274 C 
ATOM     10  C9  <0> A   1     -13.993   7.648  51.202  0.00  0.00    +0.009 C 
ATOM     11  C10 <0> A   1     -14.871   7.190  52.370  0.00  0.00    +0.009 C 
ATOM     12  C11 <0> A   1     -16.089   6.438  51.831  0.00  0.00    +0.021 C 
ATOM     13  C12 <0> A   1     -16.917   7.381  50.946  0.00  0.00    +0.268 C 
BRANCH  13  14
ATOM     14  C13 <0> A   1     -18.044   6.615  50.302  0.00  0.00    -0.055 A 
ATOM     15  C14 <0> A   1     -17.867   5.291  49.949  0.00  0.00    +0.040 A 
ATOM     16  C15 <0> A   1     -18.901   4.588  49.359  0.00  0.00    -0.005 A 
ATOM     17  C16 <0> A   1     -20.112   5.210  49.123  0.00  0.00    -0.006 A 
ATOM     18  C17 <0> A   1     -20.290   6.535  49.477  0.00  0.00    -0.006 A 
ATOM     19  C18 <0> A   1     -19.258   7.236  50.071  0.00  0.00    -0.003 A 
ENDBRANCH  13  14
ENDBRANCH   5   6
BRANCH   3  20
ATOM     20  C19 <0> A   1     -13.900  10.695  45.564  0.00  0.00    +0.117 A 
ATOM     21  C20 <0> A   1     -13.135  11.635  46.240  0.00  0.00    +0.068 A 
ATOM     22  C21 <0> A   1     -12.703  12.772  45.586  0.00  0.00    +0.020 A 
ATOM     23  C22 <0> A   1     -13.032  12.974  44.257  0.00  0.00    +0.112 A 
ATOM     24  C23 <0> A   1     -13.796  12.038  43.580  0.00  0.00    +0.008 A 
ATOM     25  C24 <0> A   1     -14.224  10.896  44.229  0.00  0.00    +0.070 A 
ATOM     26  F1  <0> A   1     -12.608  14.088  43.618  0.00  0.00    -0.131 F 
ENDBRANCH   3  20
BRANCH   1  28
ATOM     27  C1  <0> A   1     -13.779   5.613  48.305  0.00  0.00    +0.028 C 
ATOM     28  C2  <0> A   1     -14.382   5.957  46.940  0.00  0.00    +0.060 C 
ATOM     29  C3  <0> A   1     -15.749   5.286  46.803  0.00  0.00    +0.025 C 
ENDBRANCH   1  28
BRANCH   2  30
ATOM     30  C25 <0> A   1     -12.822   7.892  44.988  0.00  0.00    +0.127 C 
BRANCH  30  31
ATOM     31  C26 <0> A   1     -13.496   7.365  43.719  0.00  0.00    -0.008 C 
BRANCH  31  32
ATOM     32  C27 <0> A   1     -12.525   7.478  42.542  0.00  0.00    +0.214 C 
BRANCH  32  33
ATOM     33  O5  <0> A   1     -11.924   6.204  42.295  0.00  0.00    -0.540 OA
ATOM     34  H37 <0> A   1     -12.077   5.863  41.404  0.00  0.00    +0.363 HD
ENDBRANCH  32  33
BRANCH  32  35
ATOM     35  C28 <0> A   1     -13.287   7.931  41.295  0.00  0.00    -0.052 C 
BRANCH  35  36
ATOM     36  C29 <0> A   1     -13.022   9.418  41.048  0.00  0.00    +0.231 C 
BRANCH  36  37
ATOM     37  O4  <0> A   1     -11.764   9.779  41.621  0.00  0.00    -0.528 OA
ATOM     38  H36 <0> A   1     -11.657  10.728  41.770  0.00  0.00    +0.349 HD
ENDBRANCH  36  37
BRANCH  36  39
ATOM     39  C30 <0> A   1     -12.994   9.689  39.543  0.00  0.00    -0.103 C 
BRANCH  39  40
ATOM     40  C31 <0> A   1     -13.145  11.167  39.296  0.00  0.00    +0.491 C 
ATOM     41  O2  <0> A   1     -14.252  11.645  39.114  0.00  0.00    -0.681 OA
ATOM     42  O3  <0> A   1     -12.161  11.886  39.279  0.00  0.00    -0.713 OA
ENDBRANCH  39  40
ENDBRANCH  36  39
ENDBRANCH  35  36
ENDBRANCH  32  35
ENDBRANCH  31  32
ENDBRANCH  30  31
ENDBRANCH   2  30
TORSDOF 13
ENDMDL
MODEL 10
REMARK VINA RESULT:      -7.5      6.160      9.959
REMARK  Name = CHEMBL398523
REMARK  15 active torsions:
REMARK  status: ('A' for Active; 'I' for Inactive)
REMARK    1  A    between atoms: C1_1  and  C2_2
REMARK    2  A    between atoms: C2_2  and  C3_3
REMARK    3  A    between atoms: C2_2  and  C4_4
REMARK    4  A    between atoms: C5_5  and  C25_30
REMARK    5  A    between atoms: N1_6  and  C19_23
REMARK    6  A    between atoms: C6_8  and  C7_9
REMARK    7  A    between atoms: C12_16  and  C13_17
REMARK    8  A    between atoms: C25_30  and  C26_31
REMARK    9  A    between atoms: C26_31  and  C27_32
REMARK   10  A    between atoms: C27_32  and  C28_34
REMARK   11  A    between atoms: C27_32  and  O5_42
REMARK   12  A    between atoms: C28_34  and  C29_35
REMARK   13  A    between atoms: C29_35  and  C30_37
REMARK   14  A    between atoms: C29_35  and  O4_41
REMARK   15  A    between atoms: C30_37  and  C31_38
REMARK                            x       y       z     vdW  Elec       q    Type
REMARK                         _______ _______ _______ _____ _____    ______ ____
ROOT
ATOM      1  C4  <0> A   1     -26.815  -4.135  51.609  0.00  0.00    -0.123 C 
ATOM      2  C5  <0> A   1     -26.517  -2.816  51.661  0.00  0.00    +0.031 C 
ATOM      3  N1  <0> A   1     -27.675  -2.137  51.444  0.00  0.00    -0.236 N 
ATOM      4  N2  <0> A   1     -28.644  -2.961  51.267  0.00  0.00    -0.263 NA
ATOM      5  C6  <0> A   1     -28.204  -4.202  51.346  0.00  0.00    +0.002 C 
ENDROOT
BRANCH   5   6
ATOM      6  C7  <0> A   1     -29.009  -5.430  51.192  0.00  0.00    +0.594 C 
ATOM      7  O1  <0> A   1     -28.972  -6.055  50.150  0.00  0.00    -0.481 OA
ATOM      8  N3  <0> A   1     -29.784  -5.859  52.208  0.00  0.00    -0.597 N 
ATOM      9  C8  <0> A   1     -29.947  -5.045  53.420  0.00  0.00    +0.274 C 
ATOM     10  C9  <0> A   1     -29.598  -5.904  54.641  0.00  0.00    +0.009 C 
ATOM     11  C10 <0> A   1     -30.446  -7.179  54.620  0.00  0.00    +0.009 C 
ATOM     12  C11 <0> A   1     -30.131  -7.983  53.358  0.00  0.00    +0.021 C 
ATOM     13  C12 <0> A   1     -30.489  -7.146  52.121  0.00  0.00    +0.268 C 
BRANCH  13  14
ATOM     14  C13 <0> A   1     -30.059  -7.873  50.874  0.00  0.00    -0.055 A 
ATOM     15  C14 <0> A   1     -30.884  -7.893  49.765  0.00  0.00    +0.040 A 
ATOM     16  C15 <0> A   1     -30.488  -8.560  48.621  0.00  0.00    -0.005 A 
ATOM     17  C16 <0> A   1     -29.267  -9.206  48.584  0.00  0.00    -0.006 A 
ATOM     18  C17 <0> A   1     -28.441  -9.186  49.694  0.00  0.00    -0.006 A 
ATOM     19  C18 <0> A   1     -28.835  -8.516  50.836  0.00  0.00    -0.003 A 
ENDBRANCH  13  14
ENDBRANCH   5   6
BRANCH   3  20
ATOM     20  C19 <0> A   1     -27.794  -0.741  51.419  0.00  0.00    +0.117 A 
ATOM     21  C20 <0> A   1     -27.408  -0.031  50.290  0.00  0.00    +0.068 A 
ATOM     22  C21 <0> A   1     -27.526   1.345  50.267  0.00  0.00    +0.020 A 
ATOM     23  C22 <0> A   1     -28.029   2.016  51.368  0.00  0.00    +0.112 A 
ATOM     24  C23 <0> A   1     -28.413   1.310  52.496  0.00  0.00    +0.008 A 
ATOM     25  C24 <0> A   1     -28.302  -0.066  52.520  0.00  0.00    +0.070 A 
ATOM     26  F1  <0> A   1     -28.143   3.363  51.343  0.00  0.00    -0.131 F 
ENDBRANCH   3  20
BRANCH   1  28
ATOM     27  C1  <0> A   1     -26.517  -6.357  52.672  0.00  0.00    +0.028 C 
ATOM     28  C2  <0> A   1     -25.864  -5.291  51.789  0.00  0.00    +0.060 C 
ATOM     29  C3  <0> A   1     -25.531  -5.894  50.423  0.00  0.00    +0.025 C 
ENDBRANCH   1  28
BRANCH   2  30
ATOM     30  C25 <0> A   1     -25.159  -2.213  51.911  0.00  0.00    +0.127 C 
BRANCH  30  31
ATOM     31  C26 <0> A   1     -24.355  -2.212  50.609  0.00  0.00    -0.008 C 
BRANCH  31  32
ATOM     32  C27 <0> A   1     -22.900  -1.843  50.909  0.00  0.00    +0.214 C 
BRANCH  32  33
ATOM     33  O5  <0> A   1     -22.718  -0.437  50.730  0.00  0.00    -0.540 OA
ATOM     34  H37 <0> A   1     -23.516   0.031  50.447  0.00  0.00    +0.363 HD
ENDBRANCH  32  33
BRANCH  32  35
ATOM     35  C28 <0> A   1     -22.566  -2.220  52.354  0.00  0.00    -0.052 C 
BRANCH  35  36
ATOM     36  C29 <0> A   1     -21.695  -3.477  52.365  0.00  0.00    +0.231 C 
BRANCH  36  37
ATOM     37  O4  <0> A   1     -20.756  -3.415  51.289  0.00  0.00    -0.528 OA
ATOM     38  H36 <0> A   1     -21.159  -3.271  50.423  0.00  0.00    +0.349 HD
ENDBRANCH  36  37
BRANCH  36  39
ATOM     39  C30 <0> A   1     -20.943  -3.565  53.694  0.00  0.00    -0.103 C 
BRANCH  39  40
ATOM     40  C31 <0> A   1     -19.469  -3.737  53.427  0.00  0.00    +0.491 C 
ATOM     41  O2  <0> A   1     -18.720  -2.779  53.510  0.00  0.00    -0.681 OA
ATOM     42  O3  <0> A   1     -19.028  -4.833  53.130  0.00  0.00    -0.713 OA
ENDBRANCH  39  40
ENDBRANCH  36  39
ENDBRANCH  35  36
ENDBRANCH  32  35
ENDBRANCH  31  32
ENDBRANCH  30  31
ENDBRANCH   2  30
TORSDOF 13
ENDMDL
