REMARK  Name = CHEMBL322643
REMARK  13 active torsions:
REMARK  status: ('A' for Active; 'I' for Inactive)
REMARK    1  A    between atoms: C1_1  and  C2_2
REMARK    2  A    between atoms: C2_2  and  C3_3
REMARK    3  A    between atoms: C2_2  and  C4_4
REMARK    4  A    between atoms: C6_6  and  C22_29
REMARK    5  A    between atoms: C7_8  and  C16_22
REMARK    6  A    between atoms: C8_9  and  C9_10
REMARK    7  A    between atoms: C10_11  and  C11_12
REMARK    8  A    between atoms: C11_12  and  C12_13
REMARK    9  A    between atoms: C11_12  and  O4_21
REMARK   10  A    between atoms: C12_13  and  C13_14
REMARK   11  A    between atoms: C13_14  and  C14_16
REMARK   12  A    between atoms: C13_14  and  O3_20
REMARK   13  A    between atoms: C14_16  and  C15_17
REMARK                            x       y       z     vdW  Elec       q    Type
REMARK                         _______ _______ _______ _____ _____    ______ ____
ROOT
ATOM      1  C4  <0> A   1      -1.412  -0.526   0.013  0.00  0.00    -0.018 A 
ATOM      2  C5  <0> A   1      -2.272  -0.214   1.048  0.00  0.00    -0.019 A 
ATOM      3  C6  <0> A   1      -3.575  -0.712   1.030  0.00  0.00    +0.167 A 
ATOM      4  N1  <0> A   1      -3.999  -1.478   0.034  0.00  0.00    -0.469 NA
ATOM      5  C7  <0> A   1      -3.210  -1.802  -0.978  0.00  0.00    +0.184 A 
ATOM      6  C8  <0> A   1      -1.885  -1.332  -1.028  0.00  0.00    -0.083 A 
ENDROOT
BRANCH   5   7
ATOM      7  C16 <0> A   1      -3.727  -2.661  -2.068  0.00  0.00    -0.062 A 
ATOM      8  C17 <0> A   1      -3.301  -2.459  -3.381  0.00  0.00    +0.087 A 
ATOM      9  C18 <0> A   1      -3.785  -3.262  -4.393  0.00  0.00    -0.017 A 
ATOM     10  C19 <0> A   1      -4.694  -4.268  -4.107  0.00  0.00    +0.113 A 
ATOM     11  C20 <0> A   1      -5.120  -4.473  -2.804  0.00  0.00    -0.026 A 
ATOM     12  C21 <0> A   1      -4.638  -3.679  -1.785  0.00  0.00    +0.082 A 
ATOM     13  F1  <0> A   1      -5.165  -5.052  -5.101  0.00  0.00    -0.137 F 
ENDBRANCH   5   7
BRANCH   3  14
ATOM     14  C22 <0> A   1      -4.500  -0.379   2.140  0.00  0.00    -0.046 A 
ATOM     15  C23 <0> A   1      -4.069   0.430   3.190  0.00  0.00    +0.023 A 
ATOM     16  C24 <0> A   1      -4.934   0.737   4.221  0.00  0.00    +0.002 A 
ATOM     17  C25 <0> A   1      -6.226   0.242   4.214  0.00  0.00    +0.011 A 
ATOM     18  C26 <0> A   1      -6.659  -0.561   3.174  0.00  0.00    -0.001 A 
ATOM     19  C27 <0> A   1      -5.805  -0.869   2.135  0.00  0.00    +0.054 A 
ENDBRANCH   3  14
BRANCH   1  21
ATOM     20  C1  <0> A   1      -0.019   1.526   0.010  0.00  0.00    +0.033 C 
ATOM     21  C2  <0> A   1       0.002  -0.004   0.002  0.00  0.00    +0.030 C 
ATOM     22  C3  <0> A   1       0.742  -0.511   1.242  0.00  0.00    +0.033 C 
ENDBRANCH   1  21
BRANCH   6  23
ATOM     23  C9  <0> A   1      -1.006  -1.688  -2.159  0.00  0.00    -0.001 C 
ATOM     24  C10 <0> A   1      -0.892  -2.955  -2.538  0.00  0.00    -0.031 C 
BRANCH  24  25
ATOM     25  C11 <0> A   1       0.005  -3.318  -3.693  0.00  0.00    +0.252 C 
BRANCH  25  26
ATOM     26  O4  <0> A   1       0.707  -2.155  -4.135  0.00  0.00    -0.537 OA
ATOM     27  H18 <0> A   1       1.265  -1.750  -3.456  0.00  0.00    +0.366 HD
ENDBRANCH  25  26
BRANCH  25  28
ATOM     28  C12 <0> A   1       1.010  -4.380  -3.243  0.00  0.00    -0.041 C 
BRANCH  28  29
ATOM     29  C13 <0> A   1       1.839  -4.840  -4.444  0.00  0.00    +0.232 C 
BRANCH  29  30
ATOM     30  O3  <0> A   1       2.629  -3.749  -4.922  0.00  0.00    -0.528 OA
ATOM     31  H17 <0> A   1       3.247  -3.395  -4.268  0.00  0.00    +0.350 HD
ENDBRANCH  29  30
BRANCH  29  32
ATOM     32  C14 <0> A   1       2.757  -5.988  -4.021  0.00  0.00    -0.102 C 
BRANCH  32  33
ATOM     33  C15 <0> A   1       3.483  -6.522  -5.229  0.00  0.00    +0.491 C 
ATOM     34  O1  <0> A   1       3.284  -6.029  -6.327  0.00  0.00    -0.681 OA
ATOM     35  O2  <0> A   1       4.268  -7.447  -5.109  0.00  0.00    -0.713 OA
ENDBRANCH  32  33
ENDBRANCH  29  32
ENDBRANCH  28  29
ENDBRANCH  25  28
ENDBRANCH  24  25
ENDBRANCH   6  23
TORSDOF 11
