REMARK  Name = CHEMBL254036
REMARK  16 active torsions:
REMARK  status: ('A' for Active; 'I' for Inactive)
REMARK    1  A    between atoms: C1_1  and  C2_2
REMARK    2  A    between atoms: C2_2  and  C3_3
REMARK    3  A    between atoms: C2_2  and  C4_4
REMARK    4  A    between atoms: C5_5  and  C21_26
REMARK    5  A    between atoms: N2_7  and  C15_19
REMARK    6  A    between atoms: C6_8  and  C7_9
REMARK    7  A    between atoms: N3_11  and  C8_12
REMARK    8  A    between atoms: C8_12  and  C9_13
REMARK    9  A    between atoms: C21_26  and  C22_27
REMARK   10  A    between atoms: C22_27  and  C23_28
REMARK   11  A    between atoms: C23_28  and  C24_30
REMARK   12  A    between atoms: C23_28  and  O5_38
REMARK   13  A    between atoms: C24_30  and  C25_31
REMARK   14  A    between atoms: C25_31  and  C26_33
REMARK   15  A    between atoms: C25_31  and  O4_37
REMARK   16  A    between atoms: C26_33  and  C27_34
REMARK                            x       y       z     vdW  Elec       q    Type
REMARK                         _______ _______ _______ _____ _____    ______ ____
ROOT
ATOM      1  C4  <0> A   1      -1.447  -0.504   0.044  0.00  0.00    -0.123 C 
ATOM      2  C5  <0> A   1      -2.097  -1.451  -0.751  0.00  0.00    +0.056 C 
ATOM      3  N1  <0> A   1      -3.293  -1.641  -0.253  0.00  0.00    -0.273 NA
ATOM      4  N2  <0> A   1      -3.480  -0.909   0.786  0.00  0.00    -0.230 N 
ATOM      5  C6  <0> A   1      -2.355  -0.171   1.035  0.00  0.00    -0.035 C 
ENDROOT
BRANCH   4   6
ATOM      6  C15 <0> A   1      -4.654  -0.875   1.550  0.00  0.00    +0.120 A 
ATOM      7  C16 <0> A   1      -4.580  -0.849   2.936  0.00  0.00    +0.057 A 
ATOM      8  C17 <0> A   1      -5.738  -0.816   3.688  0.00  0.00    +0.015 A 
ATOM      9  C18 <0> A   1      -6.973  -0.809   3.059  0.00  0.00    +0.109 A 
ATOM     10  C19 <0> A   1      -7.048  -0.836   1.677  0.00  0.00    +0.012 A 
ATOM     11  C20 <0> A   1      -5.892  -0.864   0.921  0.00  0.00    +0.080 A 
ATOM     12  F1  <0> A   1      -8.104  -0.778   3.796  0.00  0.00    -0.132 F 
ENDBRANCH   4   6
BRANCH   5  13
ATOM     13  C7  <0> A   1      -2.152   0.786   2.133  0.00  0.00    +0.602 C 
ATOM     14  O1  <0> A   1      -1.539   0.449   3.128  0.00  0.00    -0.514 OA
ATOM     15  N3  <0> A   1      -2.645   2.037   2.037  0.00  0.00    -0.713 N 
ATOM     16  H10 <0> A   1      -3.197   2.284   1.278  0.00  0.00    +0.405 HD
BRANCH  15  17
ATOM     17  C8  <0> A   1      -2.349   3.023   3.078  0.00  0.00    +0.324 C 
BRANCH  17  18
ATOM     18  C9  <0> A   1      -3.014   4.331   2.735  0.00  0.00    -0.112 A 
ATOM     19  C10 <0> A   1      -2.342   5.269   1.973  0.00  0.00    +0.027 A 
ATOM     20  C11 <0> A   1      -2.952   6.469   1.658  0.00  0.00    +0.004 A 
ATOM     21  C12 <0> A   1      -4.234   6.731   2.105  0.00  0.00    +0.014 A 
ATOM     22  C13 <0> A   1      -4.905   5.793   2.867  0.00  0.00    +0.002 A 
ATOM     23  C14 <0> A   1      -4.297   4.591   3.178  0.00  0.00    +0.024 A 
ENDBRANCH  17  18
ENDBRANCH  15  17
ENDBRANCH   5  13
BRANCH   1  25
ATOM     24  C1  <0> A   1      -0.100   1.562  -0.207  0.00  0.00    +0.023 C 
ATOM     25  C2  <0> A   1      -0.051   0.035  -0.135  0.00  0.00    +0.066 C 
ATOM     26  C3  <0> A   1       0.817  -0.392   1.050  0.00  0.00    +0.030 C 
ENDBRANCH   1  25
BRANCH   2  27
ATOM     27  C21 <0> A   1      -1.524  -2.133  -1.966  0.00  0.00    +0.141 C 
BRANCH  27  28
ATOM     28  C22 <0> A   1      -0.814  -3.420  -1.542  0.00  0.00    -0.007 C 
BRANCH  28  29
ATOM     29  C23 <0> A   1      -0.232  -4.112  -2.776  0.00  0.00    +0.212 C 
BRANCH  29  30
ATOM     30  O5  <0> A   1       0.787  -3.289  -3.347  0.00  0.00    -0.542 OA
ATOM     31  H31 <0> A   1       1.524  -3.104  -2.750  0.00  0.00    +0.364 HD
ENDBRANCH  29  30
BRANCH  29  32
ATOM     32  C24 <0> A   1       0.369  -5.459  -2.369  0.00  0.00    -0.052 C 
BRANCH  32  33
ATOM     33  C25 <0> A   1       0.839  -6.206  -3.619  0.00  0.00    +0.230 C 
BRANCH  33  34
ATOM     34  O4  <0> A   1       1.909  -5.484  -4.231  0.00  0.00    -0.528 OA
ATOM     35  H30 <0> A   1       2.682  -5.368  -3.661  0.00  0.00    +0.350 HD
ENDBRANCH  33  34
BRANCH  33  36
ATOM     36  C26 <0> A   1       1.325  -7.603  -3.226  0.00  0.00    -0.103 C 
BRANCH  36  37
ATOM     37  C27 <0> A   1       1.672  -8.382  -4.468  0.00  0.00    +0.490 C 
ATOM     38  O2  <0> A   1       1.543  -7.868  -5.566  0.00  0.00    -0.681 OA
ATOM     39  O3  <0> A   1       2.082  -9.526  -4.375  0.00  0.00    -0.714 OA
ENDBRANCH  36  37
ENDBRANCH  33  36
ENDBRANCH  32  33
ENDBRANCH  29  32
ENDBRANCH  28  29
ENDBRANCH  27  28
ENDBRANCH   2  27
TORSDOF 14
