REMARK VINA RESULT:      -7.4      0.000      0.000
REMARK  Name = CHEMBL101806
REMARK  11 active torsions:
REMARK  status: ('A' for Active; 'I' for Inactive)
REMARK    1  A    between atoms: C5_5  and  O2_15
REMARK    2  A    between atoms: C6_6  and  C7_7
REMARK    3  A    between atoms: C7_7  and  C8_9
REMARK    4  A    between atoms: O2_15  and  C14_16
REMARK    5  A    between atoms: C14_16  and  C15_17
REMARK    6  A    between atoms: C15_17  and  C16_18
REMARK    7  A    between atoms: C15_17  and  O6_26
REMARK    8  A    between atoms: C16_18  and  C17_19
REMARK    9  A    between atoms: C17_19  and  C18_21
REMARK   10  A    between atoms: C17_19  and  O5_25
REMARK   11  A    between atoms: C18_21  and  C19_22
REMARK                            x       y       z     vdW  Elec       q    Type
REMARK                         _______ _______ _______ _____ _____    ______ ____
ROOT
ATOM      1  C1  <0> A   1     -14.797   7.970  46.989  0.00  0.00    +0.103 A 
ATOM      2  C2  <0> A   1     -16.068   7.448  47.094  0.00  0.00    -0.048 A 
ATOM      3  C3  <0> A   1     -16.524   6.525  46.164  0.00  0.00    +0.091 A 
ATOM      4  C4  <0> A   1     -15.711   6.118  45.125  0.00  0.00    -0.063 A 
ATOM      5  C5  <0> A   1     -14.429   6.632  45.003  0.00  0.00    +0.174 A 
ATOM      6  C6  <0> A   1     -13.961   7.567  45.940  0.00  0.00    -0.168 A 
ATOM      7 Cl1  <0> A   1     -16.295   4.961  43.969  0.00  0.00    -0.030 Cl
ATOM      8 Cl2  <0> A   1     -17.103   7.949  48.394  0.00  0.00    -0.049 Cl
ENDROOT
BRANCH   6   9
ATOM      9  C7  <0> A   1     -12.607   8.119  45.821  0.00  0.00    +0.394 C 
ATOM     10  O1  <0> A   1     -11.645   7.433  46.100  0.00  0.00    -0.410 OA
BRANCH   9  11
ATOM     11  C8  <0> A   1     -12.410   9.538  45.354  0.00  0.00    -0.031 C 
ATOM     12  C9  <0> A   1     -12.231  10.455  46.566  0.00  0.00    +0.029 C 
ATOM     13  C10 <0> A   1     -12.032  11.895  46.091  0.00  0.00    +0.015 C 
ATOM     14  C11 <0> A   1     -13.256  12.343  45.291  0.00  0.00    +0.004 C 
ATOM     15  C12 <0> A   1     -13.435  11.426  44.078  0.00  0.00    +0.010 C 
ATOM     16  C13 <0> A   1     -13.635   9.986  44.553  0.00  0.00    +0.034 C 
ENDBRANCH   9  11
ENDBRANCH   6   9
BRANCH   5  17
ATOM     17  O2  <0> A   1     -13.628   6.232  43.981  0.00  0.00    -0.298 OA
BRANCH  17  18
ATOM     18  C14 <0> A   1     -13.785   6.908  42.732  0.00  0.00    +0.164 C 
BRANCH  18  19
ATOM     19  C15 <0> A   1     -12.413   7.338  42.210  0.00  0.00    +0.233 C 
BRANCH  19  20
ATOM     20  O6  <0> A   1     -11.552   6.201  42.138  0.00  0.00    -0.530 OA
ATOM     21  H23 <0> A   1     -10.660   6.402  41.823  0.00  0.00    +0.362 HD
ENDBRANCH  19  20
BRANCH  19  22
ATOM     22  C16 <0> A   1     -12.567   7.950  40.816  0.00  0.00    -0.042 C 
BRANCH  22  23
ATOM     23  C17 <0> A   1     -12.988   9.415  40.945  0.00  0.00    +0.236 C 
BRANCH  23  24
ATOM     24  O5  <0> A   1     -11.824  10.237  41.052  0.00  0.00    -0.526 OA
ATOM     25  H22 <0> A   1     -11.047   9.882  40.596  0.00  0.00    +0.350 HD
ENDBRANCH  23  24
BRANCH  23  26
ATOM     26  C18 <0> A   1     -13.789   9.825  39.708  0.00  0.00    -0.101 C 
BRANCH  26  27
ATOM     27  C19 <0> A   1     -13.877  11.329  39.644  0.00  0.00    +0.491 C 
ATOM     28  O3  <0> A   1     -14.512  11.939  40.486  0.00  0.00    -0.680 OA
ATOM     29  O4  <0> A   1     -13.313  11.935  38.749  0.00  0.00    -0.713 OA
ENDBRANCH  26  27
ENDBRANCH  23  26
ENDBRANCH  22  23
ENDBRANCH  19  22
ENDBRANCH  18  19
ENDBRANCH  17  18
ENDBRANCH   5  17
TORSDOF 11
