REMARK VINA RESULT:      -7.0     14.921     18.557
REMARK  Name = CHEMBL85673
REMARK  13 active torsions:
REMARK  status: ('A' for Active; 'I' for Inactive)
REMARK    1  A    between atoms: C1_1  and  C2_2
REMARK    2  A    between atoms: C2_2  and  C3_3
REMARK    3  A    between atoms: C3_3  and  C4_4
REMARK    4  A    between atoms: C3_3  and  C5_5
REMARK    5  A    between atoms: C3_3  and  C6_6
REMARK    6  A    between atoms: C6_6  and  O2_8
REMARK    7  A    between atoms: O2_8  and  C7_9
REMARK    8  A    between atoms: C9_12  and  C25_35
REMARK    9  A    between atoms: C13_17  and  C18_24
REMARK   10  A    between atoms: C14_19  and  C17_23
REMARK   11  A    between atoms: C18_24  and  C19_25
REMARK   12  A    between atoms: C19_25  and  C20_26
REMARK   13  A    between atoms: C22_28  and  O5_34
REMARK                            x       y       z     vdW  Elec       q    Type
REMARK                         _______ _______ _______ _____ _____    ______ ____
ROOT
ATOM      1  C7  <0> A   1     -12.925   9.400  44.724  0.00  0.00    +0.177 C 
ATOM      2  C8  <0> A   1     -12.292  10.012  43.473  0.00  0.00    +0.007 C 
ATOM      3  C9  <0> A   1     -13.181   9.726  42.260  0.00  0.00    -0.016 C 
ATOM      4  C10 <0> A   1     -13.319   8.214  42.075  0.00  0.00    +0.019 C 
ATOM      5  C11 <0> A   1     -13.952   7.602  43.326  0.00  0.00    -0.005 C 
ATOM      6  C12 <0> A   1     -13.063   7.888  44.539  0.00  0.00    +0.013 C 
ATOM      7  C13 <0> A   1     -13.696   7.276  45.789  0.00  0.00    +0.001 C 
ATOM      8  C14 <0> A   1     -13.834   5.763  45.604  0.00  0.00    -0.013 C 
ATOM      9  C15 <0> A   1     -14.723   5.477  44.392  0.00  0.00    +0.011 C 
ATOM     10  C16 <0> A   1     -14.090   6.090  43.140  0.00  0.00    +0.016 C 
ATOM     11  C17 <0> A   1     -14.467   5.152  46.856  0.00  0.00    +0.019 C 
ATOM     12  C25 <0> A   1     -12.548  10.338  41.009  0.00  0.00    +0.021 C 
ENDROOT
BRANCH   1  13
ATOM     13  O2  <0> A   1     -12.095   9.668  45.857  0.00  0.00    -0.339 OA
BRANCH  13  14
ATOM     14  C6  <0> A   1     -11.842  10.955  46.137  0.00  0.00    +0.468 C 
ATOM     15  O1  <0> A   1     -10.834  11.477  45.722  0.00  0.00    -0.503 OA
BRANCH  14  16
ATOM     16  C3  <0> A   1     -12.814  11.750  46.970  0.00  0.00    -0.052 C 
ATOM     17  C4  <0> A   1     -12.203  13.113  47.305  0.00  0.00    +0.060 C 
ATOM     18  C5  <0> A   1     -13.111  10.993  48.267  0.00  0.00    +0.061 C 
BRANCH  16  20
ATOM     19  C1  <0> A   1     -15.288  12.036  47.165  0.00  0.00    +0.024 C 
ATOM     20  C2  <0> A   1     -14.114  11.950  46.189  0.00  0.00    +0.036 C 
ENDBRANCH  16  20
ENDBRANCH  14  16
ENDBRANCH  13  14
ENDBRANCH   1  13
BRANCH   7  21
ATOM     21  C18 <0> A   1     -15.078   7.891  46.015  0.00  0.00    +0.018 C 
BRANCH  21  22
ATOM     22  C19 <0> A   1     -15.201   8.352  47.469  0.00  0.00    +0.046 C 
BRANCH  22  23
ATOM     23  C20 <0> A   1     -16.623   8.091  47.968  0.00  0.00    +0.191 C 
ATOM     24  C21 <0> A   1     -16.567   7.403  49.334  0.00  0.00    +0.039 C 
ATOM     25  C22 <0> A   1     -17.992   7.106  49.813  0.00  0.00    +0.183 C 
ATOM     26  C23 <0> A   1     -18.682   6.197  48.787  0.00  0.00    +0.020 C 
ATOM     27  C24 <0> A   1     -18.535   6.829  47.420  0.00  0.00    +0.495 C 
ATOM     28  O3  <0> A   1     -19.489   6.956  46.689  0.00  0.00    -0.454 OA
ATOM     29  O4  <0> A   1     -17.309   7.244  47.040  0.00  0.00    -0.366 OA
BRANCH  25  30
ATOM     30  O5  <0> A   1     -18.720   8.330  49.937  0.00  0.00    -0.563 OA
ATOM     31  H39 <0> A   1     -18.239   9.108  49.625  0.00  0.00    +0.386 HD
ENDBRANCH  25  30
ENDBRANCH  22  23
ENDBRANCH  21  22
ENDBRANCH   7  21
TORSDOF 8
