REMARK VINA RESULT:      -8.6     15.884     18.507
REMARK  Name = CHEMBL228667
REMARK  14 active torsions:
REMARK  status: ('A' for Active; 'I' for Inactive)
REMARK    1  A    between atoms: C1_1  and  C2_2
REMARK    2  A    between atoms: C2_2  and  C3_3
REMARK    3  A    between atoms: C2_2  and  N1_4
REMARK    4  A    between atoms: C4_5  and  C28_32
REMARK    5  A    between atoms: C5_6  and  C22_25
REMARK    6  A    between atoms: N2_11  and  C16_19
REMARK    7  A    between atoms: C28_32  and  C29_33
REMARK    8  A    between atoms: C29_33  and  C30_34
REMARK    9  A    between atoms: C30_34  and  C31_36
REMARK   10  A    between atoms: C30_34  and  O5_44
REMARK   11  A    between atoms: C31_36  and  C32_37
REMARK   12  A    between atoms: C32_37  and  C33_39
REMARK   13  A    between atoms: C32_37  and  O4_43
REMARK   14  A    between atoms: C33_39  and  C34_40
REMARK                            x       y       z     vdW  Elec       q    Type
REMARK                         _______ _______ _______ _____ _____    ______ ____
ROOT
ATOM      1  N1  <0> A   1     -28.179  -3.817  52.481  0.00  0.00    -0.391 N 
ATOM      2  C4  <0> A   1     -28.348  -2.517  52.822  0.00  0.00    +0.089 C 
ATOM      3  C5  <0> A   1     -27.128  -1.909  52.874  0.00  0.00    -0.128 C 
ATOM      4  C6  <0> A   1     -26.154  -2.885  52.548  0.00  0.00    -0.057 C 
ATOM      5  C7  <0> A   1     -26.834  -4.069  52.316  0.00  0.00    -0.031 C 
ATOM      6  C8  <0> A   1     -26.234  -5.354  51.963  0.00  0.00    +0.598 C 
ATOM      7  O1  <0> A   1     -26.723  -6.380  52.400  0.00  0.00    -0.527 OA
ATOM      8  N2  <0> A   1     -25.158  -5.428  51.172  0.00  0.00    -0.552 N 
ATOM      9  C9  <0> A   1     -24.568  -4.267  50.528  0.00  0.00    +0.339 C 
ATOM     10  C10 <0> A   1     -23.929  -3.339  51.521  0.00  0.00    -0.107 A 
ATOM     11  C11 <0> A   1     -24.693  -2.675  52.472  0.00  0.00    +0.006 A 
ATOM     12  C12 <0> A   1     -24.074  -1.810  53.376  0.00  0.00    +0.028 A 
ATOM     13  C13 <0> A   1     -22.710  -1.615  53.319  0.00  0.00    +0.014 A 
ATOM     14  C14 <0> A   1     -21.956  -2.276  52.366  0.00  0.00    +0.002 A 
ATOM     15  C15 <0> A   1     -22.562  -3.138  51.481  0.00  0.00    +0.021 A 
ENDROOT
BRANCH   3  16
ATOM     16  C22 <0> A   1     -26.870  -0.487  53.211  0.00  0.00    -0.011 A 
ATOM     17  C23 <0> A   1     -26.573   0.428  52.202  0.00  0.00    +0.051 A 
ATOM     18  C24 <0> A   1     -26.334   1.749  52.519  0.00  0.00    -0.012 A 
ATOM     19  C25 <0> A   1     -26.389   2.167  53.839  0.00  0.00    +0.096 A 
ATOM     20  C26 <0> A   1     -26.683   1.262  54.845  0.00  0.00    -0.018 A 
ATOM     21  C27 <0> A   1     -26.929  -0.061  54.536  0.00  0.00    +0.056 A 
ATOM     22  F1  <0> A   1     -26.153   3.461  54.146  0.00  0.00    -0.141 F 
ENDBRANCH   3  16
BRANCH   8  23
ATOM     23  C16 <0> A   1     -24.573  -6.679  50.955  0.00  0.00    +0.136 A 
ATOM     24  C17 <0> A   1     -24.540  -7.219  49.676  0.00  0.00    +0.015 A 
ATOM     25  C18 <0> A   1     -23.962  -8.455  49.464  0.00  0.00    +0.015 A 
ATOM     26  C19 <0> A   1     -23.418  -9.155  50.525  0.00  0.00    +0.011 A 
ATOM     27  C20 <0> A   1     -23.449  -8.621  51.799  0.00  0.00    +0.015 A 
ATOM     28  C21 <0> A   1     -24.020  -7.383  52.017  0.00  0.00    +0.019 A 
ENDBRANCH   8  23
BRANCH   1  30
ATOM     29  C1  <0> A   1     -30.116  -4.824  53.583  0.00  0.00    +0.050 C 
ATOM     30  C2  <0> A   1     -29.253  -4.800  52.320  0.00  0.00    +0.231 C 
ATOM     31  C3  <0> A   1     -30.120  -4.415  51.118  0.00  0.00    +0.045 C 
ENDBRANCH   1  30
BRANCH   2  32
ATOM     32  C28 <0> A   1     -29.670  -1.850  53.099  0.00  0.00    +0.119 C 
BRANCH  32  33
ATOM     33  C29 <0> A   1     -30.030  -0.926  51.933  0.00  0.00    -0.009 C 
BRANCH  33  34
ATOM     34  C30 <0> A   1     -30.561   0.401  52.480  0.00  0.00    +0.213 C 
BRANCH  34  35
ATOM     35  O5  <0> A   1     -30.271   0.491  53.875  0.00  0.00    -0.541 OA
ATOM     36  H34 <0> A   1     -29.724   1.252  54.116  0.00  0.00    +0.362 HD
ENDBRANCH  34  35
BRANCH  34  37
ATOM     37  C31 <0> A   1     -29.888   1.561  51.742  0.00  0.00    -0.051 C 
BRANCH  37  38
ATOM     38  C32 <0> A   1     -30.568   2.875  52.132  0.00  0.00    +0.231 C 
BRANCH  38  39
ATOM     39  O4  <0> A   1     -31.692   2.600  52.971  0.00  0.00    -0.528 OA
ATOM     40  H33 <0> A   1     -31.971   1.673  52.964  0.00  0.00    +0.349 HD
ENDBRANCH  38  39
BRANCH  38  41
ATOM     41  C33 <0> A   1     -29.574   3.761  52.885  0.00  0.00    -0.103 C 
BRANCH  41  42
ATOM     42  C34 <0> A   1     -30.005   3.888  54.323  0.00  0.00    +0.490 C 
ATOM     43  O2  <0> A   1     -30.626   4.870  54.690  0.00  0.00    -0.681 OA
ATOM     44  O3  <0> A   1     -29.733   3.006  55.120  0.00  0.00    -0.713 OA
ENDBRANCH  41  42
ENDBRANCH  38  41
ENDBRANCH  37  38
ENDBRANCH  34  37
ENDBRANCH  33  34
ENDBRANCH  32  33
ENDBRANCH   2  32
TORSDOF 12
