REMARK VINA RESULT:      -7.3      2.230      4.847
REMARK  Name = CHEMBL235712
REMARK  15 active torsions:
REMARK  status: ('A' for Active; 'I' for Inactive)
REMARK    1  A    between atoms: C1_1  and  C2_2
REMARK    2  A    between atoms: C2_2  and  C3_3
REMARK    3  A    between atoms: C2_2  and  N1_4
REMARK    4  A    between atoms: C4_5  and  C20_24
REMARK    5  A    between atoms: C5_6  and  C14_17
REMARK    6  A    between atoms: C6_7  and  C9_11
REMARK    7  A    between atoms: C7_8  and  C8_9
REMARK    8  A    between atoms: C20_24  and  C21_25
REMARK    9  A    between atoms: C21_25  and  C22_26
REMARK   10  A    between atoms: C22_26  and  C23_28
REMARK   11  A    between atoms: C22_26  and  O4_36
REMARK   12  A    between atoms: C23_28  and  C24_29
REMARK   13  A    between atoms: C24_29  and  C25_31
REMARK   14  A    between atoms: C24_29  and  O3_35
REMARK   15  A    between atoms: C25_31  and  C26_32
REMARK                            x       y       z     vdW  Elec       q    Type
REMARK                         _______ _______ _______ _____ _____    ______ ____
ROOT
ATOM      1  N1  <0> A   1     -15.431   9.594  47.587  0.00  0.00    -0.399 N 
ATOM      2  C4  <0> A   1     -14.328   9.715  46.806  0.00  0.00    +0.088 C 
ATOM      3  C5  <0> A   1     -14.190   8.587  46.054  0.00  0.00    -0.097 C 
ATOM      4  C6  <0> A   1     -15.266   7.720  46.387  0.00  0.00    -0.033 C 
ATOM      5  C7  <0> A   1     -16.021   8.375  47.352  0.00  0.00    +0.069 C 
ENDROOT
BRANCH   3   6
ATOM      6  C14 <0> A   1     -13.116   8.314  45.068  0.00  0.00    -0.000 A 
ATOM      7  C15 <0> A   1     -13.422   8.206  43.713  0.00  0.00    +0.049 A 
ATOM      8  C16 <0> A   1     -12.419   7.953  42.799  0.00  0.00    -0.022 A 
ATOM      9  C17 <0> A   1     -11.110   7.805  43.227  0.00  0.00    +0.096 A 
ATOM     10  C18 <0> A   1     -10.801   7.911  44.574  0.00  0.00    -0.023 A 
ATOM     11  C19 <0> A   1     -11.797   8.170  45.494  0.00  0.00    +0.079 A 
ATOM     12  F1  <0> A   1     -10.132   7.557  42.330  0.00  0.00    -0.144 F 
ENDBRANCH   3   6
BRANCH   4  13
ATOM     13  C9  <0> A   1     -15.527   6.379  45.820  0.00  0.00    +0.198 A 
ATOM     14  C10 <0> A   1     -14.792   5.281  46.270  0.00  0.00    -0.046 A 
ATOM     15  C11 <0> A   1     -15.048   4.034  45.731  0.00  0.00    +0.064 A 
ATOM     16  C12 <0> A   1     -16.033   3.922  44.757  0.00  0.00    -0.043 A 
ATOM     17  C13 <0> A   1     -16.723   5.051  44.357  0.00  0.00    +0.266 A 
ATOM     18  N3  <0> A   1     -16.464   6.227  44.891  0.00  0.00    -0.458 NA
ENDBRANCH   4  13
BRANCH   1  20
ATOM     19  C1  <0> A   1     -14.737  11.125  49.363  0.00  0.00    +0.047 C 
ATOM     20  C2  <0> A   1     -15.913  10.601  48.535  0.00  0.00    +0.235 C 
ATOM     21  C3  <0> A   1     -16.554  11.759  47.768  0.00  0.00    +0.047 C 
ENDBRANCH   1  20
BRANCH   5  22
ATOM     22  C8  <0> A   1     -17.203   7.873  47.985  0.00  0.00    +0.287 C 
ATOM     23  N2  <0> A   1     -18.141   7.474  48.486  0.00  0.00    -0.406 NA
ENDBRANCH   5  22
BRANCH   2  24
ATOM     24  C20 <0> A   1     -13.405  10.904  46.773  0.00  0.00    +0.124 C 
BRANCH  24  25
ATOM     25  C21 <0> A   1     -14.017  12.001  45.900  0.00  0.00    -0.005 C 
BRANCH  25  26
ATOM     26  C22 <0> A   1     -13.256  12.084  44.576  0.00  0.00    +0.214 C 
BRANCH  26  27
ATOM     27  O4  <0> A   1     -11.986  11.443  44.715  0.00  0.00    -0.542 OA
ATOM     28  H27 <0> A   1     -11.260  12.049  44.911  0.00  0.00    +0.363 HD
ENDBRANCH  26  27
BRANCH  26  29
ATOM     29  C23 <0> A   1     -14.062  11.386  43.479  0.00  0.00    -0.051 C 
BRANCH  29  30
ATOM     30  C24 <0> A   1     -13.554  11.835  42.108  0.00  0.00    +0.231 C 
BRANCH  30  31
ATOM     31  O3  <0> A   1     -12.316  11.182  41.821  0.00  0.00    -0.528 OA
ATOM     32  H26 <0> A   1     -11.879  11.502  41.019  0.00  0.00    +0.349 HD
ENDBRANCH  30  31
BRANCH  30  33
ATOM     33  C25 <0> A   1     -14.585  11.467  41.037  0.00  0.00    -0.103 C 
BRANCH  33  34
ATOM     34  C26 <0> A   1     -13.872  10.993  39.796  0.00  0.00    +0.490 C 
ATOM     35  O1  <0> A   1     -13.564  11.791  38.927  0.00  0.00    -0.681 OA
ATOM     36  O2  <0> A   1     -13.602   9.811  39.662  0.00  0.00    -0.713 OA
ENDBRANCH  33  34
ENDBRANCH  30  33
ENDBRANCH  29  30
ENDBRANCH  26  29
ENDBRANCH  25  26
ENDBRANCH  24  25
ENDBRANCH   2  24
TORSDOF 13
