REMARK VINA RESULT:      -7.8     21.715     23.124
REMARK  Name = CHEMBL46057
REMARK  6 active torsions:
REMARK  status: ('A' for Active; 'I' for Inactive)
REMARK    1  A    between atoms: C4_4  and  C7_7
REMARK    2  A    between atoms: C7_7  and  O1_8
REMARK    3  A    between atoms: O1_8  and  C8_9
REMARK    4  A    between atoms: C11_12  and  C14_16
REMARK    5  A    between atoms: C15_17  and  C16_18
REMARK    6  A    between atoms: C18_20  and  O4_26
REMARK                            x       y       z     vdW  Elec       q    Type
REMARK                         _______ _______ _______ _____ _____    ______ ____
ROOT
ATOM      1  C8  <0> A   1     -24.996  -6.950  51.875  0.00  0.00    +0.160 A 
ATOM      2  C9  <0> A   1     -24.169  -5.943  51.397  0.00  0.00    -0.051 A 
ATOM      3  C10 <0> A   1     -24.647  -4.655  51.273  0.00  0.00    +0.025 A 
ATOM      4  C11 <0> A   1     -25.967  -4.364  51.630  0.00  0.00    -0.078 A 
ATOM      5  C12 <0> A   1     -26.796  -5.381  52.111  0.00  0.00    +0.019 A 
ATOM      6  C13 <0> A   1     -26.310  -6.667  52.226  0.00  0.00    +0.013 A 
ATOM      7 Cl1  <0> A   1     -28.436  -5.027  52.557  0.00  0.00    -0.037 Cl
ATOM      8 Cl2  <0> A   1     -23.612  -3.396  50.677  0.00  0.00    -0.042 Cl
ENDROOT
BRANCH   4   9
ATOM      9  C14 <0> A   1     -26.483  -2.986  51.500  0.00  0.00    +0.046 C 
ATOM     10  C15 <0> A   1     -26.426  -2.158  52.534  0.00  0.00    -0.003 C 
BRANCH  10  11
ATOM     11  C16 <0> A   1     -26.953  -0.752  52.404  0.00  0.00    +0.243 C 
ATOM     12  C17 <0> A   1     -28.270  -0.769  51.625  0.00  0.00    +0.051 C 
ATOM     13  C18 <0> A   1     -28.780   0.666  51.458  0.00  0.00    +0.186 C 
ATOM     14  C19 <0> A   1     -27.726   1.483  50.701  0.00  0.00    +0.024 C 
ATOM     15  C20 <0> A   1     -26.396   1.306  51.400  0.00  0.00    +0.497 C 
ATOM     16  O2  <0> A   1     -25.709   2.260  51.680  0.00  0.00    -0.451 OA
ATOM     17  O3  <0> A   1     -25.998   0.052  51.701  0.00  0.00    -0.368 OA
BRANCH  13  18
ATOM     18  O4  <0> A   1     -29.005   1.247  52.745  0.00  0.00    -0.564 OA
ATOM     19  H18 <0> A   1     -29.831   0.967  53.164  0.00  0.00    +0.387 HD
ENDBRANCH  13  18
ENDBRANCH  10  11
ENDBRANCH   4   9
BRANCH   1  20
ATOM     20  O1  <0> A   1     -24.522  -8.217  51.995  0.00  0.00    -0.297 OA
BRANCH  20  21
ATOM     21  C7  <0> A   1     -23.622  -8.671  50.981  0.00  0.00    +0.252 C 
BRANCH  21  25
ATOM     22  C1  <0> A   1     -24.470 -12.753  50.049  0.00  0.00    +0.019 A 
ATOM     23  C2  <0> A   1     -24.155 -11.864  49.038  0.00  0.00    +0.004 A 
ATOM     24  C3  <0> A   1     -23.882 -10.543  49.340  0.00  0.00    +0.031 A 
ATOM     25  C4  <0> A   1     -23.922 -10.111  50.652  0.00  0.00    -0.101 A 
ATOM     26  C5  <0> A   1     -24.237 -11.000  51.663  0.00  0.00    +0.031 A 
ATOM     27  C6  <0> A   1     -24.510 -12.321  51.362  0.00  0.00    +0.004 A 
ENDBRANCH  21  25
ENDBRANCH  20  21
ENDBRANCH   1  20
TORSDOF 6
