REMARK VINA RESULT:      -8.2      4.544      8.916
REMARK  Name = CHEMBL121965
REMARK  12 active torsions:
REMARK  status: ('A' for Active; 'I' for Inactive)
REMARK    1  A    between atoms: C4_4  and  C7_7
REMARK    2  A    between atoms: C7_7  and  C8_8
REMARK    3  A    between atoms: C8_8  and  C9_9
REMARK    4  A    between atoms: N2_16  and  C23_31
REMARK    5  A    between atoms: C15_17  and  C16_18
REMARK    6  A    between atoms: C17_19  and  C18_20
REMARK    7  A    between atoms: C18_20  and  C19_22
REMARK    8  A    between atoms: C18_20  and  O4_30
REMARK    9  A    between atoms: C19_22  and  C20_23
REMARK   10  A    between atoms: C20_23  and  C21_25
REMARK   11  A    between atoms: C20_23  and  O3_29
REMARK   12  A    between atoms: C21_25  and  C22_26
REMARK                            x       y       z     vdW  Elec       q    Type
REMARK                         _______ _______ _______ _____ _____    ______ ____
ROOT
ATOM      1  C9  <0> A   1     -13.800   6.156  44.016  0.00  0.00    +0.085 C 
ATOM      2  C10 <0> A   1     -14.468   4.776  44.039  0.00  0.00    +0.028 C 
ATOM      3  C11 <0> A   1     -14.396   4.191  45.451  0.00  0.00    +0.016 C 
ATOM      4  C12 <0> A   1     -15.353   4.953  46.376  0.00  0.00    +0.104 C 
ATOM      5  C13 <0> A   1     -15.089   6.429  46.215  0.00  0.00    -0.212 C 
ATOM      6  C14 <0> A   1     -14.379   6.981  45.141  0.00  0.00    +0.096 C 
ATOM      7  N1  <0> A   1     -14.324   8.274  45.299  0.00  0.00    -0.278 NA
ATOM      8  N2  <0> A   1     -14.997   8.614  46.481  0.00  0.00    -0.329 N 
ATOM      9  C15 <0> A   1     -15.469   7.456  47.041  0.00  0.00    +0.127 C 
ENDROOT
BRANCH   8  10
ATOM     10  C23 <0> A   1     -15.159   9.906  46.997  0.00  0.00    +0.148 A 
ATOM     11  C24 <0> A   1     -16.307  10.631  46.710  0.00  0.00    +0.048 A 
ATOM     12  C25 <0> A   1     -16.464  11.905  47.221  0.00  0.00    +0.018 A 
ATOM     13  C26 <0> A   1     -15.478  12.458  48.019  0.00  0.00    +0.097 A 
ATOM     14  C27 <0> A   1     -14.331  11.736  48.306  0.00  0.00    +0.008 A 
ATOM     15  C28 <0> A   1     -14.173  10.460  47.803  0.00  0.00    +0.055 A 
ATOM     16  F1  <0> A   1     -15.633  13.704  48.518  0.00  0.00    -0.135 F 
ENDBRANCH   8  10
BRANCH   9  17
ATOM     17  C16 <0> A   1     -16.238   7.337  48.291  0.00  0.00    +0.027 C 
ATOM     18  C17 <0> A   1     -17.561   7.239  48.251  0.00  0.00    -0.027 C 
BRANCH  18  19
ATOM     19  C18 <0> A   1     -18.348   7.118  49.530  0.00  0.00    +0.254 C 
BRANCH  19  20
ATOM     20  O4  <0> A   1     -17.928   8.133  50.445  0.00  0.00    -0.536 OA
ATOM     21  H26 <0> A   1     -17.904   9.021  50.063  0.00  0.00    +0.368 HD
ENDBRANCH  19  20
BRANCH  19  22
ATOM     22  C19 <0> A   1     -19.839   7.287  49.231  0.00  0.00    -0.040 C 
BRANCH  22  23
ATOM     23  C20 <0> A   1     -20.579   5.995  49.581  0.00  0.00    +0.232 C 
BRANCH  23  24
ATOM     24  O3  <0> A   1     -20.847   5.260  48.385  0.00  0.00    -0.528 OA
ATOM     25  H25 <0> A   1     -20.554   5.704  47.578  0.00  0.00    +0.351 HD
ENDBRANCH  23  24
BRANCH  23  26
ATOM     26  C21 <0> A   1     -19.715   5.149  50.518  0.00  0.00    -0.101 C 
BRANCH  26  27
ATOM     27  C22 <0> A   1     -19.738   3.712  50.063  0.00  0.00    +0.491 C 
ATOM     28  O1  <0> A   1     -18.736   3.210  49.583  0.00  0.00    -0.681 OA
ATOM     29  O2  <0> A   1     -20.758   3.054  50.172  0.00  0.00    -0.713 OA
ENDBRANCH  26  27
ENDBRANCH  23  26
ENDBRANCH  22  23
ENDBRANCH  19  22
ENDBRANCH  18  19
ENDBRANCH   9  17
BRANCH   1  30
ATOM     30  C8  <0> A   1     -14.079   6.842  42.676  0.00  0.00    +0.034 C 
BRANCH  30  31
ATOM     31  C7  <0> A   1     -12.799   7.510  42.170  0.00  0.00    +0.075 C 
BRANCH  31  35
ATOM     32  C1  <0> A   1     -13.770  11.267  40.383  0.00  0.00    -0.011 A 
ATOM     33  C2  <0> A   1     -13.278  10.237  39.603  0.00  0.00    +0.000 A 
ATOM     34  C3  <0> A   1     -12.963   9.022  40.181  0.00  0.00    +0.003 A 
ATOM     35  C4  <0> A   1     -13.140   8.836  41.539  0.00  0.00    -0.073 A 
ATOM     36  C5  <0> A   1     -13.633   9.866  42.320  0.00  0.00    -0.001 A 
ATOM     37  C6  <0> A   1     -13.949  11.080  41.741  0.00  0.00    -0.001 A 
ENDBRANCH  31  35
ENDBRANCH  30  31
ENDBRANCH   1  30
TORSDOF 12
