REMARK VINA RESULT:      -8.1      1.270      2.032
REMARK  Name = CHEMBL235472
REMARK  17 active torsions:
REMARK  status: ('A' for Active; 'I' for Inactive)
REMARK    1  A    between atoms: C1_1  and  C2_2
REMARK    2  A    between atoms: C2_2  and  C3_3
REMARK    3  A    between atoms: C2_2  and  N1_4
REMARK    4  A    between atoms: C4_5  and  C27_32
REMARK    5  A    between atoms: C5_6  and  C21_25
REMARK    6  A    between atoms: C6_7  and  C16_19
REMARK    7  A    between atoms: C7_8  and  C8_9
REMARK    8  A    between atoms: N2_11  and  C9_12
REMARK    9  A    between atoms: C9_12  and  C10_13
REMARK   10  A    between atoms: C27_32  and  C28_33
REMARK   11  A    between atoms: C28_33  and  C29_34
REMARK   12  A    between atoms: C29_34  and  C30_36
REMARK   13  A    between atoms: C29_34  and  O5_44
REMARK   14  A    between atoms: C30_36  and  C31_37
REMARK   15  A    between atoms: C31_37  and  C32_39
REMARK   16  A    between atoms: C31_37  and  O4_43
REMARK   17  A    between atoms: C32_39  and  C33_40
REMARK                            x       y       z     vdW  Elec       q    Type
REMARK                         _______ _______ _______ _____ _____    ______ ____
ROOT
ATOM      1  N1  <0> A   1     -15.878   6.312  45.668  0.00  0.00    -0.395 N 
ATOM      2  C4  <0> A   1     -14.627   6.758  45.402  0.00  0.00    +0.066 C 
ATOM      3  C5  <0> A   1     -14.453   7.973  45.997  0.00  0.00    -0.098 C 
ATOM      4  C6  <0> A   1     -15.661   8.295  46.667  0.00  0.00    -0.064 C 
ATOM      5  C7  <0> A   1     -16.536   7.241  46.438  0.00  0.00    -0.020 C 
ENDROOT
BRANCH   3   6
ATOM      6  C21 <0> A   1     -13.225   8.805  45.952  0.00  0.00    +0.007 A 
ATOM      7  C22 <0> A   1     -13.128   9.860  45.046  0.00  0.00    +0.046 A 
ATOM      8  C23 <0> A   1     -11.983  10.630  45.008  0.00  0.00    -0.022 A 
ATOM      9  C24 <0> A   1     -10.932  10.356  45.869  0.00  0.00    +0.093 A 
ATOM     10  C25 <0> A   1     -11.026   9.309  46.771  0.00  0.00    -0.022 A 
ATOM     11  C26 <0> A   1     -12.168   8.537  46.819  0.00  0.00    +0.071 A 
ATOM     12  F1  <0> A   1      -9.814  11.113  45.827  0.00  0.00    -0.145 F 
ENDBRANCH   3   6
BRANCH   4  13
ATOM     13  C16 <0> A   1     -15.938   9.520  47.451  0.00  0.00    +0.205 A 
ATOM     14  C17 <0> A   1     -16.212  10.717  46.790  0.00  0.00    -0.044 A 
ATOM     15  C18 <0> A   1     -16.468  11.854  47.537  0.00  0.00    +0.061 A 
ATOM     16  C19 <0> A   1     -16.443  11.756  48.921  0.00  0.00    -0.050 A 
ATOM     17  C20 <0> A   1     -16.165  10.537  49.511  0.00  0.00    +0.262 A 
ATOM     18  N3  <0> A   1     -15.929   9.469  48.777  0.00  0.00    -0.461 NA
ENDBRANCH   4  13
BRANCH   5  19
ATOM     19  C8  <0> A   1     -17.912   7.135  46.933  0.00  0.00    +0.601 C 
ATOM     20  O1  <0> A   1     -18.843   7.155  46.149  0.00  0.00    -0.517 OA
ATOM     21  N2  <0> A   1     -18.145   7.017  48.255  0.00  0.00    -0.718 N 
ATOM     22  H10 <0> A   1     -17.410   7.073  48.884  0.00  0.00    +0.407 HD
BRANCH  21  23
ATOM     23  C9  <0> A   1     -19.511   6.804  48.741  0.00  0.00    +0.320 C 
BRANCH  23  24
ATOM     24  C10 <0> A   1     -19.624   5.422  49.333  0.00  0.00    -0.112 A 
ATOM     25  C11 <0> A   1     -18.483   4.714  49.658  0.00  0.00    +0.025 A 
ATOM     26  C12 <0> A   1     -18.586   3.447  50.201  0.00  0.00    +0.004 A 
ATOM     27  C13 <0> A   1     -19.832   2.888  50.419  0.00  0.00    +0.013 A 
ATOM     28  C14 <0> A   1     -20.974   3.597  50.096  0.00  0.00    +0.003 A 
ATOM     29  C15 <0> A   1     -20.869   4.866  49.557  0.00  0.00    +0.026 A 
ENDBRANCH  23  24
ENDBRANCH  21  23
ENDBRANCH   5  19
BRANCH   1  31
ATOM     30  C1  <0> A   1     -16.928   5.197  43.760  0.00  0.00    +0.043 C 
ATOM     31  C2  <0> A   1     -16.442   5.042  45.203  0.00  0.00    +0.230 C 
ATOM     32  C3  <0> A   1     -15.367   3.954  45.265  0.00  0.00    +0.046 C 
ENDBRANCH   1  31
BRANCH   2  33
ATOM     33  C27 <0> A   1     -13.594   6.030  44.582  0.00  0.00    +0.120 C 
BRANCH  33  34
ATOM     34  C28 <0> A   1     -13.846   6.291  43.097  0.00  0.00    -0.008 C 
BRANCH  34  35
ATOM     35  C29 <0> A   1     -12.834   7.315  42.579  0.00  0.00    +0.213 C 
BRANCH  35  36
ATOM     36  O5  <0> A   1     -11.901   6.668  41.712  0.00  0.00    -0.542 OA
ATOM     37  H35 <0> A   1     -11.964   5.703  41.716  0.00  0.00    +0.362 HD
ENDBRANCH  35  36
BRANCH  35  38
ATOM     38  C30 <0> A   1     -13.569   8.413  41.808  0.00  0.00    -0.051 C 
BRANCH  38  39
ATOM     39  C31 <0> A   1     -12.549   9.371  41.187  0.00  0.00    +0.231 C 
BRANCH  39  40
ATOM     40  O4  <0> A   1     -12.298   8.984  39.834  0.00  0.00    -0.528 OA
ATOM     41  H34 <0> A   1     -11.864   9.666  39.305  0.00  0.00    +0.349 HD
ENDBRANCH  39  40
BRANCH  39  42
ATOM     42  C32 <0> A   1     -13.105  10.796  41.215  0.00  0.00    -0.103 C 
BRANCH  42  43
ATOM     43  C33 <0> A   1     -13.249  11.306  39.805  0.00  0.00    +0.491 C 
ATOM     44  O2  <0> A   1     -14.316  11.200  39.223  0.00  0.00    -0.681 OA
ATOM     45  O3  <0> A   1     -12.300  11.827  39.245  0.00  0.00    -0.713 OA
ENDBRANCH  42  43
ENDBRANCH  39  42
ENDBRANCH  38  39
ENDBRANCH  35  38
ENDBRANCH  34  35
ENDBRANCH  33  34
ENDBRANCH   2  33
TORSDOF 15
