REMARK VINA RESULT:      -8.1      1.826      2.433
REMARK  Name = CHEMBL124769
REMARK  12 active torsions:
REMARK  status: ('A' for Active; 'I' for Inactive)
REMARK    1  A    between atoms: C4_4  and  C7_7
REMARK    2  A    between atoms: C8_8  and  C9_9
REMARK    3  A    between atoms: C9_9  and  C10_10
REMARK    4  A    between atoms: N2_17  and  C24_32
REMARK    5  A    between atoms: C16_18  and  C17_19
REMARK    6  A    between atoms: C18_20  and  C19_21
REMARK    7  A    between atoms: C19_21  and  C20_23
REMARK    8  A    between atoms: C19_21  and  O4_31
REMARK    9  A    between atoms: C20_23  and  C21_24
REMARK   10  A    between atoms: C21_24  and  C22_26
REMARK   11  A    between atoms: C21_24  and  O3_30
REMARK   12  A    between atoms: C22_26  and  C23_27
REMARK                            x       y       z     vdW  Elec       q    Type
REMARK                         _______ _______ _______ _____ _____    ______ ____
ROOT
ATOM      1  C10 <0> A   1     -24.672  -1.499  51.105  0.00  0.00    +0.091 C 
ATOM      2  C11 <0> A   1     -23.230  -1.874  50.740  0.00  0.00    +0.030 C 
ATOM      3  C12 <0> A   1     -22.795  -3.101  51.545  0.00  0.00    +0.017 C 
ATOM      4  C13 <0> A   1     -23.522  -4.346  51.022  0.00  0.00    +0.105 C 
ATOM      5  C14 <0> A   1     -24.997  -4.038  50.956  0.00  0.00    -0.212 C 
ATOM      6  C15 <0> A   1     -25.525  -2.741  50.995  0.00  0.00    +0.096 C 
ATOM      7  N1  <0> A   1     -26.825  -2.817  50.922  0.00  0.00    -0.279 NA
ATOM      8  N2  <0> A   1     -27.192  -4.167  50.829  0.00  0.00    -0.328 N 
ATOM      9  C16 <0> A   1     -26.045  -4.916  50.851  0.00  0.00    +0.127 C 
ENDROOT
BRANCH   8  10
ATOM     10  C24 <0> A   1     -28.499  -4.662  50.733  0.00  0.00    +0.148 A 
ATOM     11  C25 <0> A   1     -29.046  -4.944  49.489  0.00  0.00    +0.049 A 
ATOM     12  C26 <0> A   1     -30.336  -5.431  49.397  0.00  0.00    +0.018 A 
ATOM     13  C27 <0> A   1     -31.082  -5.640  50.544  0.00  0.00    +0.098 A 
ATOM     14  C28 <0> A   1     -30.538  -5.359  51.786  0.00  0.00    +0.008 A 
ATOM     15  C29 <0> A   1     -29.248  -4.876  51.884  0.00  0.00    +0.054 A 
ATOM     16  F1  <0> A   1     -32.342  -6.117  50.452  0.00  0.00    -0.134 F 
ENDBRANCH   8  10
BRANCH   9  17
ATOM     17  C17 <0> A   1     -25.955  -6.384  50.777  0.00  0.00    +0.027 C 
ATOM     18  C18 <0> A   1     -25.749  -6.979  49.607  0.00  0.00    -0.027 C 
BRANCH  18  19
ATOM     19  C19 <0> A   1     -25.656  -8.481  49.532  0.00  0.00    +0.255 C 
BRANCH  19  20
ATOM     20  O4  <0> A   1     -25.848  -8.903  48.180  0.00  0.00    -0.536 OA
ATOM     21  H26 <0> A   1     -26.612  -8.498  47.747  0.00  0.00    +0.368 HD
ENDBRANCH  19  20
BRANCH  19  22
ATOM     22  C20 <0> A   1     -24.276  -8.931  50.016  0.00  0.00    -0.040 C 
BRANCH  22  23
ATOM     23  C21 <0> A   1     -24.343 -10.395  50.457  0.00  0.00    +0.232 C 
BRANCH  23  24
ATOM     24  O3  <0> A   1     -25.709 -10.782  50.620  0.00  0.00    -0.528 OA
ATOM     25  H25 <0> A   1     -25.828 -11.691  50.926  0.00  0.00    +0.351 HD
ENDBRANCH  23  24
BRANCH  23  26
ATOM     26  C22 <0> A   1     -23.686 -11.278  49.395  0.00  0.00    -0.101 C 
BRANCH  26  27
ATOM     27  C23 <0> A   1     -24.710 -12.227  48.827  0.00  0.00    +0.491 C 
ATOM     28  O1  <0> A   1     -24.950 -13.277  49.398  0.00  0.00    -0.681 OA
ATOM     29  O2  <0> A   1     -25.298 -11.945  47.797  0.00  0.00    -0.712 OA
ENDBRANCH  26  27
ENDBRANCH  23  26
ENDBRANCH  22  23
ENDBRANCH  19  22
ENDBRANCH  18  19
ENDBRANCH   9  17
BRANCH   1  30
ATOM     30  C9  <0> A   1     -25.188  -0.432  50.139  0.00  0.00    +0.069 C 
BRANCH  30  32
ATOM     31  C7  <0> A   1     -27.303   0.786  50.397  0.00  0.00    -0.024 C 
ATOM     32  C8  <0> A   1     -26.098   0.517  50.876  0.00  0.00    +0.004 C 
BRANCH  31  36
ATOM     33  C1  <0> A   1     -29.868   3.461  52.473  0.00  0.00    -0.006 A 
ATOM     34  C2  <0> A   1     -28.530   3.775  52.312  0.00  0.00    +0.001 A 
ATOM     35  C3  <0> A   1     -27.692   2.911  51.639  0.00  0.00    +0.006 A 
ATOM     36  C4  <0> A   1     -28.196   1.718  51.120  0.00  0.00    -0.048 A 
ATOM     37  C5  <0> A   1     -29.546   1.406  51.286  0.00  0.00    +0.010 A 
ATOM     38  C6  <0> A   1     -30.374   2.280  51.961  0.00  0.00    +0.004 A 
ENDBRANCH  31  36
ENDBRANCH  30  32
ENDBRANCH   1  30
TORSDOF 12
