REMARK VINA RESULT:      -7.1      1.786      5.024
REMARK  Name = CHEMBL83483
REMARK  14 active torsions:
REMARK  status: ('A' for Active; 'I' for Inactive)
REMARK    1  A    between atoms: C1_1  and  C2_2
REMARK    2  A    between atoms: C2_2  and  C3_3
REMARK    3  A    between atoms: C3_3  and  C4_4
REMARK    4  A    between atoms: C3_3  and  C5_5
REMARK    5  A    between atoms: C3_3  and  C6_6
REMARK    6  A    between atoms: C6_6  and  O2_8
REMARK    7  A    between atoms: O2_8  and  C7_9
REMARK    8  A    between atoms: C9_12  and  C24_35
REMARK    9  A    between atoms: C9_12  and  C25_36
REMARK   10  A    between atoms: C12_17  and  C17_24
REMARK   11  A    between atoms: C13_19  and  C16_23
REMARK   12  A    between atoms: C17_24  and  C18_25
REMARK   13  A    between atoms: C18_25  and  C19_26
REMARK   14  A    between atoms: C21_28  and  O6_34
REMARK                            x       y       z     vdW  Elec       q    Type
REMARK                         _______ _______ _______ _____ _____    ______ ____
ROOT
ATOM      1  C7  <0> A   1     -15.473   7.604  47.128  0.00  0.00    +0.187 C 
ATOM      2  C8  <0> A   1     -16.933   7.937  47.488  0.00  0.00    -0.010 C 
ATOM      3  C9  <0> A   1     -17.819   6.704  47.339  0.00  0.00    +0.130 C 
ATOM      4  O3  <0> A   1     -17.598   6.030  46.113  0.00  0.00    -0.370 OA
ATOM      5  C10 <0> A   1     -16.291   5.818  45.624  0.00  0.00    +0.218 C 
ATOM      6  C11 <0> A   1     -15.457   7.109  45.689  0.00  0.00    -0.016 C 
ATOM      7  C12 <0> A   1     -14.094   6.856  45.086  0.00  0.00    -0.002 C 
ATOM      8  C13 <0> A   1     -13.354   5.658  45.653  0.00  0.00    -0.016 C 
ATOM      9  C14 <0> A   1     -14.233   4.413  45.700  0.00  0.00    +0.020 C 
ATOM     10  C15 <0> A   1     -15.565   4.713  46.389  0.00  0.00    -0.013 C 
ATOM     11  C16 <0> A   1     -12.751   5.957  47.023  0.00  0.00    +0.014 C 
ATOM     12  C24 <0> A   1     -19.288   7.180  47.356  0.00  0.00    +0.055 C 
ATOM     13  C25 <0> A   1     -17.627   5.768  48.534  0.00  0.00    +0.016 C 
ENDROOT
BRANCH   1  14
ATOM     14  O2  <0> A   1     -14.707   8.799  47.296  0.00  0.00    -0.333 OA
BRANCH  14  15
ATOM     15  C6  <0> A   1     -14.487   9.208  48.554  0.00  0.00    +0.471 C 
ATOM     16  O1  <0> A   1     -14.123   8.419  49.393  0.00  0.00    -0.507 OA
BRANCH  15  17
ATOM     17  C3  <0> A   1     -14.692  10.656  48.922  0.00  0.00    -0.056 C 
ATOM     18  C4  <0> A   1     -13.466  11.167  49.681  0.00  0.00    +0.057 C 
ATOM     19  C5  <0> A   1     -15.933  10.786  49.809  0.00  0.00    +0.077 C 
BRANCH  17  21
ATOM     20  C1  <0> A   1     -16.351  11.910  47.537  0.00  0.00    +0.023 C 
ATOM     21  C2  <0> A   1     -14.886  11.483  47.650  0.00  0.00    +0.033 C 
ENDBRANCH  17  21
ENDBRANCH  15  17
ENDBRANCH  14  15
ENDBRANCH   1  14
BRANCH   7  22
ATOM     22  C17 <0> A   1     -13.200   8.093  45.107  0.00  0.00    +0.037 C 
BRANCH  22  23
ATOM     23  C18 <0> A   1     -13.808   9.179  44.217  0.00  0.00    +0.044 C 
BRANCH  23  24
ATOM     24  C19 <0> A   1     -13.079   9.204  42.872  0.00  0.00    +0.196 C 
ATOM     25  C20 <0> A   1     -13.670  10.308  41.991  0.00  0.00    +0.037 C 
ATOM     26  C21 <0> A   1     -12.966  10.303  40.630  0.00  0.00    +0.182 C 
ATOM     27  C22 <0> A   1     -13.169   8.932  39.972  0.00  0.00    +0.016 C 
ATOM     28  C23 <0> A   1     -12.755   7.864  40.961  0.00  0.00    +0.495 C 
ATOM     29  O4  <0> A   1     -12.011   6.969  40.635  0.00  0.00    -0.447 OA
ATOM     30  O5  <0> A   1     -13.240   7.940  42.218  0.00  0.00    -0.361 OA
BRANCH  26  31
ATOM     31  O6  <0> A   1     -11.570  10.547  40.813  0.00  0.00    -0.563 OA
ATOM     32  H36 <0> A   1     -11.356  11.008  41.636  0.00  0.00    +0.386 HD
ENDBRANCH  26  31
ENDBRANCH  23  24
ENDBRANCH  22  23
ENDBRANCH   7  22
TORSDOF 8
