REMARK VINA RESULT:      -7.7      2.968      5.647
REMARK  Name = CHEMBL317576
REMARK  15 active torsions:
REMARK  status: ('A' for Active; 'I' for Inactive)
REMARK    1  A    between atoms: C6_6  and  C7_7
REMARK    2  A    between atoms: C7_7  and  C8_8
REMARK    3  A    between atoms: C7_7  and  C16_18
REMARK    4  A    between atoms: C8_8  and  C9_9
REMARK    5  A    between atoms: C9_9  and  O1_10
REMARK    6  A    between atoms: O1_10  and  C10_11
REMARK    7  A    between atoms: C21_23  and  O2_24
REMARK    8  A    between atoms: O2_24  and  C22_25
REMARK    9  A    between atoms: C22_25  and  C23_26
REMARK   10  A    between atoms: C23_26  and  C24_27
REMARK   11  A    between atoms: C23_26  and  O6_35
REMARK   12  A    between atoms: C24_27  and  C25_28
REMARK   13  A    between atoms: C25_28  and  C26_30
REMARK   14  A    between atoms: C25_28  and  O5_34
REMARK   15  A    between atoms: C26_30  and  C27_31
REMARK                            x       y       z     vdW  Elec       q    Type
REMARK                         _______ _______ _______ _____ _____    ______ ____
ROOT
ATOM      1  C16 <0> A   1     -13.379   8.336  46.360  0.00  0.00    -0.069 A 
ATOM      2  C17 <0> A   1     -14.424   8.439  47.257  0.00  0.00    +0.055 A 
ATOM      3  C18 <0> A   1     -14.935   9.681  47.587  0.00  0.00    -0.029 A 
ATOM      4  C19 <0> A   1     -14.401  10.824  47.018  0.00  0.00    +0.057 A 
ATOM      5  C20 <0> A   1     -13.355  10.726  46.119  0.00  0.00    -0.045 A 
ATOM      6  C21 <0> A   1     -12.837   9.479  45.792  0.00  0.00    +0.123 A 
ATOM      7 Cl1  <0> A   1     -12.685  12.159  45.405  0.00  0.00    -0.036 Cl
ATOM      8 Cl2  <0> A   1     -16.249   9.808  48.715  0.00  0.00    -0.054 Cl
ENDROOT
BRANCH   1   9
ATOM      9  C7  <0> A   1     -12.824   6.982  46.002  0.00  0.00    +0.109 C 
BRANCH   9  15
ATOM     10  C1  <0> A   1     -14.285   4.952  46.122  0.00  0.00    +0.047 A 
ATOM     11  C2  <0> A   1     -15.298   4.156  45.625  0.00  0.00    -0.012 A 
ATOM     12  C3  <0> A   1     -15.957   4.518  44.463  0.00  0.00    +0.100 A 
ATOM     13  C4  <0> A   1     -15.601   5.680  43.799  0.00  0.00    -0.007 A 
ATOM     14  C5  <0> A   1     -14.587   6.476  44.298  0.00  0.00    +0.049 A 
ATOM     15  C6  <0> A   1     -13.929   6.113  45.458  0.00  0.00    -0.091 A 
ATOM     16  F2  <0> A   1     -16.948   3.739  43.976  0.00  0.00    -0.139 F 
ENDBRANCH   9  15
BRANCH   9  17
ATOM     17  C8  <0> A   1     -12.228   6.328  47.250  0.00  0.00    +0.059 C 
BRANCH  17  18
ATOM     18  C9  <0> A   1     -10.785   6.801  47.434  0.00  0.00    +0.196 C 
BRANCH  18  19
ATOM     19  O1  <0> A   1      -9.987   5.720  47.920  0.00  0.00    -0.310 OA
BRANCH  19  20
ATOM     20  C10 <0> A   1      -8.996   5.269  47.104  0.00  0.00    +0.125 A 
ATOM     21  C11 <0> A   1      -8.381   6.137  46.215  0.00  0.00    -0.039 A 
ATOM     22  C12 <0> A   1      -7.374   5.678  45.388  0.00  0.00    +0.029 A 
ATOM     23  C13 <0> A   1      -6.981   4.352  45.445  0.00  0.00    +0.057 A 
ATOM     24  C14 <0> A   1      -7.596   3.484  46.332  0.00  0.00    +0.028 A 
ATOM     25  C15 <0> A   1      -8.598   3.942  47.165  0.00  0.00    +0.015 A 
ATOM     26  F1  <0> A   1      -5.998   3.903  44.635  0.00  0.00    -0.141 F 
ENDBRANCH  19  20
ENDBRANCH  18  19
ENDBRANCH  17  18
ENDBRANCH   9  17
ENDBRANCH   1   9
BRANCH   6  27
ATOM     27  O2  <0> A   1     -11.805   9.379  44.913  0.00  0.00    -0.309 OA
BRANCH  27  28
ATOM     28  C22 <0> A   1     -12.069   8.714  43.676  0.00  0.00    +0.154 C 
BRANCH  28  29
ATOM     29  C23 <0> A   1     -12.272   9.753  42.572  0.00  0.00    +0.229 C 
BRANCH  29  30
ATOM     30  O6  <0> A   1     -11.702   9.270  41.353  0.00  0.00    -0.528 OA
ATOM     31  H25 <0> A   1     -10.739   9.353  41.309  0.00  0.00    +0.359 HD
ENDBRANCH  29  30
BRANCH  29  32
ATOM     32  C24 <0> A   1     -13.769  10.000  42.372  0.00  0.00    -0.041 C 
BRANCH  32  33
ATOM     33  C25 <0> A   1     -13.971  11.294  41.583  0.00  0.00    +0.235 C 
BRANCH  33  34
ATOM     34  O5  <0> A   1     -12.720  11.973  41.450  0.00  0.00    -0.526 OA
ATOM     35  H24 <0> A   1     -12.153  11.619  40.751  0.00  0.00    +0.350 HD
ENDBRANCH  33  34
BRANCH  33  36
ATOM     36  C26 <0> A   1     -14.522  10.964  40.194  0.00  0.00    -0.101 C 
BRANCH  36  37
ATOM     37  C27 <0> A   1     -13.437  11.154  39.166  0.00  0.00    +0.490 C 
ATOM     38  O3  <0> A   1     -13.320  12.225  38.594  0.00  0.00    -0.680 OA
ATOM     39  O4  <0> A   1     -12.677  10.237  38.905  0.00  0.00    -0.712 OA
ENDBRANCH  36  37
ENDBRANCH  33  36
ENDBRANCH  32  33
ENDBRANCH  29  32
ENDBRANCH  28  29
ENDBRANCH  27  28
ENDBRANCH   6  27
TORSDOF 15
