REMARK VINA RESULT:      -8.0     15.743     19.496
REMARK  Name = CHEMBL350895
REMARK  8 active torsions:
REMARK  status: ('A' for Active; 'I' for Inactive)
REMARK    1  A    between atoms: C1_1  and  C2_2
REMARK    2  A    between atoms: C2_2  and  C3_3
REMARK    3  A    between atoms: C4_4  and  C20_22
REMARK    4  A    between atoms: C5_5  and  C14_15
REMARK    5  A    between atoms: C7_7  and  C8_9
REMARK    6  A    between atoms: C20_22  and  C21_23
REMARK    7  A    between atoms: C21_23  and  C22_24
REMARK    8  A    between atoms: C24_26  and  O3_32
REMARK                            x       y       z     vdW  Elec       q    Type
REMARK                         _______ _______ _______ _____ _____    ______ ____
ROOT
ATOM      1  C3  <0> A   1     -27.173  -1.390  50.498  0.00  0.00    +0.150 A 
ATOM      2  C4  <0> A   1     -27.712  -2.613  50.843  0.00  0.00    -0.120 A 
ATOM      3  C5  <0> A   1     -28.914  -2.652  51.557  0.00  0.00    +0.004 A 
ATOM      4  C6  <0> A   1     -29.523  -1.442  51.894  0.00  0.00    -0.015 A 
ATOM      5  C7  <0> A   1     -28.915  -0.253  51.508  0.00  0.00    +0.174 A 
ATOM      6  N1  <0> A   1     -27.771  -0.265  50.836  0.00  0.00    -0.472 NA
ENDROOT
BRANCH   3   7
ATOM      7  C14 <0> A   1     -29.526  -3.947  51.946  0.00  0.00    -0.061 A 
ATOM      8  C15 <0> A   1     -30.381  -4.608  51.066  0.00  0.00    +0.065 A 
ATOM      9  C16 <0> A   1     -30.948  -5.811  51.432  0.00  0.00    -0.010 A 
ATOM     10  C17 <0> A   1     -30.668  -6.362  52.673  0.00  0.00    +0.107 A 
ATOM     11  C18 <0> A   1     -29.819  -5.709  53.550  0.00  0.00    -0.011 A 
ATOM     12  C19 <0> A   1     -29.243  -4.508  53.189  0.00  0.00    +0.062 A 
ATOM     13  F1  <0> A   1     -31.227  -7.539  53.027  0.00  0.00    -0.136 F 
ENDBRANCH   3   7
BRANCH   5  14
ATOM     14  C8  <0> A   1     -29.548   1.043  51.857  0.00  0.00    -0.051 A 
ATOM     15  C9  <0> A   1     -30.932   1.132  51.991  0.00  0.00    +0.024 A 
ATOM     16  C10 <0> A   1     -31.516   2.339  52.316  0.00  0.00    +0.003 A 
ATOM     17  C11 <0> A   1     -30.730   3.461  52.507  0.00  0.00    +0.016 A 
ATOM     18  C12 <0> A   1     -29.355   3.379  52.374  0.00  0.00    +0.001 A 
ATOM     19  C13 <0> A   1     -28.760   2.175  52.056  0.00  0.00    +0.056 A 
ENDBRANCH   5  14
BRANCH   1  21
ATOM     20  C1  <0> A   1     -24.901  -0.398  50.435  0.00  0.00    +0.034 C 
ATOM     21  C2  <0> A   1     -25.878  -1.341  49.729  0.00  0.00    +0.090 C 
ENDBRANCH   1  21
BRANCH   2  22
ATOM     22  C20 <0> A   1     -27.014  -3.891  50.454  0.00  0.00    +0.086 C 
BRANCH  22  23
ATOM     23  C21 <0> A   1     -26.022  -4.284  51.551  0.00  0.00    +0.059 C 
BRANCH  23  24
ATOM     24  C22 <0> A   1     -25.198  -5.486  51.086  0.00  0.00    +0.198 C 
ATOM     25  C23 <0> A   1     -25.956  -6.228  49.981  0.00  0.00    +0.040 C 
ATOM     26  C24 <0> A   1     -25.147  -7.454  49.546  0.00  0.00    +0.184 C 
ATOM     27  C25 <0> A   1     -24.944  -8.370  50.759  0.00  0.00    +0.021 C 
ATOM     28  C26 <0> A   1     -24.375  -7.542  51.891  0.00  0.00    +0.496 C 
ATOM     29  O1  <0> A   1     -23.408  -7.916  52.509  0.00  0.00    -0.452 OA
ATOM     30  O2  <0> A   1     -24.981  -6.373  52.188  0.00  0.00    -0.366 OA
BRANCH  26  31
ATOM     31  O3  <0> A   1     -23.877  -7.036  49.042  0.00  0.00    -0.563 OA
ATOM     32  H26 <0> A   1     -23.230  -7.750  48.963  0.00  0.00    +0.387 HD
ENDBRANCH  26  31
ENDBRANCH  23  24
ENDBRANCH  22  23
ENDBRANCH   2  22
TORSDOF 7
