REMARK VINA RESULT:      -8.1      1.404      1.810
REMARK  Name = CHEMBL468862
REMARK  13 active torsions:
REMARK  status: ('A' for Active; 'I' for Inactive)
REMARK    1  A    between atoms: C1_1  and  C2_2
REMARK    2  A    between atoms: C2_2  and  C3_3
REMARK    3  A    between atoms: C2_2  and  C4_4
REMARK    4  A    between atoms: C5_5  and  C22_29
REMARK    5  A    between atoms: C6_6  and  C16_22
REMARK    6  A    between atoms: C9_13  and  C10_16
REMARK    7  A    between atoms: C23_30  and  C24_31
REMARK    8  A    between atoms: C24_31  and  C25_33
REMARK    9  A    between atoms: C24_31  and  O4_41
REMARK   10  A    between atoms: C25_33  and  C26_34
REMARK   11  A    between atoms: C26_34  and  C27_36
REMARK   12  A    between atoms: C26_34  and  O3_40
REMARK   13  A    between atoms: C27_36  and  C28_37
REMARK                            x       y       z     vdW  Elec       q    Type
REMARK                         _______ _______ _______ _____ _____    ______ ____
ROOT
ATOM      1  C4  <0> A   1     -15.189   6.596  45.700  0.00  0.00    +0.232 A 
ATOM      2  C5  <0> A   1     -14.485   7.775  45.437  0.00  0.00    -0.176 A 
ATOM      3  C6  <0> A   1     -14.441   8.761  46.444  0.00  0.00    +0.261 A 
ATOM      4  N1  <0> A   1     -15.065   8.530  47.596  0.00  0.00    -0.504 NA
ATOM      5  C7  <0> A   1     -15.717   7.396  47.797  0.00  0.00    +0.553 A 
ATOM      6  N2  <0> A   1     -15.785   6.451  46.870  0.00  0.00    -0.545 NA
ATOM      7  N3  <0> A   1     -16.355   7.195  49.010  0.00  0.00    -0.590 N 
ATOM      8  C8  <0> A   1     -16.302   8.179  49.998  0.00  0.00    +0.489 C 
ATOM      9  N4  <0> A   1     -16.896   8.005  51.159  0.00  0.00    -0.546 NA
ATOM     10  C9  <0> A   1     -16.804   8.983  52.049  0.00  0.00    +0.116 C 
ATOM     11  S1  <0> A   1     -15.882  10.131  51.238  0.00  0.00    +0.290 S 
ATOM     12  N5  <0> A   1     -15.652   9.306  49.797  0.00  0.00    -0.436 NA
ATOM     13  H10 <0> A   1     -16.837   6.369  49.172  0.00  0.00    +0.438 HD
ENDROOT
BRANCH   3  14
ATOM     14  C16 <0> A   1     -13.710  10.030  46.224  0.00  0.00    -0.071 A 
ATOM     15  C17 <0> A   1     -12.399  10.172  46.680  0.00  0.00    +0.096 A 
ATOM     16  C18 <0> A   1     -11.723  11.355  46.471  0.00  0.00    -0.016 A 
ATOM     17  C19 <0> A   1     -12.344  12.404  45.810  0.00  0.00    +0.120 A 
ATOM     18  C20 <0> A   1     -13.646  12.268  45.356  0.00  0.00    -0.027 A 
ATOM     19  C21 <0> A   1     -14.329  11.087  45.555  0.00  0.00    +0.099 A 
ATOM     20  F1  <0> A   1     -11.677  13.561  45.608  0.00  0.00    -0.136 F 
ENDBRANCH   3  14
BRANCH  10  21
ATOM     21  C10 <0> A   1     -17.370   9.046  53.414  0.00  0.00    -0.031 A 
ATOM     22  C11 <0> A   1     -18.274  10.053  53.752  0.00  0.00    +0.073 A 
ATOM     23  C12 <0> A   1     -18.799  10.105  55.026  0.00  0.00    +0.008 A 
ATOM     24  C13 <0> A   1     -18.430   9.163  55.969  0.00  0.00    +0.036 A 
ATOM     25  C14 <0> A   1     -17.534   8.162  55.641  0.00  0.00    +0.015 A 
ATOM     26  C15 <0> A   1     -17.006   8.095  54.368  0.00  0.00    +0.047 A 
ENDBRANCH  10  21
BRANCH   1  28
ATOM     27  C1  <0> A   1     -14.758   4.194  45.256  0.00  0.00    +0.043 C 
ATOM     28  C2  <0> A   1     -15.270   5.508  44.660  0.00  0.00    +0.052 C 
ATOM     29  C3  <0> A   1     -16.725   5.334  44.217  0.00  0.00    +0.044 C 
ENDBRANCH   1  28
BRANCH   2  30
ATOM     30  C22 <0> A   1     -13.809   7.982  44.141  0.00  0.00    +0.012 C 
ATOM     31  C23 <0> A   1     -12.695   7.317  43.861  0.00  0.00    -0.035 C 
BRANCH  31  32
ATOM     32  C24 <0> A   1     -12.004   7.529  42.539  0.00  0.00    +0.253 C 
BRANCH  32  33
ATOM     33  O4  <0> A   1     -11.433   6.296  42.096  0.00  0.00    -0.537 OA
ATOM     34  H27 <0> A   1     -10.769   5.931  42.698  0.00  0.00    +0.366 HD
ENDBRANCH  32  33
BRANCH  32  35
ATOM     35  C25 <0> A   1     -13.020   8.019  41.506  0.00  0.00    -0.041 C 
BRANCH  35  36
ATOM     36  C26 <0> A   1     -12.453   9.236  40.771  0.00  0.00    +0.232 C 
BRANCH  36  37
ATOM     37  O3  <0> A   1     -12.375   8.955  39.373  0.00  0.00    -0.528 OA
ATOM     38  H26 <0> A   1     -11.943   9.649  38.856  0.00  0.00    +0.350 HD
ENDBRANCH  36  37
BRANCH  36  39
ATOM     39  C27 <0> A   1     -13.369  10.441  40.998  0.00  0.00    -0.102 C 
BRANCH  39  40
ATOM     40  C28 <0> A   1     -13.407  11.285  39.751  0.00  0.00    +0.490 C 
ATOM     41  O1  <0> A   1     -12.414  11.902  39.403  0.00  0.00    -0.681 OA
ATOM     42  O2  <0> A   1     -14.429  11.351  39.090  0.00  0.00    -0.713 OA
ENDBRANCH  39  40
ENDBRANCH  36  39
ENDBRANCH  35  36
ENDBRANCH  32  35
ENDBRANCH  31  32
ENDBRANCH   2  30
TORSDOF 11
