REMARK VINA RESULT:      -8.1     15.617     19.206
REMARK  Name = CHEMBL468862
REMARK  13 active torsions:
REMARK  status: ('A' for Active; 'I' for Inactive)
REMARK    1  A    between atoms: C1_1  and  C2_2
REMARK    2  A    between atoms: C2_2  and  C3_3
REMARK    3  A    between atoms: C2_2  and  C4_4
REMARK    4  A    between atoms: C5_5  and  C22_29
REMARK    5  A    between atoms: C6_6  and  C16_22
REMARK    6  A    between atoms: C9_13  and  C10_16
REMARK    7  A    between atoms: C23_30  and  C24_31
REMARK    8  A    between atoms: C24_31  and  C25_33
REMARK    9  A    between atoms: C24_31  and  O4_41
REMARK   10  A    between atoms: C25_33  and  C26_34
REMARK   11  A    between atoms: C26_34  and  C27_36
REMARK   12  A    between atoms: C26_34  and  O3_40
REMARK   13  A    between atoms: C27_36  and  C28_37
REMARK                            x       y       z     vdW  Elec       q    Type
REMARK                         _______ _______ _______ _____ _____    ______ ____
ROOT
ATOM      1  C4  <0> A   1     -29.125  -3.365  52.602  0.00  0.00    +0.232 A 
ATOM      2  C5  <0> A   1     -28.035  -2.517  52.390  0.00  0.00    -0.176 A 
ATOM      3  C6  <0> A   1     -26.838  -3.082  51.903  0.00  0.00    +0.261 A 
ATOM      4  N1  <0> A   1     -26.796  -4.390  51.666  0.00  0.00    -0.504 NA
ATOM      5  C7  <0> A   1     -27.858  -5.151  51.882  0.00  0.00    +0.553 A 
ATOM      6  N2  <0> A   1     -28.996  -4.654  52.345  0.00  0.00    -0.545 NA
ATOM      7  N3  <0> A   1     -27.773  -6.509  51.623  0.00  0.00    -0.590 N 
ATOM      8  C8  <0> A   1     -26.582  -7.055  51.140  0.00  0.00    +0.489 C 
ATOM      9  N4  <0> A   1     -26.483  -8.341  50.882  0.00  0.00    -0.546 NA
ATOM     10  C9  <0> A   1     -25.322  -8.789  50.426  0.00  0.00    +0.116 C 
ATOM     11  S1  <0> A   1     -24.389  -7.393  50.368  0.00  0.00    +0.290 S 
ATOM     12  N5  <0> A   1     -25.528  -6.296  50.924  0.00  0.00    -0.436 NA
ATOM     13  H10 <0> A   1     -28.543  -7.080  51.776  0.00  0.00    +0.438 HD
ENDROOT
BRANCH   3  14
ATOM     14  C16 <0> A   1     -25.649  -2.233  51.658  0.00  0.00    -0.071 A 
ATOM     15  C17 <0> A   1     -25.405  -1.722  50.383  0.00  0.00    +0.096 A 
ATOM     16  C18 <0> A   1     -24.297  -0.931  50.161  0.00  0.00    -0.016 A 
ATOM     17  C19 <0> A   1     -23.426  -0.645  51.201  0.00  0.00    +0.120 A 
ATOM     18  C20 <0> A   1     -23.665  -1.152  52.468  0.00  0.00    -0.027 A 
ATOM     19  C21 <0> A   1     -24.773  -1.939  52.702  0.00  0.00    +0.099 A 
ATOM     20  F1  <0> A   1     -22.343   0.130  50.978  0.00  0.00    -0.136 F 
ENDBRANCH   3  14
BRANCH  10  21
ATOM     21  C10 <0> A   1     -24.944 -10.171  50.061  0.00  0.00    -0.031 A 
ATOM     22  C11 <0> A   1     -24.573 -10.474  48.751  0.00  0.00    +0.073 A 
ATOM     23  C12 <0> A   1     -24.221 -11.765  48.418  0.00  0.00    +0.008 A 
ATOM     24  C13 <0> A   1     -24.235 -12.759  49.380  0.00  0.00    +0.036 A 
ATOM     25  C14 <0> A   1     -24.601 -12.466  50.682  0.00  0.00    +0.015 A 
ATOM     26  C15 <0> A   1     -24.951 -11.177  51.028  0.00  0.00    +0.047 A 
ENDBRANCH  10  21
BRANCH   1  28
ATOM     27  C1  <0> A   1     -31.584  -3.693  52.631  0.00  0.00    +0.043 C 
ATOM     28  C2  <0> A   1     -30.429  -2.816  53.122  0.00  0.00    +0.052 C 
ATOM     29  C3  <0> A   1     -30.407  -2.812  54.652  0.00  0.00    +0.044 C 
ENDBRANCH   1  28
BRANCH   2  30
ATOM     30  C22 <0> A   1     -28.133  -1.070  52.669  0.00  0.00    +0.012 C 
ATOM     31  C23 <0> A   1     -28.498  -0.233  51.706  0.00  0.00    -0.035 C 
BRANCH  31  32
ATOM     32  C24 <0> A   1     -28.598   1.243  51.991  0.00  0.00    +0.253 C 
BRANCH  32  33
ATOM     33  O4  <0> A   1     -29.646   1.478  52.934  0.00  0.00    -0.537 OA
ATOM     34  H27 <0> A   1     -29.436   1.193  53.834  0.00  0.00    +0.366 HD
ENDBRANCH  32  33
BRANCH  32  35
ATOM     35  C25 <0> A   1     -27.273   1.742  52.569  0.00  0.00    -0.041 C 
BRANCH  35  36
ATOM     36  C26 <0> A   1     -26.940   3.112  51.975  0.00  0.00    +0.232 C 
BRANCH  36  37
ATOM     37  O3  <0> A   1     -28.011   4.020  52.241  0.00  0.00    -0.528 OA
ATOM     38  H26 <0> A   1     -27.842   4.620  52.980  0.00  0.00    +0.350 HD
ENDBRANCH  36  37
BRANCH  36  39
ATOM     39  C27 <0> A   1     -25.653   3.644  52.608  0.00  0.00    -0.102 C 
BRANCH  39  40
ATOM     40  C28 <0> A   1     -25.879   5.048  53.104  0.00  0.00    +0.490 C 
ATOM     41  O1  <0> A   1     -26.189   5.241  54.268  0.00  0.00    -0.681 OA
ATOM     42  O2  <0> A   1     -25.751   5.992  52.343  0.00  0.00    -0.713 OA
ENDBRANCH  39  40
ENDBRANCH  36  39
ENDBRANCH  35  36
ENDBRANCH  32  35
ENDBRANCH  31  32
ENDBRANCH   2  30
TORSDOF 11
