MODEL 1
REMARK VINA RESULT:      -7.6      0.000      0.000
REMARK  Name = CHEMBL293944
REMARK  16 active torsions:
REMARK  status: ('A' for Active; 'I' for Inactive)
REMARK    1  A    between atoms: C1_1  and  C2_2
REMARK    2  A    between atoms: C2_2  and  C3_3
REMARK    3  A    between atoms: C3_3  and  C4_5
REMARK    4  A    between atoms: C3_3  and  C5_6
REMARK    5  A    between atoms: C5_6  and  O2_8
REMARK    6  A    between atoms: O2_8  and  C6_9
REMARK    7  A    between atoms: C8_12  and  C24_37
REMARK    8  A    between atoms: C12_18  and  C17_25
REMARK    9  A    between atoms: C13_20  and  C16_24
REMARK   10  A    between atoms: C17_25  and  C18_26
REMARK   11  A    between atoms: C18_26  and  C19_27
REMARK   12  A    between atoms: C19_27  and  C20_29
REMARK   13  A    between atoms: C20_29  and  C21_30
REMARK   14  A    between atoms: C21_30  and  C22_32
REMARK   15  A    between atoms: C21_30  and  O6_36
REMARK   16  A    between atoms: C22_32  and  C23_33
REMARK                            x       y       z     vdW  Elec       q    Type
REMARK                         _______ _______ _______ _____ _____    ______ ____
ROOT
ATOM      1  C6  <0> A   1      -3.861   5.327  49.184  0.00  0.00    +0.187 C 
ATOM      2  C7  <0> A   1      -3.976   4.913  50.658  0.00  0.00    +0.002 C 
ATOM      3  C8  <0> A   1      -3.480   6.049  51.552  0.00  0.00    -0.013 C 
ATOM      4  C9  <0> A   1      -2.013   6.340  51.221  0.00  0.00    +0.028 C 
ATOM      5  C10 <0> A   1      -1.887   6.733  49.756  0.00  0.00    +0.033 C 
ATOM      6  C11 <0> A   1      -2.401   5.608  48.846  0.00  0.00    +0.020 C 
ATOM      7  C12 <0> A   1      -2.198   6.069  47.407  0.00  0.00    -0.008 C 
ATOM      8  C13 <0> A   1      -2.962   7.345  47.089  0.00  0.00    +0.020 C 
ATOM      9  C14 <0> A   1      -3.148   8.228  48.282  0.00  0.00    -0.041 C 
ATOM     10  C15 <0> A   1      -2.671   7.979  49.463  0.00  0.00    -0.047 C 
ATOM     11  C16 <0> A   1      -4.314   7.020  46.453  0.00  0.00    +0.022 C 
ATOM     12  C24 <0> A   1      -3.597   5.634  53.020  0.00  0.00    +0.018 C 
ENDROOT
BRANCH   1  13
ATOM     13  O2  <0> A   1      -4.381   4.258  48.391  0.00  0.00    -0.337 OA
BRANCH  13  14
ATOM     14  C5  <0> A   1      -5.717   4.165  48.297  0.00  0.00    +0.467 C 
ATOM     15  O1  <0> A   1      -6.411   4.437  49.247  0.00  0.00    -0.508 OA
BRANCH  14  16
ATOM     16  C3  <0> A   1      -6.351   3.721  47.003  0.00  0.00    +0.024 C 
ATOM     17  C4  <0> A   1      -7.121   2.420  47.234  0.00  0.00    +0.058 C 
BRANCH  16  19
ATOM     18  C1  <0> A   1      -7.096   5.031  45.012  0.00  0.00    +0.023 C 
ATOM     19  C2  <0> A   1      -7.312   4.803  46.509  0.00  0.00    +0.032 C 
ENDBRANCH  16  19
ENDBRANCH  14  16
ENDBRANCH  13  14
ENDBRANCH   1  13
BRANCH   7  20
ATOM     20  C17 <0> A   1      -2.536   4.973  46.397  0.00  0.00    +0.044 C 
BRANCH  20  21
ATOM     21  C18 <0> A   1      -1.259   4.219  46.017  0.00  0.00    +0.015 C 
BRANCH  21  22
ATOM     22  C19 <0> A   1      -1.470   3.502  44.708  0.00  0.00    +0.351 C 
ATOM     23  O3  <0> A   1      -0.556   2.906  44.192  0.00  0.00    -0.430 OA
BRANCH  22  24
ATOM     24  C20 <0> A   1      -2.823   3.529  44.043  0.00  0.00    -0.020 C 
BRANCH  24  25
ATOM     25  C21 <0> A   1      -3.362   2.103  43.928  0.00  0.00    +0.241 C 
BRANCH  25  26
ATOM     26  O6  <0> A   1      -2.632   1.244  44.807  0.00  0.00    -0.532 OA
ATOM     27  H34 <0> A   1      -2.431   0.377  44.430  0.00  0.00    +0.350 HD
ENDBRANCH  25  26
BRANCH  25  28
ATOM     28  C22 <0> A   1      -4.843   2.084  44.313  0.00  0.00    -0.098 C 
BRANCH  28  29
ATOM     29  C23 <0> A   1      -5.415   0.715  44.050  0.00  0.00    +0.491 C 
ATOM     30  O4  <0> A   1      -4.675  -0.253  43.993  0.00  0.00    -0.679 OA
ATOM     31  O5  <0> A   1      -6.616   0.575  43.895  0.00  0.00    -0.713 OA
ENDBRANCH  28  29
ENDBRANCH  25  28
ENDBRANCH  24  25
ENDBRANCH  22  24
ENDBRANCH  21  22
ENDBRANCH  20  21
ENDBRANCH   7  20
TORSDOF 12
ENDMDL
MODEL 2
REMARK VINA RESULT:      -7.5     21.578     23.342
REMARK  Name = CHEMBL293944
REMARK  16 active torsions:
REMARK  status: ('A' for Active; 'I' for Inactive)
REMARK    1  A    between atoms: C1_1  and  C2_2
REMARK    2  A    between atoms: C2_2  and  C3_3
REMARK    3  A    between atoms: C3_3  and  C4_5
REMARK    4  A    between atoms: C3_3  and  C5_6
REMARK    5  A    between atoms: C5_6  and  O2_8
REMARK    6  A    between atoms: O2_8  and  C6_9
REMARK    7  A    between atoms: C8_12  and  C24_37
REMARK    8  A    between atoms: C12_18  and  C17_25
REMARK    9  A    between atoms: C13_20  and  C16_24
REMARK   10  A    between atoms: C17_25  and  C18_26
REMARK   11  A    between atoms: C18_26  and  C19_27
REMARK   12  A    between atoms: C19_27  and  C20_29
REMARK   13  A    between atoms: C20_29  and  C21_30
REMARK   14  A    between atoms: C21_30  and  C22_32
REMARK   15  A    between atoms: C21_30  and  O6_36
REMARK   16  A    between atoms: C22_32  and  C23_33
REMARK                            x       y       z     vdW  Elec       q    Type
REMARK                         _______ _______ _______ _____ _____    ______ ____
ROOT
ATOM      1  C6  <0> A   1       4.273  22.918  35.576  0.00  0.00    +0.187 C 
ATOM      2  C7  <0> A   1       4.174  23.325  37.053  0.00  0.00    +0.002 C 
ATOM      3  C8  <0> A   1       5.501  23.931  37.511  0.00  0.00    -0.013 C 
ATOM      4  C9  <0> A   1       6.608  22.886  37.347  0.00  0.00    +0.028 C 
ATOM      5  C10 <0> A   1       6.702  22.462  35.888  0.00  0.00    +0.033 C 
ATOM      6  C11 <0> A   1       5.368  21.870  35.409  0.00  0.00    +0.020 C 
ATOM      7  C12 <0> A   1       5.566  21.437  33.960  0.00  0.00    -0.008 C 
ATOM      8  C13 <0> A   1       5.943  22.596  33.051  0.00  0.00    +0.020 C 
ATOM      9  C14 <0> A   1       6.696  23.676  33.761  0.00  0.00    -0.041 C 
ATOM     10  C15 <0> A   1       7.048  23.628  35.010  0.00  0.00    -0.047 C 
ATOM     11  C16 <0> A   1       4.702  23.174  32.369  0.00  0.00    +0.022 C 
ATOM     12  C24 <0> A   1       5.399  24.337  38.983  0.00  0.00    +0.018 C 
ENDROOT
BRANCH   1  13
ATOM     13  O2  <0> A   1       3.000  22.407  35.181  0.00  0.00    -0.337 OA
BRANCH  13  14
ATOM     14  C5  <0> A   1       2.026  23.303  34.957  0.00  0.00    +0.467 C 
ATOM     15  O1  <0> A   1       2.143  24.113  34.068  0.00  0.00    -0.508 OA
BRANCH  14  16
ATOM     16  C3  <0> A   1       0.787  23.299  35.814  0.00  0.00    +0.024 C 
ATOM     17  C4  <0> A   1       0.139  24.685  35.781  0.00  0.00    +0.058 C 
BRANCH  16  19
ATOM     18  C1  <0> A   1      -1.309  22.033  36.308  0.00  0.00    +0.023 C 
ATOM     19  C2  <0> A   1      -0.200  22.260  35.279  0.00  0.00    +0.032 C 
ENDBRANCH  16  19
ENDBRANCH  14  16
ENDBRANCH  13  14
ENDBRANCH   1  13
BRANCH   7  20
ATOM     20  C17 <0> A   1       4.350  20.694  33.409  0.00  0.00    +0.044 C 
BRANCH  20  21
ATOM     21  C18 <0> A   1       4.781  19.314  32.907  0.00  0.00    +0.015 C 
BRANCH  21  22
ATOM     22  C19 <0> A   1       4.634  19.258  31.407  0.00  0.00    +0.351 C 
ATOM     23  O3  <0> A   1       4.084  20.158  30.820  0.00  0.00    -0.430 OA
BRANCH  22  24
ATOM     24  C20 <0> A   1       5.173  18.076  30.641  0.00  0.00    -0.020 C 
BRANCH  24  25
ATOM     25  C21 <0> A   1       4.104  17.566  29.674  0.00  0.00    +0.241 C 
BRANCH  25  26
ATOM     26  O6  <0> A   1       4.085  18.390  28.506  0.00  0.00    -0.532 OA
ATOM     27  H34 <0> A   1       4.703  19.133  28.540  0.00  0.00    +0.350 HD
ENDBRANCH  25  26
BRANCH  25  28
ATOM     28  C22 <0> A   1       4.424  16.124  29.274  0.00  0.00    -0.098 C 
BRANCH  28  29
ATOM     29  C23 <0> A   1       4.727  16.066  27.800  0.00  0.00    +0.491 C 
ATOM     30  O4  <0> A   1       5.883  16.101  27.414  0.00  0.00    -0.679 OA
ATOM     31  O5  <0> A   1       3.817  15.982  26.993  0.00  0.00    -0.713 OA
ENDBRANCH  28  29
ENDBRANCH  25  28
ENDBRANCH  24  25
ENDBRANCH  22  24
ENDBRANCH  21  22
ENDBRANCH  20  21
ENDBRANCH   7  20
TORSDOF 12
ENDMDL
MODEL 3
REMARK VINA RESULT:      -7.2      9.268     11.998
REMARK  Name = CHEMBL293944
REMARK  16 active torsions:
REMARK  status: ('A' for Active; 'I' for Inactive)
REMARK    1  A    between atoms: C1_1  and  C2_2
REMARK    2  A    between atoms: C2_2  and  C3_3
REMARK    3  A    between atoms: C3_3  and  C4_5
REMARK    4  A    between atoms: C3_3  and  C5_6
REMARK    5  A    between atoms: C5_6  and  O2_8
REMARK    6  A    between atoms: O2_8  and  C6_9
REMARK    7  A    between atoms: C8_12  and  C24_37
REMARK    8  A    between atoms: C12_18  and  C17_25
REMARK    9  A    between atoms: C13_20  and  C16_24
REMARK   10  A    between atoms: C17_25  and  C18_26
REMARK   11  A    between atoms: C18_26  and  C19_27
REMARK   12  A    between atoms: C19_27  and  C20_29
REMARK   13  A    between atoms: C20_29  and  C21_30
REMARK   14  A    between atoms: C21_30  and  C22_32
REMARK   15  A    between atoms: C21_30  and  O6_36
REMARK   16  A    between atoms: C22_32  and  C23_33
REMARK                            x       y       z     vdW  Elec       q    Type
REMARK                         _______ _______ _______ _____ _____    ______ ____
ROOT
ATOM      1  C6  <0> A   1     -13.444   9.845  44.152  0.00  0.00    +0.187 C 
ATOM      2  C7  <0> A   1     -14.125  11.077  44.765  0.00  0.00    +0.002 C 
ATOM      3  C8  <0> A   1     -13.610  11.297  46.187  0.00  0.00    -0.013 C 
ATOM      4  C9  <0> A   1     -13.939  10.063  47.032  0.00  0.00    +0.028 C 
ATOM      5  C10 <0> A   1     -13.283   8.833  46.422  0.00  0.00    +0.033 C 
ATOM      6  C11 <0> A   1     -13.777   8.612  44.985  0.00  0.00    +0.020 C 
ATOM      7  C12 <0> A   1     -13.104   7.344  44.471  0.00  0.00    -0.008 C 
ATOM      8  C13 <0> A   1     -11.587   7.452  44.458  0.00  0.00    +0.020 C 
ATOM      9  C14 <0> A   1     -11.057   8.367  45.515  0.00  0.00    -0.041 C 
ATOM     10  C15 <0> A   1     -11.790   8.976  46.396  0.00  0.00    -0.047 C 
ATOM     11  C16 <0> A   1     -11.089   7.887  43.079  0.00  0.00    +0.022 C 
ATOM     12  C24 <0> A   1     -14.290  12.526  46.794  0.00  0.00    +0.018 C 
ENDROOT
BRANCH   1  13
ATOM     13  O2  <0> A   1     -13.917   9.710  42.811  0.00  0.00    -0.337 OA
BRANCH  13  14
ATOM     14  C5  <0> A   1     -13.208  10.324  41.851  0.00  0.00    +0.467 C 
ATOM     15  O1  <0> A   1     -12.329  11.097  42.149  0.00  0.00    -0.508 OA
BRANCH  14  16
ATOM     16  C3  <0> A   1     -13.508  10.048  40.400  0.00  0.00    +0.024 C 
ATOM     17  C4  <0> A   1     -12.762  11.056  39.524  0.00  0.00    +0.058 C 
BRANCH  16  19
ATOM     18  C1  <0> A   1     -12.404   8.634  38.662  0.00  0.00    +0.023 C 
ATOM     19  C2  <0> A   1     -13.056   8.630  40.046  0.00  0.00    +0.032 C 
ENDBRANCH  16  19
ENDBRANCH  14  16
ENDBRANCH  13  14
ENDBRANCH   1  13
BRANCH   7  20
ATOM     20  C17 <0> A   1     -13.627   6.930  43.096  0.00  0.00    +0.044 C 
BRANCH  20  21
ATOM     21  C18 <0> A   1     -15.023   6.322  43.244  0.00  0.00    +0.015 C 
BRANCH  21  22
ATOM     22  C19 <0> A   1     -14.903   4.902  43.735  0.00  0.00    +0.351 C 
ATOM     23  O3  <0> A   1     -14.005   4.200  43.339  0.00  0.00    -0.430 OA
BRANCH  22  24
ATOM     24  C20 <0> A   1     -15.905   4.359  44.722  0.00  0.00    -0.020 C 
BRANCH  24  25
ATOM     25  C21 <0> A   1     -15.306   4.397  46.129  0.00  0.00    +0.241 C 
BRANCH  25  26
ATOM     26  O6  <0> A   1     -13.902   4.142  46.057  0.00  0.00    -0.532 OA
ATOM     27  H34 <0> A   1     -13.442   4.236  46.902  0.00  0.00    +0.350 HD
ENDBRANCH  25  26
BRANCH  25  28
ATOM     28  C22 <0> A   1     -15.543   5.776  46.747  0.00  0.00    -0.098 C 
BRANCH  28  29
ATOM     29  C23 <0> A   1     -16.970   5.878  47.220  0.00  0.00    +0.491 C 
ATOM     30  O4  <0> A   1     -17.795   6.467  46.542  0.00  0.00    -0.679 OA
ATOM     31  O5  <0> A   1     -17.299   5.371  48.279  0.00  0.00    -0.713 OA
ENDBRANCH  28  29
ENDBRANCH  25  28
ENDBRANCH  24  25
ENDBRANCH  22  24
ENDBRANCH  21  22
ENDBRANCH  20  21
ENDBRANCH   7  20
TORSDOF 12
ENDMDL
MODEL 4
REMARK VINA RESULT:      -7.2      1.586      4.152
REMARK  Name = CHEMBL293944
REMARK  16 active torsions:
REMARK  status: ('A' for Active; 'I' for Inactive)
REMARK    1  A    between atoms: C1_1  and  C2_2
REMARK    2  A    between atoms: C2_2  and  C3_3
REMARK    3  A    between atoms: C3_3  and  C4_5
REMARK    4  A    between atoms: C3_3  and  C5_6
REMARK    5  A    between atoms: C5_6  and  O2_8
REMARK    6  A    between atoms: O2_8  and  C6_9
REMARK    7  A    between atoms: C8_12  and  C24_37
REMARK    8  A    between atoms: C12_18  and  C17_25
REMARK    9  A    between atoms: C13_20  and  C16_24
REMARK   10  A    between atoms: C17_25  and  C18_26
REMARK   11  A    between atoms: C18_26  and  C19_27
REMARK   12  A    between atoms: C19_27  and  C20_29
REMARK   13  A    between atoms: C20_29  and  C21_30
REMARK   14  A    between atoms: C21_30  and  C22_32
REMARK   15  A    between atoms: C21_30  and  O6_36
REMARK   16  A    between atoms: C22_32  and  C23_33
REMARK                            x       y       z     vdW  Elec       q    Type
REMARK                         _______ _______ _______ _____ _____    ______ ____
ROOT
ATOM      1  C6  <0> A   1      -5.261   4.669  48.419  0.00  0.00    +0.187 C 
ATOM      2  C7  <0> A   1      -4.170   4.978  49.455  0.00  0.00    +0.002 C 
ATOM      3  C8  <0> A   1      -3.416   6.243  49.046  0.00  0.00    -0.013 C 
ATOM      4  C9  <0> A   1      -2.766   6.016  47.679  0.00  0.00    +0.028 C 
ATOM      5  C10 <0> A   1      -3.838   5.691  46.649  0.00  0.00    +0.033 C 
ATOM      6  C11 <0> A   1      -4.618   4.433  47.057  0.00  0.00    +0.020 C 
ATOM      7  C12 <0> A   1      -5.635   4.160  45.954  0.00  0.00    -0.008 C 
ATOM      8  C13 <0> A   1      -6.617   5.307  45.769  0.00  0.00    +0.020 C 
ATOM      9  C14 <0> A   1      -6.035   6.638  46.125  0.00  0.00    -0.041 C 
ATOM     10  C15 <0> A   1      -4.808   6.827  46.505  0.00  0.00    -0.047 C 
ATOM     11  C16 <0> A   1      -7.897   5.057  46.567  0.00  0.00    +0.022 C 
ATOM     12  C24 <0> A   1      -2.330   6.549  50.081  0.00  0.00    +0.018 C 
ENDROOT
BRANCH   1  13
ATOM     13  O2  <0> A   1      -5.970   3.513  48.867  0.00  0.00    -0.337 OA
BRANCH  13  14
ATOM     14  C5  <0> A   1      -6.819   3.679  49.893  0.00  0.00    +0.467 C 
ATOM     15  O1  <0> A   1      -7.656   4.549  49.851  0.00  0.00    -0.508 OA
BRANCH  14  16
ATOM     16  C3  <0> A   1      -6.728   2.779  51.099  0.00  0.00    +0.024 C 
ATOM     17  C4  <0> A   1      -5.756   1.635  50.809  0.00  0.00    +0.058 C 
BRANCH  16  19
ATOM     18  C1  <0> A   1      -4.802   3.147  52.647  0.00  0.00    +0.023 C 
ATOM     19  C2  <0> A   1      -6.226   3.585  52.299  0.00  0.00    +0.032 C 
ENDBRANCH  16  19
ENDBRANCH  14  16
ENDBRANCH  13  14
ENDBRANCH   1  13
BRANCH   7  20
ATOM     20  C17 <0> A   1      -6.381   2.843  46.170  0.00  0.00    +0.044 C 
BRANCH  20  21
ATOM     21  C18 <0> A   1      -6.533   2.120  44.830  0.00  0.00    +0.015 C 
BRANCH  21  22
ATOM     22  C19 <0> A   1      -5.307   1.282  44.570  0.00  0.00    +0.351 C 
ATOM     23  O3  <0> A   1      -5.233   0.164  45.021  0.00  0.00    -0.430 OA
BRANCH  22  24
ATOM     24  C20 <0> A   1      -4.174   1.839  43.747  0.00  0.00    -0.020 C 
BRANCH  24  25
ATOM     25  C21 <0> A   1      -3.022   2.238  44.671  0.00  0.00    +0.241 C 
BRANCH  25  26
ATOM     26  O6  <0> A   1      -2.220   1.090  44.957  0.00  0.00    -0.532 OA
ATOM     27  H34 <0> A   1      -2.280   0.788  45.874  0.00  0.00    +0.350 HD
ENDBRANCH  25  26
BRANCH  25  28
ATOM     28  C22 <0> A   1      -2.162   3.302  43.984  0.00  0.00    -0.098 C 
BRANCH  28  29
ATOM     29  C23 <0> A   1      -0.838   3.415  44.696  0.00  0.00    +0.491 C 
ATOM     30  O4  <0> A   1       0.019   2.565  44.526  0.00  0.00    -0.679 OA
ATOM     31  O5  <0> A   1      -0.626   4.357  45.440  0.00  0.00    -0.713 OA
ENDBRANCH  28  29
ENDBRANCH  25  28
ENDBRANCH  24  25
ENDBRANCH  22  24
ENDBRANCH  21  22
ENDBRANCH  20  21
ENDBRANCH   7  20
TORSDOF 12
ENDMDL
MODEL 5
REMARK VINA RESULT:      -7.1     32.692     35.128
REMARK  Name = CHEMBL293944
REMARK  16 active torsions:
REMARK  status: ('A' for Active; 'I' for Inactive)
REMARK    1  A    between atoms: C1_1  and  C2_2
REMARK    2  A    between atoms: C2_2  and  C3_3
REMARK    3  A    between atoms: C3_3  and  C4_5
REMARK    4  A    between atoms: C3_3  and  C5_6
REMARK    5  A    between atoms: C5_6  and  O2_8
REMARK    6  A    between atoms: O2_8  and  C6_9
REMARK    7  A    between atoms: C8_12  and  C24_37
REMARK    8  A    between atoms: C12_18  and  C17_25
REMARK    9  A    between atoms: C13_20  and  C16_24
REMARK   10  A    between atoms: C17_25  and  C18_26
REMARK   11  A    between atoms: C18_26  and  C19_27
REMARK   12  A    between atoms: C19_27  and  C20_29
REMARK   13  A    between atoms: C20_29  and  C21_30
REMARK   14  A    between atoms: C21_30  and  C22_32
REMARK   15  A    between atoms: C21_30  and  O6_36
REMARK   16  A    between atoms: C22_32  and  C23_33
REMARK                            x       y       z     vdW  Elec       q    Type
REMARK                         _______ _______ _______ _____ _____    ______ ____
ROOT
ATOM      1  C6  <0> A   1     -29.930  22.956  36.024  0.00  0.00    +0.187 C 
ATOM      2  C7  <0> A   1     -28.410  23.170  36.072  0.00  0.00    +0.002 C 
ATOM      3  C8  <0> A   1     -27.970  24.011  34.873  0.00  0.00    -0.013 C 
ATOM      4  C9  <0> A   1     -28.337  23.270  33.584  0.00  0.00    +0.028 C 
ATOM      5  C10 <0> A   1     -29.840  23.037  33.536  0.00  0.00    +0.033 C 
ATOM      6  C11 <0> A   1     -30.299  22.210  34.746  0.00  0.00    +0.020 C 
ATOM      7  C12 <0> A   1     -31.800  21.991  34.594  0.00  0.00    -0.008 C 
ATOM      8  C13 <0> A   1     -32.581  23.295  34.567  0.00  0.00    +0.020 C 
ATOM      9  C14 <0> A   1     -31.793  24.436  34.005  0.00  0.00    -0.041 C 
ATOM     10  C15 <0> A   1     -30.587  24.338  33.537  0.00  0.00    -0.047 C 
ATOM     11  C16 <0> A   1     -33.101  23.644  35.962  0.00  0.00    +0.022 C 
ATOM     12  C24 <0> A   1     -26.455  24.223  34.924  0.00  0.00    +0.018 C 
ENDROOT
BRANCH   1  13
ATOM     13  O2  <0> A   1     -30.300  22.212  37.186  0.00  0.00    -0.337 OA
BRANCH  13  14
ATOM     14  C5  <0> A   1     -30.366  22.886  38.344  0.00  0.00    +0.467 C 
ATOM     15  O1  <0> A   1     -29.860  22.428  39.341  0.00  0.00    -0.508 OA
BRANCH  14  16
ATOM     16  C3  <0> A   1     -31.073  24.216  38.402  0.00  0.00    +0.024 C 
ATOM     17  C4  <0> A   1     -32.025  24.236  39.599  0.00  0.00    +0.058 C 
BRANCH  16  19
ATOM     18  C1  <0> A   1     -30.154  26.294  37.364  0.00  0.00    +0.023 C 
ATOM     19  C2  <0> A   1     -30.041  25.336  38.551  0.00  0.00    +0.032 C 
ENDBRANCH  16  19
ENDBRANCH  14  16
ENDBRANCH  13  14
ENDBRANCH   1  13
BRANCH   7  20
ATOM     20  C17 <0> A   1     -32.357  21.052  35.664  0.00  0.00    +0.044 C 
BRANCH  20  21
ATOM     21  C18 <0> A   1     -33.668  20.436  35.169  0.00  0.00    +0.015 C 
BRANCH  21  22
ATOM     22  C19 <0> A   1     -33.370  19.416  34.100  0.00  0.00    +0.351 C 
ATOM     23  O3  <0> A   1     -32.806  18.387  34.387  0.00  0.00    -0.430 OA
BRANCH  22  24
ATOM     24  C20 <0> A   1     -33.775  19.680  32.672  0.00  0.00    -0.020 C 
BRANCH  24  25
ATOM     25  C21 <0> A   1     -32.526  19.758  31.794  0.00  0.00    +0.241 C 
BRANCH  25  26
ATOM     26  O6  <0> A   1     -31.903  18.472  31.734  0.00  0.00    -0.532 OA
ATOM     27  H34 <0> A   1     -32.213  17.920  31.003  0.00  0.00    +0.350 HD
ENDBRANCH  25  26
BRANCH  25  28
ATOM     28  C22 <0> A   1     -32.920  20.198  30.382  0.00  0.00    -0.098 C 
BRANCH  28  29
ATOM     29  C23 <0> A   1     -32.740  19.047  29.427  0.00  0.00    +0.491 C 
ATOM     30  O4  <0> A   1     -31.713  18.951  28.777  0.00  0.00    -0.679 OA
ATOM     31  O5  <0> A   1     -33.620  18.212  29.306  0.00  0.00    -0.713 OA
ENDBRANCH  28  29
ENDBRANCH  25  28
ENDBRANCH  24  25
ENDBRANCH  22  24
ENDBRANCH  21  22
ENDBRANCH  20  21
ENDBRANCH   7  20
TORSDOF 12
ENDMDL
MODEL 6
REMARK VINA RESULT:      -7.1     32.333     34.299
REMARK  Name = CHEMBL293944
REMARK  16 active torsions:
REMARK  status: ('A' for Active; 'I' for Inactive)
REMARK    1  A    between atoms: C1_1  and  C2_2
REMARK    2  A    between atoms: C2_2  and  C3_3
REMARK    3  A    between atoms: C3_3  and  C4_5
REMARK    4  A    between atoms: C3_3  and  C5_6
REMARK    5  A    between atoms: C5_6  and  O2_8
REMARK    6  A    between atoms: O2_8  and  C6_9
REMARK    7  A    between atoms: C8_12  and  C24_37
REMARK    8  A    between atoms: C12_18  and  C17_25
REMARK    9  A    between atoms: C13_20  and  C16_24
REMARK   10  A    between atoms: C17_25  and  C18_26
REMARK   11  A    between atoms: C18_26  and  C19_27
REMARK   12  A    between atoms: C19_27  and  C20_29
REMARK   13  A    between atoms: C20_29  and  C21_30
REMARK   14  A    between atoms: C21_30  and  C22_32
REMARK   15  A    between atoms: C21_30  and  O6_36
REMARK   16  A    between atoms: C22_32  and  C23_33
REMARK                            x       y       z     vdW  Elec       q    Type
REMARK                         _______ _______ _______ _____ _____    ______ ____
ROOT
ATOM      1  C6  <0> A   1     -31.547  21.708  35.615  0.00  0.00    +0.187 C 
ATOM      2  C7  <0> A   1     -32.365  20.613  36.314  0.00  0.00    +0.002 C 
ATOM      3  C8  <0> A   1     -33.131  21.214  37.492  0.00  0.00    -0.013 C 
ATOM      4  C9  <0> A   1     -32.129  21.810  38.485  0.00  0.00    +0.028 C 
ATOM      5  C10 <0> A   1     -31.301  22.885  37.795  0.00  0.00    +0.033 C 
ATOM      6  C11 <0> A   1     -30.541  22.298  36.596  0.00  0.00    +0.020 C 
ATOM      7  C12 <0> A   1     -29.712  23.428  35.997  0.00  0.00    -0.008 C 
ATOM      8  C13 <0> A   1     -30.568  24.589  35.514  0.00  0.00    +0.020 C 
ATOM      9  C14 <0> A   1     -31.838  24.741  36.290  0.00  0.00    -0.041 C 
ATOM     10  C15 <0> A   1     -32.172  24.004  37.306  0.00  0.00    -0.047 C 
ATOM     11  C16 <0> A   1     -30.871  24.453  34.022  0.00  0.00    +0.022 C 
ATOM     12  C24 <0> A   1     -33.945  20.120  38.186  0.00  0.00    +0.018 C 
ENDROOT
BRANCH   1  13
ATOM     13  O2  <0> A   1     -30.891  21.111  34.495  0.00  0.00    -0.337 OA
BRANCH  13  14
ATOM     14  C5  <0> A   1     -31.675  20.604  33.529  0.00  0.00    +0.467 C 
ATOM     15  O1  <0> A   1     -32.226  21.342  32.748  0.00  0.00    -0.508 OA
BRANCH  14  16
ATOM     16  C3  <0> A   1     -31.865  19.113  33.421  0.00  0.00    +0.024 C 
ATOM     17  C4  <0> A   1     -33.335  18.768  33.667  0.00  0.00    +0.058 C 
BRANCH  16  19
ATOM     18  C1  <0> A   1     -30.092  17.965  32.088  0.00  0.00    +0.023 C 
ATOM     19  C2  <0> A   1     -31.459  18.648  32.021  0.00  0.00    +0.032 C 
ENDBRANCH  16  19
ENDBRANCH  14  16
ENDBRANCH  13  14
ENDBRANCH   1  13
BRANCH   7  20
ATOM     20  C17 <0> A   1     -28.791  22.938  34.880  0.00  0.00    +0.044 C 
BRANCH  20  21
ATOM     21  C18 <0> A   1     -27.371  22.772  35.426  0.00  0.00    +0.015 C 
BRANCH  21  22
ATOM     22  C19 <0> A   1     -26.587  24.035  35.176  0.00  0.00    +0.351 C 
ATOM     23  O3  <0> A   1     -26.697  24.973  35.929  0.00  0.00    -0.430 OA
BRANCH  22  24
ATOM     24  C20 <0> A   1     -25.665  24.127  33.986  0.00  0.00    -0.020 C 
BRANCH  24  25
ATOM     25  C21 <0> A   1     -26.445  24.648  32.778  0.00  0.00    +0.241 C 
BRANCH  25  26
ATOM     26  O6  <0> A   1     -25.720  25.718  32.168  0.00  0.00    -0.532 OA
ATOM     27  H34 <0> A   1     -25.703  25.680  31.202  0.00  0.00    +0.350 HD
ENDBRANCH  25  26
BRANCH  25  28
ATOM     28  C22 <0> A   1     -26.630  23.516  31.764  0.00  0.00    -0.098 C 
BRANCH  28  29
ATOM     29  C23 <0> A   1     -25.726  23.747  30.581  0.00  0.00    +0.491 C 
ATOM     30  O4  <0> A   1     -26.177  24.223  29.554  0.00  0.00    -0.679 OA
ATOM     31  O5  <0> A   1     -24.544  23.457  30.653  0.00  0.00    -0.713 OA
ENDBRANCH  28  29
ENDBRANCH  25  28
ENDBRANCH  24  25
ENDBRANCH  22  24
ENDBRANCH  21  22
ENDBRANCH  20  21
ENDBRANCH   7  20
TORSDOF 12
ENDMDL
MODEL 7
REMARK VINA RESULT:      -7.1      9.559     12.327
REMARK  Name = CHEMBL293944
REMARK  16 active torsions:
REMARK  status: ('A' for Active; 'I' for Inactive)
REMARK    1  A    between atoms: C1_1  and  C2_2
REMARK    2  A    between atoms: C2_2  and  C3_3
REMARK    3  A    between atoms: C3_3  and  C4_5
REMARK    4  A    between atoms: C3_3  and  C5_6
REMARK    5  A    between atoms: C5_6  and  O2_8
REMARK    6  A    between atoms: O2_8  and  C6_9
REMARK    7  A    between atoms: C8_12  and  C24_37
REMARK    8  A    between atoms: C12_18  and  C17_25
REMARK    9  A    between atoms: C13_20  and  C16_24
REMARK   10  A    between atoms: C17_25  and  C18_26
REMARK   11  A    between atoms: C18_26  and  C19_27
REMARK   12  A    between atoms: C19_27  and  C20_29
REMARK   13  A    between atoms: C20_29  and  C21_30
REMARK   14  A    between atoms: C21_30  and  C22_32
REMARK   15  A    between atoms: C21_30  and  O6_36
REMARK   16  A    between atoms: C22_32  and  C23_33
REMARK                            x       y       z     vdW  Elec       q    Type
REMARK                         _______ _______ _______ _____ _____    ______ ____
ROOT
ATOM      1  C6  <0> A   1     -14.975   8.356  46.746  0.00  0.00    +0.187 C 
ATOM      2  C7  <0> A   1     -16.492   8.347  46.985  0.00  0.00    +0.002 C 
ATOM      3  C8  <0> A   1     -16.943   6.941  47.380  0.00  0.00    -0.013 C 
ATOM      4  C9  <0> A   1     -16.602   5.970  46.245  0.00  0.00    +0.028 C 
ATOM      5  C10 <0> A   1     -15.102   5.986  45.989  0.00  0.00    +0.033 C 
ATOM      6  C11 <0> A   1     -14.632   7.398  45.610  0.00  0.00    +0.020 C 
ATOM      7  C12 <0> A   1     -13.135   7.311  45.333  0.00  0.00    -0.008 C 
ATOM      8  C13 <0> A   1     -12.343   6.839  46.542  0.00  0.00    +0.020 C 
ATOM      9  C14 <0> A   1     -13.130   5.936  47.439  0.00  0.00    -0.041 C 
ATOM     10  C15 <0> A   1     -14.344   5.542  47.205  0.00  0.00    -0.047 C 
ATOM     11  C16 <0> A   1     -11.799   8.030  47.331  0.00  0.00    +0.022 C 
ATOM     12  C24 <0> A   1     -18.454   6.935  47.618  0.00  0.00    +0.018 C 
ENDROOT
BRANCH   1  13
ATOM     13  O2  <0> A   1     -14.594   9.695  46.430  0.00  0.00    -0.337 OA
BRANCH  13  14
ATOM     14  C5  <0> A   1     -14.461  10.549  47.457  0.00  0.00    +0.467 C 
ATOM     15  O1  <0> A   1     -14.242  10.129  48.568  0.00  0.00    -0.508 OA
BRANCH  14  16
ATOM     16  C3  <0> A   1     -14.586  12.033  47.224  0.00  0.00    +0.024 C 
ATOM     17  C4  <0> A   1     -15.757  12.581  48.041  0.00  0.00    +0.058 C 
BRANCH  16  19
ATOM     18  C1  <0> A   1     -12.239  12.567  46.557  0.00  0.00    +0.023 C 
ATOM     19  C2  <0> A   1     -13.293  12.727  47.655  0.00  0.00    +0.032 C 
ENDBRANCH  16  19
ENDBRANCH  14  16
ENDBRANCH  13  14
ENDBRANCH   1  13
BRANCH   7  20
ATOM     20  C17 <0> A   1     -12.570   8.627  44.800  0.00  0.00    +0.044 C 
BRANCH  20  21
ATOM     21  C18 <0> A   1     -11.625   8.339  43.631  0.00  0.00    +0.015 C 
BRANCH  21  22
ATOM     22  C19 <0> A   1     -12.388   8.431  42.334  0.00  0.00    +0.351 C 
ATOM     23  O3  <0> A   1     -12.106   7.702  41.415  0.00  0.00    -0.430 OA
BRANCH  22  24
ATOM     24  C20 <0> A   1     -13.504   9.434  42.186  0.00  0.00    -0.020 C 
BRANCH  24  25
ATOM     25  C21 <0> A   1     -12.935  10.756  41.670  0.00  0.00    +0.241 C 
BRANCH  25  26
ATOM     26  O6  <0> A   1     -11.567  10.574  41.298  0.00  0.00    -0.532 OA
ATOM     27  H34 <0> A   1     -11.421   9.840  40.687  0.00  0.00    +0.350 HD
ENDBRANCH  25  26
BRANCH  25  28
ATOM     28  C22 <0> A   1     -13.738  11.215  40.450  0.00  0.00    -0.098 C 
BRANCH  28  29
ATOM     29  C23 <0> A   1     -12.878  11.118  39.216  0.00  0.00    +0.491 C 
ATOM     30  O4  <0> A   1     -12.419  12.129  38.712  0.00  0.00    -0.679 OA
ATOM     31  O5  <0> A   1     -12.642  10.028  38.723  0.00  0.00    -0.713 OA
ENDBRANCH  28  29
ENDBRANCH  25  28
ENDBRANCH  24  25
ENDBRANCH  22  24
ENDBRANCH  21  22
ENDBRANCH  20  21
ENDBRANCH   7  20
TORSDOF 12
ENDMDL
MODEL 8
REMARK VINA RESULT:      -7.0      9.451     11.445
REMARK  Name = CHEMBL293944
REMARK  16 active torsions:
REMARK  status: ('A' for Active; 'I' for Inactive)
REMARK    1  A    between atoms: C1_1  and  C2_2
REMARK    2  A    between atoms: C2_2  and  C3_3
REMARK    3  A    between atoms: C3_3  and  C4_5
REMARK    4  A    between atoms: C3_3  and  C5_6
REMARK    5  A    between atoms: C5_6  and  O2_8
REMARK    6  A    between atoms: O2_8  and  C6_9
REMARK    7  A    between atoms: C8_12  and  C24_37
REMARK    8  A    between atoms: C12_18  and  C17_25
REMARK    9  A    between atoms: C13_20  and  C16_24
REMARK   10  A    between atoms: C17_25  and  C18_26
REMARK   11  A    between atoms: C18_26  and  C19_27
REMARK   12  A    between atoms: C19_27  and  C20_29
REMARK   13  A    between atoms: C20_29  and  C21_30
REMARK   14  A    between atoms: C21_30  and  C22_32
REMARK   15  A    between atoms: C21_30  and  O6_36
REMARK   16  A    between atoms: C22_32  and  C23_33
REMARK                            x       y       z     vdW  Elec       q    Type
REMARK                         _______ _______ _______ _____ _____    ______ ____
ROOT
ATOM      1  C6  <0> A   1     -13.219   9.785  47.224  0.00  0.00    +0.187 C 
ATOM      2  C7  <0> A   1     -12.925   9.707  48.729  0.00  0.00    +0.002 C 
ATOM      3  C8  <0> A   1     -12.216  10.983  49.182  0.00  0.00    -0.013 C 
ATOM      4  C9  <0> A   1     -10.898  11.120  48.416  0.00  0.00    +0.028 C 
ATOM      5  C10 <0> A   1     -11.178  11.180  46.921  0.00  0.00    +0.033 C 
ATOM      6  C11 <0> A   1     -11.909   9.912  46.455  0.00  0.00    +0.020 C 
ATOM      7  C12 <0> A   1     -12.109  10.039  44.949  0.00  0.00    -0.008 C 
ATOM      8  C13 <0> A   1     -12.944  11.252  44.571  0.00  0.00    +0.020 C 
ATOM      9  C14 <0> A   1     -12.808  12.381  45.543  0.00  0.00    -0.041 C 
ATOM     10  C15 <0> A   1     -12.025  12.370  46.579  0.00  0.00    -0.047 C 
ATOM     11  C16 <0> A   1     -14.415  10.867  44.408  0.00  0.00    +0.022 C 
ATOM     12  C24 <0> A   1     -11.926  10.903  50.683  0.00  0.00    +0.018 C 
ENDROOT
BRANCH   1  13
ATOM     13  O2  <0> A   1     -13.923   8.597  46.858  0.00  0.00    -0.337 OA
BRANCH  13  14
ATOM     14  C5  <0> A   1     -15.248   8.585  47.074  0.00  0.00    +0.467 C 
ATOM     15  O1  <0> A   1     -15.845   9.623  47.233  0.00  0.00    -0.508 OA
BRANCH  14  16
ATOM     16  C3  <0> A   1     -15.992   7.274  47.118  0.00  0.00    +0.024 C 
ATOM     17  C4  <0> A   1     -17.478   7.522  46.855  0.00  0.00    +0.058 C 
BRANCH  16  19
ATOM     18  C1  <0> A   1     -16.571   5.864  45.139  0.00  0.00    +0.023 C 
ATOM     19  C2  <0> A   1     -15.433   6.336  46.046  0.00  0.00    +0.032 C 
ENDBRANCH  16  19
ENDBRANCH  14  16
ENDBRANCH  13  14
ENDBRANCH   1  13
BRANCH   7  20
ATOM     20  C17 <0> A   1     -12.697   8.768  44.336  0.00  0.00    +0.044 C 
BRANCH  20  21
ATOM     21  C18 <0> A   1     -11.601   8.011  43.583  0.00  0.00    +0.015 C 
BRANCH  21  22
ATOM     22  C19 <0> A   1     -12.084   7.677  42.195  0.00  0.00    +0.351 C 
ATOM     23  O3  <0> A   1     -11.618   6.732  41.605  0.00  0.00    -0.430 OA
BRANCH  22  24
ATOM     24  C20 <0> A   1     -13.149   8.522  41.544  0.00  0.00    -0.020 C 
BRANCH  24  25
ATOM     25  C21 <0> A   1     -12.488   9.628  40.720  0.00  0.00    +0.241 C 
BRANCH  25  26
ATOM     26  O6  <0> A   1     -12.524   9.278  39.335  0.00  0.00    -0.532 OA
ATOM     27  H34 <0> A   1     -11.972   8.517  39.107  0.00  0.00    +0.350 HD
ENDBRANCH  25  26
BRANCH  25  28
ATOM     28  C22 <0> A   1     -13.243  10.942  40.932  0.00  0.00    -0.098 C 
BRANCH  28  29
ATOM     29  C23 <0> A   1     -13.908  11.355  39.645  0.00  0.00    +0.491 C 
ATOM     30  O4  <0> A   1     -13.275  11.966  38.801  0.00  0.00    -0.679 OA
ATOM     31  O5  <0> A   1     -15.078  11.076  39.447  0.00  0.00    -0.713 OA
ENDBRANCH  28  29
ENDBRANCH  25  28
ENDBRANCH  24  25
ENDBRANCH  22  24
ENDBRANCH  21  22
ENDBRANCH  20  21
ENDBRANCH   7  20
TORSDOF 12
ENDMDL
MODEL 9
REMARK VINA RESULT:      -6.9      3.680      6.375
REMARK  Name = CHEMBL293944
REMARK  16 active torsions:
REMARK  status: ('A' for Active; 'I' for Inactive)
REMARK    1  A    between atoms: C1_1  and  C2_2
REMARK    2  A    between atoms: C2_2  and  C3_3
REMARK    3  A    between atoms: C3_3  and  C4_5
REMARK    4  A    between atoms: C3_3  and  C5_6
REMARK    5  A    between atoms: C5_6  and  O2_8
REMARK    6  A    between atoms: O2_8  and  C6_9
REMARK    7  A    between atoms: C8_12  and  C24_37
REMARK    8  A    between atoms: C12_18  and  C17_25
REMARK    9  A    between atoms: C13_20  and  C16_24
REMARK   10  A    between atoms: C17_25  and  C18_26
REMARK   11  A    between atoms: C18_26  and  C19_27
REMARK   12  A    between atoms: C19_27  and  C20_29
REMARK   13  A    between atoms: C20_29  and  C21_30
REMARK   14  A    between atoms: C21_30  and  C22_32
REMARK   15  A    between atoms: C21_30  and  O6_36
REMARK   16  A    between atoms: C22_32  and  C23_33
REMARK                            x       y       z     vdW  Elec       q    Type
REMARK                         _______ _______ _______ _____ _____    ______ ____
ROOT
ATOM      1  C6  <0> A   1      -1.607   9.489  51.682  0.00  0.00    +0.187 C 
ATOM      2  C7  <0> A   1      -1.622  10.730  52.585  0.00  0.00    +0.002 C 
ATOM      3  C8  <0> A   1      -2.540  10.485  53.783  0.00  0.00    -0.013 C 
ATOM      4  C9  <0> A   1      -3.959  10.210  53.275  0.00  0.00    +0.028 C 
ATOM      5  C10 <0> A   1      -3.950   8.992  52.364  0.00  0.00    +0.033 C 
ATOM      6  C11 <0> A   1      -3.016   9.217  51.166  0.00  0.00    +0.020 C 
ATOM      7  C12 <0> A   1      -3.103   7.972  50.290  0.00  0.00    -0.008 C 
ATOM      8  C13 <0> A   1      -2.666   6.712  51.023  0.00  0.00    +0.020 C 
ATOM      9  C14 <0> A   1      -2.917   6.776  52.496  0.00  0.00    -0.041 C 
ATOM     10  C15 <0> A   1      -3.491   7.769  53.102  0.00  0.00    -0.047 C 
ATOM     11  C16 <0> A   1      -1.193   6.409  50.746  0.00  0.00    +0.022 C 
ATOM     12  C24 <0> A   1      -2.552  11.723  54.682  0.00  0.00    +0.018 C 
ENDROOT
BRANCH   1  13
ATOM     13  O2  <0> A   1      -0.701   9.746  50.608  0.00  0.00    -0.337 OA
BRANCH  13  14
ATOM     14  C5  <0> A   1       0.589   9.929  50.930  0.00  0.00    +0.467 C 
ATOM     15  O1  <0> A   1       1.178  10.907  50.536  0.00  0.00    -0.508 OA
BRANCH  14  16
ATOM     16  C3  <0> A   1       1.303   8.914  51.785  0.00  0.00    +0.024 C 
ATOM     17  C4  <0> A   1       2.595   8.481  51.091  0.00  0.00    +0.058 C 
BRANCH  16  19
ATOM     18  C1  <0> A   1       0.972   8.719  54.253  0.00  0.00    +0.023 C 
ATOM     19  C2  <0> A   1       1.636   9.535  53.143  0.00  0.00    +0.032 C 
ENDBRANCH  16  19
ENDBRANCH  14  16
ENDBRANCH  13  14
ENDBRANCH   1  13
BRANCH   7  20
ATOM     20  C17 <0> A   1      -2.328   8.130  48.983  0.00  0.00    +0.044 C 
BRANCH  20  21
ATOM     21  C18 <0> A   1      -3.175   7.606  47.822  0.00  0.00    +0.015 C 
BRANCH  21  22
ATOM     22  C19 <0> A   1      -2.481   6.431  47.183  0.00  0.00    +0.351 C 
ATOM     23  O3  <0> A   1      -1.326   6.524  46.842  0.00  0.00    -0.430 OA
BRANCH  22  24
ATOM     24  C20 <0> A   1      -3.227   5.138  46.971  0.00  0.00    -0.020 C 
BRANCH  24  25
ATOM     25  C21 <0> A   1      -2.729   4.467  45.690  0.00  0.00    +0.241 C 
BRANCH  25  26
ATOM     26  O6  <0> A   1      -1.570   3.683  45.982  0.00  0.00    -0.532 OA
ATOM     27  H34 <0> A   1      -1.769   2.803  46.330  0.00  0.00    +0.350 HD
ENDBRANCH  25  26
BRANCH  25  28
ATOM     28  C22 <0> A   1      -3.827   3.562  45.128  0.00  0.00    -0.098 C 
BRANCH  28  29
ATOM     29  C23 <0> A   1      -3.208   2.502  44.254  0.00  0.00    +0.491 C 
ATOM     30  O4  <0> A   1      -2.995   1.389  44.705  0.00  0.00    -0.679 OA
ATOM     31  O5  <0> A   1      -2.921   2.758  43.097  0.00  0.00    -0.713 OA
ENDBRANCH  28  29
ENDBRANCH  25  28
ENDBRANCH  24  25
ENDBRANCH  22  24
ENDBRANCH  21  22
ENDBRANCH  20  21
ENDBRANCH   7  20
TORSDOF 12
ENDMDL
MODEL 10
REMARK VINA RESULT:      -6.9      9.657     12.262
REMARK  Name = CHEMBL293944
REMARK  16 active torsions:
REMARK  status: ('A' for Active; 'I' for Inactive)
REMARK    1  A    between atoms: C1_1  and  C2_2
REMARK    2  A    between atoms: C2_2  and  C3_3
REMARK    3  A    between atoms: C3_3  and  C4_5
REMARK    4  A    between atoms: C3_3  and  C5_6
REMARK    5  A    between atoms: C5_6  and  O2_8
REMARK    6  A    between atoms: O2_8  and  C6_9
REMARK    7  A    between atoms: C8_12  and  C24_37
REMARK    8  A    between atoms: C12_18  and  C17_25
REMARK    9  A    between atoms: C13_20  and  C16_24
REMARK   10  A    between atoms: C17_25  and  C18_26
REMARK   11  A    between atoms: C18_26  and  C19_27
REMARK   12  A    between atoms: C19_27  and  C20_29
REMARK   13  A    between atoms: C20_29  and  C21_30
REMARK   14  A    between atoms: C21_30  and  C22_32
REMARK   15  A    between atoms: C21_30  and  O6_36
REMARK   16  A    between atoms: C22_32  and  C23_33
REMARK                            x       y       z     vdW  Elec       q    Type
REMARK                         _______ _______ _______ _____ _____    ______ ____
ROOT
ATOM      1  C6  <0> A   1     -14.896   8.698  46.887  0.00  0.00    +0.187 C 
ATOM      2  C7  <0> A   1     -16.104   9.049  47.768  0.00  0.00    +0.002 C 
ATOM      3  C8  <0> A   1     -16.374   7.909  48.750  0.00  0.00    -0.013 C 
ATOM      4  C9  <0> A   1     -16.677   6.632  47.960  0.00  0.00    +0.028 C 
ATOM      5  C10 <0> A   1     -15.492   6.287  47.070  0.00  0.00    +0.033 C 
ATOM      6  C11 <0> A   1     -15.196   7.433  46.091  0.00  0.00    +0.020 C 
ATOM      7  C12 <0> A   1     -14.030   6.985  45.217  0.00  0.00    -0.008 C 
ATOM      8  C13 <0> A   1     -12.774   6.694  46.024  0.00  0.00    +0.020 C 
ATOM      9  C14 <0> A   1     -13.068   6.225  47.413  0.00  0.00    -0.041 C 
ATOM     10  C15 <0> A   1     -14.260   6.030  47.888  0.00  0.00    -0.047 C 
ATOM     11  C16 <0> A   1     -11.857   7.917  46.058  0.00  0.00    +0.022 C 
ATOM     12  C24 <0> A   1     -17.577   8.262  49.627  0.00  0.00    +0.018 C 
ENDROOT
BRANCH   1  13
ATOM     13  O2  <0> A   1     -14.652   9.810  46.024  0.00  0.00    -0.337 OA
BRANCH  13  14
ATOM     14  C5  <0> A   1     -14.271  10.959  46.604  0.00  0.00    +0.467 C 
ATOM     15  O1  <0> A   1     -14.988  11.930  46.549  0.00  0.00    -0.508 OA
BRANCH  14  16
ATOM     16  C3  <0> A   1     -12.950  11.038  47.325  0.00  0.00    +0.024 C 
ATOM     17  C4  <0> A   1     -11.918  11.719  46.425  0.00  0.00    +0.058 C 
BRANCH  16  19
ATOM     18  C1  <0> A   1     -13.671  10.940  49.714  0.00  0.00    +0.023 C 
ATOM     19  C2  <0> A   1     -13.119  11.846  48.612  0.00  0.00    +0.032 C 
ENDBRANCH  16  19
ENDBRANCH  14  16
ENDBRANCH  13  14
ENDBRANCH   1  13
BRANCH   7  20
ATOM     20  C17 <0> A   1     -13.731   7.983  44.098  0.00  0.00    +0.044 C 
BRANCH  20  21
ATOM     21  C18 <0> A   1     -13.699   7.248  42.756  0.00  0.00    +0.015 C 
BRANCH  21  22
ATOM     22  C19 <0> A   1     -12.468   7.658  41.989  0.00  0.00    +0.351 C 
ATOM     23  O3  <0> A   1     -11.892   6.853  41.297  0.00  0.00    -0.430 OA
BRANCH  22  24
ATOM     24  C20 <0> A   1     -11.956   9.072  42.085  0.00  0.00    -0.020 C 
BRANCH  24  25
ATOM     25  C21 <0> A   1     -12.960  10.023  41.430  0.00  0.00    +0.241 C 
BRANCH  25  26
ATOM     26  O6  <0> A   1     -12.687  11.364  41.842  0.00  0.00    -0.532 OA
ATOM     27  H34 <0> A   1     -12.836  11.523  42.784  0.00  0.00    +0.350 HD
ENDBRANCH  25  26
BRANCH  25  28
ATOM     28  C22 <0> A   1     -12.839   9.923  39.908  0.00  0.00    -0.098 C 
BRANCH  28  29
ATOM     29  C23 <0> A   1     -13.038  11.286  39.297  0.00  0.00    +0.491 C 
ATOM     30  O4  <0> A   1     -12.072  11.969  39.003  0.00  0.00    -0.679 OA
ATOM     31  O5  <0> A   1     -14.166  11.704  39.095  0.00  0.00    -0.713 OA
ENDBRANCH  28  29
ENDBRANCH  25  28
ENDBRANCH  24  25
ENDBRANCH  22  24
ENDBRANCH  21  22
ENDBRANCH  20  21
ENDBRANCH   7  20
TORSDOF 12
ENDMDL
