REMARK  Name = CHEMBL398403
REMARK  17 active torsions:
REMARK  status: ('A' for Active; 'I' for Inactive)
REMARK    1  A    between atoms: C1_1  and  C2_2
REMARK    2  A    between atoms: C2_2  and  N1_3
REMARK    3  A    between atoms: C3_4  and  C23_29
REMARK    4  A    between atoms: C4_5  and  C17_22
REMARK    5  A    between atoms: C5_6  and  C16_21
REMARK    6  A    between atoms: C6_7  and  C7_8
REMARK    7  A    between atoms: N2_10  and  C8_11
REMARK    8  A    between atoms: C8_11  and  C9_12
REMARK    9  A    between atoms: C12_15  and  C15_18
REMARK   10  A    between atoms: C23_29  and  C24_30
REMARK   11  A    between atoms: C24_30  and  C25_31
REMARK   12  A    between atoms: C25_31  and  C26_33
REMARK   13  A    between atoms: C25_31  and  O7_41
REMARK   14  A    between atoms: C26_33  and  C27_34
REMARK   15  A    between atoms: C27_34  and  C28_36
REMARK   16  A    between atoms: C27_34  and  O6_40
REMARK   17  A    between atoms: C28_36  and  C29_37
REMARK                            x       y       z     vdW  Elec       q    Type
REMARK                         _______ _______ _______ _____ _____    ______ ____
ROOT
ATOM      1  N1  <0> A   1      -1.363  -0.527   0.010  0.00  0.00    -0.407 N 
ATOM      2  C3  <0> A   1      -2.057  -0.882   1.111  0.00  0.00    +0.073 C 
ATOM      3  C4  <0> A   1      -3.306  -1.281   0.728  0.00  0.00    -0.145 C 
ATOM      4  C5  <0> A   1      -3.376  -1.163  -0.674  0.00  0.00    -0.090 C 
ATOM      5  C6  <0> A   1      -2.166  -0.689  -1.097  0.00  0.00    -0.043 C 
ATOM      6  C16 <0> A   1      -4.563  -1.492  -1.542  0.00  0.00    +0.108 C 
ENDROOT
BRANCH   3   7
ATOM      7  C17 <0> A   1      -4.391  -1.754   1.625  0.00  0.00    -0.002 A 
ATOM      8  C18 <0> A   1      -4.234  -2.934   2.349  0.00  0.00    +0.050 A 
ATOM      9  C19 <0> A   1      -5.245  -3.369   3.182  0.00  0.00    -0.017 A 
ATOM     10  C20 <0> A   1      -6.415  -2.635   3.297  0.00  0.00    +0.089 A 
ATOM     11  C21 <0> A   1      -6.574  -1.462   2.579  0.00  0.00    -0.019 A 
ATOM     12  C22 <0> A   1      -5.566  -1.016   1.749  0.00  0.00    +0.052 A 
ATOM     13  F1  <0> A   1      -7.402  -3.066   4.112  0.00  0.00    -0.144 F 
ENDBRANCH   3   7
BRANCH   5  14
ATOM     14  C7  <0> A   1      -1.787  -0.407  -2.486  0.00  0.00    +0.594 C 
ATOM     15  O1  <0> A   1      -1.994   0.695  -2.961  0.00  0.00    -0.530 OA
ATOM     16  N2  <0> A   1      -1.211  -1.367  -3.236  0.00  0.00    -0.713 N 
ATOM     17  H8  <0> A   1      -1.113  -2.265  -2.883  0.00  0.00    +0.406 HD
BRANCH  16  18
ATOM     18  C8  <0> A   1      -0.732  -1.054  -4.584  0.00  0.00    +0.315 C 
BRANCH  18  19
ATOM     19  C9  <0> A   1      -0.134  -2.290  -5.205  0.00  0.00    -0.128 A 
ATOM     20  C10 <0> A   1       1.212  -2.564  -5.034  0.00  0.00    -0.003 A 
ATOM     21  C11 <0> A   1       1.766  -3.694  -5.599  0.00  0.00    +0.039 A 
ATOM     22  C12 <0> A   1       0.965  -4.562  -6.345  0.00  0.00    -0.122 A 
ATOM     23  C13 <0> A   1      -0.393  -4.279  -6.513  0.00  0.00    +0.039 A 
ATOM     24  C14 <0> A   1      -0.935  -3.148  -5.938  0.00  0.00    -0.001 A 
BRANCH  22  25
ATOM     25  C15 <0> A   1       1.550  -5.772  -6.954  0.00  0.00    +0.518 C 
ATOM     26  O2  <0> A   1       2.739  -6.017  -6.805  0.00  0.00    -0.686 OA
ATOM     27  O3  <0> A   1       0.847  -6.530  -7.606  0.00  0.00    -0.686 OA
ENDBRANCH  22  25
ENDBRANCH  18  19
ENDBRANCH  16  18
ENDBRANCH   5  14
BRANCH   1  29
ATOM     28  C1  <0> A   1       0.021   1.489  -0.005  0.00  0.00    +0.038 C 
ATOM     29  C2  <0> A   1       0.019  -0.041  -0.004  0.00  0.00    +0.281 C 
ENDBRANCH   1  29
BRANCH   2  30
ATOM     30  C23 <0> A   1      -1.541  -0.845   2.526  0.00  0.00    +0.116 C 
BRANCH  30  31
ATOM     31  C24 <0> A   1      -1.842   0.522   3.143  0.00  0.00    -0.008 C 
BRANCH  31  32
ATOM     32  C25 <0> A   1      -1.318   0.560   4.580  0.00  0.00    +0.212 C 
BRANCH  32  33
ATOM     33  O7  <0> A   1       0.107   0.455   4.570  0.00  0.00    -0.542 OA
ATOM     34  H31 <0> A   1       0.551   1.165   4.086  0.00  0.00    +0.363 HD
ENDBRANCH  32  33
BRANCH  32  35
ATOM     35  C26 <0> A   1      -1.727   1.879   5.237  0.00  0.00    -0.051 C 
BRANCH  35  36
ATOM     36  C27 <0> A   1      -1.313   1.865   6.710  0.00  0.00    +0.230 C 
BRANCH  36  37
ATOM     37  O6  <0> A   1       0.113   1.823   6.803  0.00  0.00    -0.528 OA
ATOM     38  H30 <0> A   1       0.556   2.576   6.389  0.00  0.00    +0.349 HD
ENDBRANCH  36  37
BRANCH  36  39
ATOM     39  C28 <0> A   1      -1.831   3.130   7.398  0.00  0.00    -0.103 C 
BRANCH  39  40
ATOM     40  C29 <0> A   1      -1.530   3.059   8.873  0.00  0.00    +0.491 C 
ATOM     41  O4  <0> A   1      -0.954   2.087   9.331  0.00  0.00    -0.681 OA
ATOM     42  O5  <0> A   1      -1.862   3.973   9.608  0.00  0.00    -0.715 OA
ENDBRANCH  39  40
ENDBRANCH  36  39
ENDBRANCH  35  36
ENDBRANCH  32  35
ENDBRANCH  31  32
ENDBRANCH  30  31
ENDBRANCH   2  30
TORSDOF 15
