REMARK VINA RESULT:      -7.4     16.438     20.054
REMARK  Name = CHEMBL466547
REMARK  14 active torsions:
REMARK  status: ('A' for Active; 'I' for Inactive)
REMARK    1  A    between atoms: C1_1  and  C2_2
REMARK    2  A    between atoms: C2_2  and  C3_3
REMARK    3  A    between atoms: C2_2  and  C4_4
REMARK    4  A    between atoms: C5_5  and  C17_25
REMARK    5  A    between atoms: C6_6  and  C11_18
REMARK    6  A    between atoms: N3_10  and  C8_11
REMARK    7  A    between atoms: N7_16  and  C10_17
REMARK    8  A    between atoms: C18_26  and  C19_27
REMARK    9  A    between atoms: C19_27  and  C20_29
REMARK   10  A    between atoms: C19_27  and  O4_37
REMARK   11  A    between atoms: C20_29  and  C21_30
REMARK   12  A    between atoms: C21_30  and  C22_32
REMARK   13  A    between atoms: C21_30  and  O3_36
REMARK   14  A    between atoms: C22_32  and  C23_33
REMARK                            x       y       z     vdW  Elec       q    Type
REMARK                         _______ _______ _______ _____ _____    ______ ____
ROOT
ATOM      1  C4  <0> A   1     -27.992  -3.517  52.240  0.00  0.00    +0.238 A 
ATOM      2  C5  <0> A   1     -26.954  -4.289  51.712  0.00  0.00    -0.176 A 
ATOM      3  C6  <0> A   1     -27.046  -5.692  51.824  0.00  0.00    +0.270 A 
ATOM      4  N1  <0> A   1     -28.110  -6.218  52.425  0.00  0.00    -0.554 NA
ATOM      5  C7  <0> A   1     -29.066  -5.444  52.909  0.00  0.00    +0.568 A 
ATOM      6  N2  <0> A   1     -29.010  -4.122  52.825  0.00  0.00    -0.541 NA
ATOM      7  N3  <0> A   1     -30.158  -6.032  53.528  0.00  0.00    -0.516 N 
ATOM      8  C8  <0> A   1     -31.229  -5.195  54.072  0.00  0.00    +0.351 C 
ATOM      9  C9  <0> A   1     -30.235  -7.412  53.632  0.00  0.00    +0.488 C 
ATOM     10  N4  <0> A   1     -29.861  -8.139  54.660  0.00  0.00    -0.313 NA
ATOM     11  N5  <0> A   1     -30.069  -9.386  54.430  0.00  0.00    -0.032 NA
ATOM     12  N6  <0> A   1     -30.582  -9.544  53.257  0.00  0.00    -0.070 NA
ATOM     13  N7  <0> A   1     -30.715  -8.263  52.695  0.00  0.00    -0.371 N 
ATOM     14  C10 <0> A   1     -31.255  -7.922  51.376  0.00  0.00    +0.383 C 
ENDROOT
BRANCH   3  15
ATOM     15  C11 <0> A   1     -25.977  -6.562  51.283  0.00  0.00    -0.077 A 
ATOM     16  C12 <0> A   1     -25.988  -6.932  49.938  0.00  0.00    +0.099 A 
ATOM     17  C13 <0> A   1     -24.991  -7.743  49.440  0.00  0.00    -0.014 A 
ATOM     18  C14 <0> A   1     -23.978  -8.192  50.272  0.00  0.00    +0.123 A 
ATOM     19  C15 <0> A   1     -23.962  -7.828  51.610  0.00  0.00    -0.023 A 
ATOM     20  C16 <0> A   1     -24.952  -7.012  52.117  0.00  0.00    +0.091 A 
ATOM     21  F1  <0> A   1     -23.004  -8.987  49.779  0.00  0.00    -0.134 F 
ENDBRANCH   3  15
BRANCH   1  23
ATOM     22  C1  <0> A   1     -29.303  -1.490  51.672  0.00  0.00    +0.045 C 
ATOM     23  C2  <0> A   1     -27.947  -2.013  52.150  0.00  0.00    +0.052 C 
ATOM     24  C3  <0> A   1     -27.631  -1.427  53.527  0.00  0.00    +0.045 C 
ENDBRANCH   1  23
BRANCH   2  25
ATOM     25  C17 <0> A   1     -25.795  -3.655  51.054  0.00  0.00    +0.010 C 
ATOM     26  C18 <0> A   1     -24.791  -3.187  51.784  0.00  0.00    -0.033 C 
BRANCH  26  27
ATOM     27  C19 <0> A   1     -23.608  -2.540  51.113  0.00  0.00    +0.252 C 
BRANCH  27  28
ATOM     28  O4  <0> A   1     -22.855  -3.533  50.413  0.00  0.00    -0.537 OA
ATOM     29  H27 <0> A   1     -21.900  -3.386  50.429  0.00  0.00    +0.366 HD
ENDBRANCH  27  28
BRANCH  27  30
ATOM     30  C20 <0> A   1     -24.097  -1.481  50.124  0.00  0.00    -0.041 C 
BRANCH  30  31
ATOM     31  C21 <0> A   1     -24.328  -0.161  50.863  0.00  0.00    +0.232 C 
BRANCH  31  32
ATOM     32  O3  <0> A   1     -23.346   0.793  50.453  0.00  0.00    -0.528 OA
ATOM     33  H26 <0> A   1     -23.660   1.418  49.785  0.00  0.00    +0.350 HD
ENDBRANCH  31  32
BRANCH  31  34
ATOM     34  C22 <0> A   1     -25.725   0.370  50.532  0.00  0.00    -0.102 C 
BRANCH  34  35
ATOM     35  C23 <0> A   1     -26.114   1.421  51.540  0.00  0.00    +0.491 C 
ATOM     36  O1  <0> A   1     -27.291   1.672  51.736  0.00  0.00    -0.681 OA
ATOM     37  O2  <0> A   1     -25.252   2.023  52.156  0.00  0.00    -0.713 OA
ENDBRANCH  34  35
ENDBRANCH  31  34
ENDBRANCH  30  31
ENDBRANCH  27  30
ENDBRANCH  26  27
ENDBRANCH   2  25
TORSDOF 10
