REMARK VINA RESULT:      -7.9      1.061      1.404
REMARK  Name = CHEMBL333760
REMARK  13 active torsions:
REMARK  status: ('A' for Active; 'I' for Inactive)
REMARK    1  A    between atoms: C1_1  and  C2_2
REMARK    2  A    between atoms: C2_2  and  C3_3
REMARK    3  A    between atoms: C2_2  and  C4_4
REMARK    4  A    between atoms: C5_6  and  C20_29
REMARK    5  A    between atoms: C6_7  and  C14_22
REMARK    6  A    between atoms: N2_8  and  C7_9
REMARK    7  A    between atoms: C8_10  and  C9_11
REMARK    8  A    between atoms: C9_11  and  C10_13
REMARK    9  A    between atoms: C9_11  and  O4_21
REMARK   10  A    between atoms: C10_13  and  C11_14
REMARK   11  A    between atoms: C11_14  and  C12_16
REMARK   12  A    between atoms: C11_14  and  O3_20
REMARK   13  A    between atoms: C12_16  and  C13_17
REMARK                            x       y       z     vdW  Elec       q    Type
REMARK                         _______ _______ _______ _____ _____    ______ ____
ROOT
ATOM      1  C4  <0> A   1     -14.479   6.481  45.266  0.00  0.00    +0.236 C 
ATOM      2  N1  <0> A   1     -15.119   6.750  46.370  0.00  0.00    -0.465 NA
ATOM      3  C5  <0> A   1     -14.811   7.994  46.780  0.00  0.00    +0.059 C 
ATOM      4  C6  <0> A   1     -13.921   8.527  45.865  0.00  0.00    +0.030 C 
ATOM      5  N2  <0> A   1     -13.718   7.551  44.914  0.00  0.00    -0.400 N 
ENDROOT
BRANCH   4   6
ATOM      6  C14 <0> A   1     -13.309   9.870  45.902  0.00  0.00    -0.032 A 
ATOM      7  C15 <0> A   1     -12.105  10.073  46.580  0.00  0.00    +0.060 A 
ATOM      8  C16 <0> A   1     -11.537  11.329  46.611  0.00  0.00    -0.007 A 
ATOM      9  C17 <0> A   1     -12.161  12.390  45.973  0.00  0.00    +0.108 A 
ATOM     10  C18 <0> A   1     -13.357  12.195  45.301  0.00  0.00    -0.010 A 
ATOM     11  C19 <0> A   1     -13.930  10.942  45.256  0.00  0.00    +0.072 A 
ATOM     12  F1  <0> A   1     -11.602  13.619  46.008  0.00  0.00    -0.136 F 
ENDBRANCH   4   6
BRANCH   3  13
ATOM     13  C20 <0> A   1     -15.333   8.670  47.991  0.00  0.00    -0.009 A 
ATOM     14  C21 <0> A   1     -16.304   9.665  47.873  0.00  0.00    +0.057 A 
ATOM     15  C22 <0> A   1     -16.786  10.291  49.003  0.00  0.00    -0.015 A 
ATOM     16  C23 <0> A   1     -16.308   9.934  50.254  0.00  0.00    +0.097 A 
ATOM     17  C24 <0> A   1     -15.342   8.948  50.376  0.00  0.00    -0.017 A 
ATOM     18  C25 <0> A   1     -14.859   8.310  49.252  0.00  0.00    +0.073 A 
ATOM     19  F2  <0> A   1     -16.783  10.552  51.357  0.00  0.00    -0.141 F 
ENDBRANCH   3  13
BRANCH   1  21
ATOM     20  C1  <0> A   1     -14.151   4.027  45.415  0.00  0.00    +0.048 C 
ATOM     21  C2  <0> A   1     -14.565   5.184  44.503  0.00  0.00    +0.077 C 
ATOM     22  C3  <0> A   1     -16.003   4.968  44.025  0.00  0.00    +0.048 C 
ENDBRANCH   1  21
BRANCH   5  23
ATOM     23  C7  <0> A   1     -12.888   7.644  43.797  0.00  0.00    +0.181 C 
ATOM     24  C8  <0> A   1     -13.395   7.966  42.623  0.00  0.00    -0.029 C 
BRANCH  24  25
ATOM     25  C9  <0> A   1     -12.498   8.068  41.417  0.00  0.00    +0.265 C 
BRANCH  25  26
ATOM     26  O4  <0> A   1     -11.895   6.797  41.163  0.00  0.00    -0.536 OA
ATOM     27  H17 <0> A   1     -12.453   6.043  41.397  0.00  0.00    +0.367 HD
ENDBRANCH  25  26
BRANCH  25  28
ATOM     28  C10 <0> A   1     -13.325   8.491  40.201  0.00  0.00    -0.037 C 
BRANCH  28  29
ATOM     29  C11 <0> A   1     -12.826   9.844  39.690  0.00  0.00    +0.233 C 
BRANCH  29  30
ATOM     30  O3  <0> A   1     -12.557   9.755  38.289  0.00  0.00    -0.527 OA
ATOM     31  H16 <0> A   1     -13.326   9.931  37.730  0.00  0.00    +0.351 HD
ENDBRANCH  29  30
BRANCH  29  32
ATOM     32  C12 <0> A   1     -13.896  10.909  39.938  0.00  0.00    -0.101 C 
BRANCH  32  33
ATOM     33  C13 <0> A   1     -13.808  11.389  41.363  0.00  0.00    +0.491 C 
ATOM     34  O1  <0> A   1     -14.827  11.576  42.008  0.00  0.00    -0.681 OA
ATOM     35  O2  <0> A   1     -12.719  11.590  41.873  0.00  0.00    -0.712 OA
ENDBRANCH  32  33
ENDBRANCH  29  32
ENDBRANCH  28  29
ENDBRANCH  25  28
ENDBRANCH  24  25
ENDBRANCH   5  23
TORSDOF 11
