MODEL 1
REMARK VINA RESULT:      -8.4      0.000      0.000
REMARK  Name = CHEMBL398239
REMARK  18 active torsions:
REMARK  status: ('A' for Active; 'I' for Inactive)
REMARK    1  A    between atoms: C1_1  and  C2_2
REMARK    2  A    between atoms: C4_5  and  C5_7
REMARK    3  A    between atoms: C5_7  and  N2_8
REMARK    4  A    between atoms: C6_9  and  C7_11
REMARK    5  A    between atoms: C8_12  and  C27_39
REMARK    6  A    between atoms: C9_13  and  C21_32
REMARK    7  A    between atoms: C10_14  and  C14_19
REMARK    8  A    between atoms: N3_15  and  C11_16
REMARK    9  A    between atoms: C11_16  and  C12_17
REMARK   10  A    between atoms: C11_16  and  C13_18
REMARK   11  A    between atoms: C14_19  and  C15_20
REMARK   12  A    between atoms: C15_20  and  C16_21
REMARK   13  A    between atoms: C16_21  and  C17_23
REMARK   14  A    between atoms: C16_21  and  O5_31
REMARK   15  A    between atoms: C17_23  and  C18_24
REMARK   16  A    between atoms: C18_24  and  C19_26
REMARK   17  A    between atoms: C18_24  and  O4_30
REMARK   18  A    between atoms: C19_26  and  C20_27
REMARK                            x       y       z     vdW  Elec       q    Type
REMARK                         _______ _______ _______ _____ _____    ______ ____
ROOT
ATOM      1  C7  <0> A   1     -16.431   7.167  46.429  0.00  0.00    -0.033 C 
ATOM      2  C8  <0> A   1     -15.527   8.188  46.696  0.00  0.00    -0.054 C 
ATOM      3  C9  <0> A   1     -14.379   7.932  45.904  0.00  0.00    -0.122 C 
ATOM      4  C10 <0> A   1     -14.616   6.791  45.197  0.00  0.00    +0.075 C 
ATOM      5  N3  <0> A   1     -15.847   6.322  45.512  0.00  0.00    -0.403 N 
ENDROOT
BRANCH   3   6
ATOM      6  C21 <0> A   1     -13.146   8.755  45.853  0.00  0.00    -0.010 A 
ATOM      7  C22 <0> A   1     -13.042   9.804  44.941  0.00  0.00    +0.053 A 
ATOM      8  C23 <0> A   1     -11.894  10.568  44.898  0.00  0.00    -0.013 A 
ATOM      9  C24 <0> A   1     -10.845  10.293  45.760  0.00  0.00    +0.095 A 
ATOM     10  C25 <0> A   1     -10.943   9.251  46.668  0.00  0.00    -0.020 A 
ATOM     11  C26 <0> A   1     -12.089   8.487  46.722  0.00  0.00    +0.054 A 
ATOM     12  F1  <0> A   1      -9.721  11.043  45.714  0.00  0.00    -0.142 F 
ENDBRANCH   3   6
BRANCH   2  13
ATOM     13  C27 <0> A   1     -15.724   9.323  47.626  0.00  0.00    -0.012 A 
ATOM     14  C28 <0> A   1     -16.264  10.523  47.164  0.00  0.00    +0.027 A 
ATOM     15  C29 <0> A   1     -16.446  11.577  48.035  0.00  0.00    +0.003 A 
ATOM     16  C30 <0> A   1     -16.094  11.444  49.367  0.00  0.00    -0.002 A 
ATOM     17  C31 <0> A   1     -15.558  10.257  49.832  0.00  0.00    +0.001 A 
ATOM     18  C32 <0> A   1     -15.376   9.194  48.971  0.00  0.00    +0.010 A 
ENDBRANCH   2  13
BRANCH   1  20
ATOM     19  N2  <0> A   1     -17.890   6.774  48.339  0.00  0.00    -0.719 N 
ATOM     20  C6  <0> A   1     -17.762   7.015  47.019  0.00  0.00    +0.609 C 
ATOM     21  O1  <0> A   1     -18.753   7.105  46.318  0.00  0.00    -0.513 OA
ATOM     22  H9  <0> A   1     -17.101   6.632  48.885  0.00  0.00    +0.406 HD
BRANCH  19  23
ATOM     23  C5  <0> A   1     -19.221   6.727  48.949  0.00  0.00    +0.415 C 
BRANCH  23  28
ATOM     24  C1  <0> A   1     -21.993   2.846  50.468  0.00  0.00    +0.147 C 
ATOM     25  C2  <0> A   1     -20.676   3.532  50.213  0.00  0.00    +0.061 C 
ATOM     26  C3  <0> A   1     -19.493   2.920  50.478  0.00  0.00    -0.026 C 
ATOM     27  S1  <0> A   1     -18.344   4.194  49.983  0.00  0.00    +0.127 S 
ATOM     28  C4  <0> A   1     -19.472   5.347  49.501  0.00  0.00    +0.026 C 
ATOM     29  N1  <0> A   1     -20.618   4.752  49.716  0.00  0.00    -0.492 NA
ENDBRANCH  23  28
ENDBRANCH  19  23
ENDBRANCH   1  20
BRANCH   5  30
ATOM     30  C11 <0> A   1     -16.460   5.110  44.964  0.00  0.00    +0.230 C 
ATOM     31  C12 <0> A   1     -16.996   5.400  43.560  0.00  0.00    +0.041 C 
ATOM     32  C13 <0> A   1     -15.411   3.999  44.889  0.00  0.00    +0.046 C 
ENDBRANCH   5  30
BRANCH   4  33
ATOM     33  C14 <0> A   1     -13.659   6.149  44.225  0.00  0.00    +0.118 C 
BRANCH  33  34
ATOM     34  C15 <0> A   1     -13.772   6.841  42.865  0.00  0.00    -0.009 C 
BRANCH  34  35
ATOM     35  C16 <0> A   1     -12.378   7.241  42.378  0.00  0.00    +0.213 C 
BRANCH  35  36
ATOM     36  O5  <0> A   1     -11.550   6.080  42.301  0.00  0.00    -0.542 OA
ATOM     37  H26 <0> A   1     -10.749   6.203  41.773  0.00  0.00    +0.363 HD
ENDBRANCH  35  36
BRANCH  35  38
ATOM     38  C17 <0> A   1     -12.486   7.885  40.994  0.00  0.00    -0.051 C 
BRANCH  38  39
ATOM     39  C18 <0> A   1     -12.996   9.320  41.137  0.00  0.00    +0.230 C 
BRANCH  39  40
ATOM     40  O4  <0> A   1     -11.887  10.204  41.313  0.00  0.00    -0.528 OA
ATOM     41  H25 <0> A   1     -12.002  11.067  40.892  0.00  0.00    +0.349 HD
ENDBRANCH  39  40
BRANCH  39  42
ATOM     42  C19 <0> A   1     -13.770   9.715  39.877  0.00  0.00    -0.103 C 
BRANCH  42  43
ATOM     43  C20 <0> A   1     -13.694  11.208  39.689  0.00  0.00    +0.490 C 
ATOM     44  O2  <0> A   1     -14.400  11.944  40.358  0.00  0.00    -0.681 OA
ATOM     45  O3  <0> A   1     -12.927  11.681  38.868  0.00  0.00    -0.713 OA
ENDBRANCH  42  43
ENDBRANCH  39  42
ENDBRANCH  38  39
ENDBRANCH  35  38
ENDBRANCH  34  35
ENDBRANCH  33  34
ENDBRANCH   4  33
TORSDOF 15
ENDMDL
MODEL 2
REMARK VINA RESULT:      -8.4      1.282      2.203
REMARK  Name = CHEMBL398239
REMARK  18 active torsions:
REMARK  status: ('A' for Active; 'I' for Inactive)
REMARK    1  A    between atoms: C1_1  and  C2_2
REMARK    2  A    between atoms: C4_5  and  C5_7
REMARK    3  A    between atoms: C5_7  and  N2_8
REMARK    4  A    between atoms: C6_9  and  C7_11
REMARK    5  A    between atoms: C8_12  and  C27_39
REMARK    6  A    between atoms: C9_13  and  C21_32
REMARK    7  A    between atoms: C10_14  and  C14_19
REMARK    8  A    between atoms: N3_15  and  C11_16
REMARK    9  A    between atoms: C11_16  and  C12_17
REMARK   10  A    between atoms: C11_16  and  C13_18
REMARK   11  A    between atoms: C14_19  and  C15_20
REMARK   12  A    between atoms: C15_20  and  C16_21
REMARK   13  A    between atoms: C16_21  and  C17_23
REMARK   14  A    between atoms: C16_21  and  O5_31
REMARK   15  A    between atoms: C17_23  and  C18_24
REMARK   16  A    between atoms: C18_24  and  C19_26
REMARK   17  A    between atoms: C18_24  and  O4_30
REMARK   18  A    between atoms: C19_26  and  C20_27
REMARK                            x       y       z     vdW  Elec       q    Type
REMARK                         _______ _______ _______ _____ _____    ______ ____
ROOT
ATOM      1  C7  <0> A   1     -16.408   6.961  46.488  0.00  0.00    -0.033 C 
ATOM      2  C8  <0> A   1     -15.557   8.015  46.798  0.00  0.00    -0.054 C 
ATOM      3  C9  <0> A   1     -14.409   7.864  45.979  0.00  0.00    -0.122 C 
ATOM      4  C10 <0> A   1     -14.594   6.750  45.216  0.00  0.00    +0.075 C 
ATOM      5  N3  <0> A   1     -15.793   6.198  45.521  0.00  0.00    -0.403 N 
ENDROOT
BRANCH   3   6
ATOM      6  C21 <0> A   1     -13.224   8.756  45.957  0.00  0.00    -0.010 A 
ATOM      7  C22 <0> A   1     -12.142   8.502  46.798  0.00  0.00    +0.053 A 
ATOM      8  C23 <0> A   1     -11.041   9.334  46.774  0.00  0.00    -0.013 A 
ATOM      9  C24 <0> A   1     -11.011  10.421  45.916  0.00  0.00    +0.095 A 
ATOM     10  C25 <0> A   1     -12.085  10.678  45.079  0.00  0.00    -0.020 A 
ATOM     11  C26 <0> A   1     -13.186   9.848  45.092  0.00  0.00    +0.054 A 
ATOM     12  F1  <0> A   1      -9.932  11.234  45.897  0.00  0.00    -0.142 F 
ENDBRANCH   3   6
BRANCH   2  13
ATOM     13  C27 <0> A   1     -15.802   9.087  47.789  0.00  0.00    -0.012 A 
ATOM     14  C28 <0> A   1     -15.492   8.882  49.134  0.00  0.00    +0.027 A 
ATOM     15  C29 <0> A   1     -15.722   9.885  50.053  0.00  0.00    +0.003 A 
ATOM     16  C30 <0> A   1     -16.259  11.092  49.643  0.00  0.00    -0.002 A 
ATOM     17  C31 <0> A   1     -16.570  11.302  48.310  0.00  0.00    +0.001 A 
ATOM     18  C32 <0> A   1     -16.339  10.308  47.381  0.00  0.00    +0.010 A 
ENDBRANCH   2  13
BRANCH   1  20
ATOM     19  N2  <0> A   1     -17.807   6.077  48.276  0.00  0.00    -0.719 N 
ATOM     20  C6  <0> A   1     -17.720   6.704  47.085  0.00  0.00    +0.609 C 
ATOM     21  O1  <0> A   1     -18.732   7.057  46.508  0.00  0.00    -0.513 OA
ATOM     22  H9  <0> A   1     -17.007   5.734  48.703  0.00  0.00    +0.406 HD
BRANCH  19  23
ATOM     23  C5  <0> A   1     -19.111   5.915  48.924  0.00  0.00    +0.415 C 
BRANCH  23  28
ATOM     24  C1  <0> A   1     -21.691   9.899  50.512  0.00  0.00    +0.147 C 
ATOM     25  C2  <0> A   1     -20.520   8.951  50.571  0.00  0.00    +0.061 C 
ATOM     26  C3  <0> A   1     -19.529   9.103  51.486  0.00  0.00    -0.026 C 
ATOM     27  S1  <0> A   1     -18.475   7.725  51.063  0.00  0.00    +0.127 S 
ATOM     28  C4  <0> A   1     -19.393   7.115  49.790  0.00  0.00    +0.026 C 
ATOM     29  N1  <0> A   1     -20.414   7.933  49.739  0.00  0.00    -0.492 NA
ENDBRANCH  23  28
ENDBRANCH  19  23
ENDBRANCH   1  20
BRANCH   5  30
ATOM     30  C11 <0> A   1     -16.347   4.984  44.917  0.00  0.00    +0.230 C 
ATOM     31  C12 <0> A   1     -16.980   5.329  43.567  0.00  0.00    +0.041 C 
ATOM     32  C13 <0> A   1     -15.227   3.963  44.708  0.00  0.00    +0.046 C 
ENDBRANCH   5  30
BRANCH   4  33
ATOM     33  C14 <0> A   1     -13.618   6.214  44.200  0.00  0.00    +0.118 C 
BRANCH  33  34
ATOM     34  C15 <0> A   1     -13.741   7.014  42.902  0.00  0.00    -0.009 C 
BRANCH  34  35
ATOM     35  C16 <0> A   1     -12.346   7.299  42.344  0.00  0.00    +0.213 C 
BRANCH  35  36
ATOM     36  O5  <0> A   1     -11.627   6.071  42.210  0.00  0.00    -0.542 OA
ATOM     37  H26 <0> A   1     -11.773   5.620  41.367  0.00  0.00    +0.363 HD
ENDBRANCH  35  36
BRANCH  35  38
ATOM     38  C17 <0> A   1     -12.472   7.968  40.973  0.00  0.00    -0.051 C 
BRANCH  38  39
ATOM     39  C18 <0> A   1     -12.999   9.394  41.148  0.00  0.00    +0.230 C 
BRANCH  39  40
ATOM     40  O4  <0> A   1     -11.898  10.299  41.256  0.00  0.00    -0.528 OA
ATOM     41  H25 <0> A   1     -11.048   9.866  41.420  0.00  0.00    +0.349 HD
ENDBRANCH  39  40
BRANCH  39  42
ATOM     42  C19 <0> A   1     -13.856   9.773  39.939  0.00  0.00    -0.103 C 
BRANCH  42  43
ATOM     43  C20 <0> A   1     -13.758  11.257  39.700  0.00  0.00    +0.490 C 
ATOM     44  O2  <0> A   1     -12.982  11.691  38.864  0.00  0.00    -0.681 OA
ATOM     45  O3  <0> A   1     -14.454  12.025  40.341  0.00  0.00    -0.713 OA
ENDBRANCH  42  43
ENDBRANCH  39  42
ENDBRANCH  38  39
ENDBRANCH  35  38
ENDBRANCH  34  35
ENDBRANCH  33  34
ENDBRANCH   4  33
TORSDOF 15
ENDMDL
MODEL 3
REMARK VINA RESULT:      -8.1      1.743      2.356
REMARK  Name = CHEMBL398239
REMARK  18 active torsions:
REMARK  status: ('A' for Active; 'I' for Inactive)
REMARK    1  A    between atoms: C1_1  and  C2_2
REMARK    2  A    between atoms: C4_5  and  C5_7
REMARK    3  A    between atoms: C5_7  and  N2_8
REMARK    4  A    between atoms: C6_9  and  C7_11
REMARK    5  A    between atoms: C8_12  and  C27_39
REMARK    6  A    between atoms: C9_13  and  C21_32
REMARK    7  A    between atoms: C10_14  and  C14_19
REMARK    8  A    between atoms: N3_15  and  C11_16
REMARK    9  A    between atoms: C11_16  and  C12_17
REMARK   10  A    between atoms: C11_16  and  C13_18
REMARK   11  A    between atoms: C14_19  and  C15_20
REMARK   12  A    between atoms: C15_20  and  C16_21
REMARK   13  A    between atoms: C16_21  and  C17_23
REMARK   14  A    between atoms: C16_21  and  O5_31
REMARK   15  A    between atoms: C17_23  and  C18_24
REMARK   16  A    between atoms: C18_24  and  C19_26
REMARK   17  A    between atoms: C18_24  and  O4_30
REMARK   18  A    between atoms: C19_26  and  C20_27
REMARK                            x       y       z     vdW  Elec       q    Type
REMARK                         _______ _______ _______ _____ _____    ______ ____
ROOT
ATOM      1  C7  <0> A   1     -15.622   7.132  46.390  0.00  0.00    -0.033 C 
ATOM      2  C8  <0> A   1     -15.278   8.436  46.724  0.00  0.00    -0.054 C 
ATOM      3  C9  <0> A   1     -14.171   8.787  45.910  0.00  0.00    -0.122 C 
ATOM      4  C10 <0> A   1     -13.884   7.710  45.125  0.00  0.00    +0.075 C 
ATOM      5  N3  <0> A   1     -14.749   6.708  45.413  0.00  0.00    -0.403 N 
ENDROOT
BRANCH   3   6
ATOM      6  C21 <0> A   1     -13.457  10.086  45.912  0.00  0.00    -0.010 A 
ATOM      7  C22 <0> A   1     -12.444  10.326  46.838  0.00  0.00    +0.053 A 
ATOM      8  C23 <0> A   1     -11.781  11.537  46.836  0.00  0.00    -0.013 A 
ATOM      9  C24 <0> A   1     -12.124  12.514  45.915  0.00  0.00    +0.095 A 
ATOM     10  C25 <0> A   1     -13.131  12.280  44.993  0.00  0.00    -0.020 A 
ATOM     11  C26 <0> A   1     -13.794  11.071  44.984  0.00  0.00    +0.054 A 
ATOM     12  F1  <0> A   1     -11.474  13.699  45.918  0.00  0.00    -0.142 F 
ENDBRANCH   3   6
BRANCH   2  13
ATOM     13  C27 <0> A   1     -15.939   9.293  47.734  0.00  0.00    -0.012 A 
ATOM     14  C28 <0> A   1     -16.111   8.833  49.040  0.00  0.00    +0.027 A 
ATOM     15  C29 <0> A   1     -16.727   9.636  49.977  0.00  0.00    +0.003 A 
ATOM     16  C30 <0> A   1     -17.175  10.897  49.623  0.00  0.00    -0.002 A 
ATOM     17  C31 <0> A   1     -17.009  11.359  48.330  0.00  0.00    +0.001 A 
ATOM     18  C32 <0> A   1     -16.388  10.566  47.386  0.00  0.00    +0.010 A 
ENDBRANCH   2  13
BRANCH   1  20
ATOM     19  N2  <0> A   1     -16.507   5.657  48.115  0.00  0.00    -0.719 N 
ATOM     20  C6  <0> A   1     -16.711   6.347  46.975  0.00  0.00    +0.609 C 
ATOM     21  O1  <0> A   1     -17.800   6.318  46.432  0.00  0.00    -0.513 OA
ATOM     22  H9  <0> A   1     -15.621   5.623  48.509  0.00  0.00    +0.406 HD
BRANCH  19  23
ATOM     23  C5  <0> A   1     -17.623   4.959  48.757  0.00  0.00    +0.415 C 
BRANCH  23  28
ATOM     24  C1  <0> A   1     -20.806   8.479  50.347  0.00  0.00    +0.147 C 
ATOM     25  C2  <0> A   1     -19.702   7.476  50.563  0.00  0.00    +0.061 C 
ATOM     26  C3  <0> A   1     -19.144   7.287  51.786  0.00  0.00    -0.026 C 
ATOM     27  S1  <0> A   1     -17.942   6.021  51.408  0.00  0.00    +0.127 S 
ATOM     28  C4  <0> A   1     -18.274   5.873  49.764  0.00  0.00    +0.026 C 
ATOM     29  N1  <0> A   1     -19.237   6.739  49.574  0.00  0.00    -0.492 NA
ENDBRANCH  23  28
ENDBRANCH  19  23
ENDBRANCH   1  20
BRANCH   5  30
ATOM     30  C11 <0> A   1     -14.757   5.386  44.782  0.00  0.00    +0.230 C 
ATOM     31  C12 <0> A   1     -14.545   4.311  45.850  0.00  0.00    +0.041 C 
ATOM     32  C13 <0> A   1     -16.103   5.160  44.091  0.00  0.00    +0.046 C 
ENDBRANCH   5  30
BRANCH   4  33
ATOM     33  C14 <0> A   1     -12.776   7.642  44.105  0.00  0.00    +0.118 C 
BRANCH  33  34
ATOM     34  C15 <0> A   1     -13.356   7.868  42.707  0.00  0.00    -0.009 C 
BRANCH  34  35
ATOM     35  C16 <0> A   1     -12.255   7.679  41.662  0.00  0.00    +0.213 C 
BRANCH  35  36
ATOM     36  O5  <0> A   1     -11.664   6.388  41.822  0.00  0.00    -0.542 OA
ATOM     37  H26 <0> A   1     -11.878   5.766  41.112  0.00  0.00    +0.363 HD
ENDBRANCH  35  36
BRANCH  35  38
ATOM     38  C17 <0> A   1     -12.858   7.793  40.260  0.00  0.00    -0.051 C 
BRANCH  38  39
ATOM     39  C18 <0> A   1     -12.315   9.048  39.572  0.00  0.00    +0.230 C 
BRANCH  39  40
ATOM     40  O4  <0> A   1     -12.752   9.071  38.211  0.00  0.00    -0.528 OA
ATOM     41  H25 <0> A   1     -12.264   8.469  37.632  0.00  0.00    +0.349 HD
ENDBRANCH  39  40
BRANCH  39  42
ATOM     42  C19 <0> A   1     -12.835  10.291  40.297  0.00  0.00    -0.103 C 
BRANCH  42  43
ATOM     43  C20 <0> A   1     -13.210  11.342  39.284  0.00  0.00    +0.490 C 
ATOM     44  O2  <0> A   1     -12.340  11.989  38.725  0.00  0.00    -0.681 OA
ATOM     45  O3  <0> A   1     -14.383  11.545  39.022  0.00  0.00    -0.713 OA
ENDBRANCH  42  43
ENDBRANCH  39  42
ENDBRANCH  38  39
ENDBRANCH  35  38
ENDBRANCH  34  35
ENDBRANCH  33  34
ENDBRANCH   4  33
TORSDOF 15
ENDMDL
MODEL 4
REMARK VINA RESULT:      -8.0      1.811      2.394
REMARK  Name = CHEMBL398239
REMARK  18 active torsions:
REMARK  status: ('A' for Active; 'I' for Inactive)
REMARK    1  A    between atoms: C1_1  and  C2_2
REMARK    2  A    between atoms: C4_5  and  C5_7
REMARK    3  A    between atoms: C5_7  and  N2_8
REMARK    4  A    between atoms: C6_9  and  C7_11
REMARK    5  A    between atoms: C8_12  and  C27_39
REMARK    6  A    between atoms: C9_13  and  C21_32
REMARK    7  A    between atoms: C10_14  and  C14_19
REMARK    8  A    between atoms: N3_15  and  C11_16
REMARK    9  A    between atoms: C11_16  and  C12_17
REMARK   10  A    between atoms: C11_16  and  C13_18
REMARK   11  A    between atoms: C14_19  and  C15_20
REMARK   12  A    between atoms: C15_20  and  C16_21
REMARK   13  A    between atoms: C16_21  and  C17_23
REMARK   14  A    between atoms: C16_21  and  O5_31
REMARK   15  A    between atoms: C17_23  and  C18_24
REMARK   16  A    between atoms: C18_24  and  C19_26
REMARK   17  A    between atoms: C18_24  and  O4_30
REMARK   18  A    between atoms: C19_26  and  C20_27
REMARK                            x       y       z     vdW  Elec       q    Type
REMARK                         _______ _______ _______ _____ _____    ______ ____
ROOT
ATOM      1  C7  <0> A   1     -16.090   6.908  47.305  0.00  0.00    -0.033 C 
ATOM      2  C8  <0> A   1     -15.513   8.143  47.578  0.00  0.00    -0.054 C 
ATOM      3  C9  <0> A   1     -14.711   8.474  46.457  0.00  0.00    -0.122 C 
ATOM      4  C10 <0> A   1     -14.822   7.455  45.559  0.00  0.00    +0.075 C 
ATOM      5  N3  <0> A   1     -15.647   6.507  46.065  0.00  0.00    -0.403 N 
ENDROOT
BRANCH   3   6
ATOM      6  C21 <0> A   1     -13.899   9.704  46.291  0.00  0.00    -0.010 A 
ATOM      7  C22 <0> A   1     -12.653   9.807  46.906  0.00  0.00    +0.053 A 
ATOM      8  C23 <0> A   1     -11.900  10.954  46.749  0.00  0.00    -0.013 A 
ATOM      9  C24 <0> A   1     -12.383  12.002  45.982  0.00  0.00    +0.095 A 
ATOM     10  C25 <0> A   1     -13.622  11.904  45.370  0.00  0.00    -0.020 A 
ATOM     11  C26 <0> A   1     -14.378  10.760  45.517  0.00  0.00    +0.054 A 
ATOM     12  F1  <0> A   1     -11.644  13.123  45.833  0.00  0.00    -0.142 F 
ENDBRANCH   3   6
BRANCH   2  13
ATOM     13  C27 <0> A   1     -15.701   8.954  48.802  0.00  0.00    -0.012 A 
ATOM     14  C28 <0> A   1     -16.769   9.848  48.894  0.00  0.00    +0.027 A 
ATOM     15  C29 <0> A   1     -16.938  10.601  50.037  0.00  0.00    +0.003 A 
ATOM     16  C30 <0> A   1     -16.052  10.471  51.092  0.00  0.00    -0.002 A 
ATOM     17  C31 <0> A   1     -14.991   9.588  51.007  0.00  0.00    +0.001 A 
ATOM     18  C32 <0> A   1     -14.814   8.825  49.870  0.00  0.00    +0.010 A 
ENDBRANCH   2  13
BRANCH   1  20
ATOM     19  N2  <0> A   1     -18.329   6.383  48.108  0.00  0.00    -0.719 N 
ATOM     20  C6  <0> A   1     -17.000   6.166  48.179  0.00  0.00    +0.609 C 
ATOM     21  O1  <0> A   1     -16.557   5.353  48.970  0.00  0.00    -0.513 OA
ATOM     22  H9  <0> A   1     -18.675   7.080  47.529  0.00  0.00    +0.406 HD
BRANCH  19  23
ATOM     23  C5  <0> A   1     -19.247   5.567  48.905  0.00  0.00    +0.415 C 
BRANCH  23  28
ATOM     24  C1  <0> A   1     -21.591   9.729  50.398  0.00  0.00    +0.147 C 
ATOM     25  C2  <0> A   1     -21.091   8.324  50.613  0.00  0.00    +0.061 C 
ATOM     26  C3  <0> A   1     -21.292   7.671  51.786  0.00  0.00    -0.026 C 
ATOM     27  S1  <0> A   1     -20.497   6.110  51.435  0.00  0.00    +0.127 S 
ATOM     28  C4  <0> A   1     -20.004   6.452  49.862  0.00  0.00    +0.026 C 
ATOM     29  N1  <0> A   1     -20.442   7.671  49.669  0.00  0.00    -0.492 NA
ENDBRANCH  23  28
ENDBRANCH  19  23
ENDBRANCH   1  20
BRANCH   5  30
ATOM     30  C11 <0> A   1     -16.010   5.254  45.398  0.00  0.00    +0.230 C 
ATOM     31  C12 <0> A   1     -16.556   5.559  44.002  0.00  0.00    +0.041 C 
ATOM     32  C13 <0> A   1     -14.771   4.364  45.278  0.00  0.00    +0.046 C 
ENDBRANCH   5  30
BRANCH   4  33
ATOM     33  C14 <0> A   1     -14.134   7.390  44.219  0.00  0.00    +0.118 C 
BRANCH  33  34
ATOM     34  C15 <0> A   1     -12.625   7.553  44.412  0.00  0.00    -0.009 C 
BRANCH  34  35
ATOM     35  C16 <0> A   1     -12.064   8.452  43.309  0.00  0.00    +0.213 C 
BRANCH  35  36
ATOM     36  O5  <0> A   1     -11.165   7.699  42.492  0.00  0.00    -0.542 OA
ATOM     37  H26 <0> A   1     -10.289   7.576  42.883  0.00  0.00    +0.363 HD
ENDBRANCH  35  36
BRANCH  35  38
ATOM     38  C17 <0> A   1     -13.214   8.981  42.448  0.00  0.00    -0.051 C 
BRANCH  38  39
ATOM     39  C18 <0> A   1     -12.859  10.373  41.922  0.00  0.00    +0.230 C 
BRANCH  39  40
ATOM     40  O4  <0> A   1     -11.491  10.390  41.505  0.00  0.00    -0.528 OA
ATOM     41  H25 <0> A   1     -11.035  11.223  41.691  0.00  0.00    +0.349 HD
ENDBRANCH  39  40
BRANCH  39  42
ATOM     42  C19 <0> A   1     -13.760  10.714  40.733  0.00  0.00    -0.103 C 
BRANCH  42  43
ATOM     43  C20 <0> A   1     -12.911  10.939  39.509  0.00  0.00    +0.490 C 
ATOM     44  O2  <0> A   1     -12.644  10.004  38.772  0.00  0.00    -0.681 OA
ATOM     45  O3  <0> A   1     -12.492  12.055  39.254  0.00  0.00    -0.713 OA
ENDBRANCH  42  43
ENDBRANCH  39  42
ENDBRANCH  38  39
ENDBRANCH  35  38
ENDBRANCH  34  35
ENDBRANCH  33  34
ENDBRANCH   4  33
TORSDOF 15
ENDMDL
MODEL 5
REMARK VINA RESULT:      -7.6     12.618     16.655
REMARK  Name = CHEMBL398239
REMARK  18 active torsions:
REMARK  status: ('A' for Active; 'I' for Inactive)
REMARK    1  A    between atoms: C1_1  and  C2_2
REMARK    2  A    between atoms: C4_5  and  C5_7
REMARK    3  A    between atoms: C5_7  and  N2_8
REMARK    4  A    between atoms: C6_9  and  C7_11
REMARK    5  A    between atoms: C8_12  and  C27_39
REMARK    6  A    between atoms: C9_13  and  C21_32
REMARK    7  A    between atoms: C10_14  and  C14_19
REMARK    8  A    between atoms: N3_15  and  C11_16
REMARK    9  A    between atoms: C11_16  and  C12_17
REMARK   10  A    between atoms: C11_16  and  C13_18
REMARK   11  A    between atoms: C14_19  and  C15_20
REMARK   12  A    between atoms: C15_20  and  C16_21
REMARK   13  A    between atoms: C16_21  and  C17_23
REMARK   14  A    between atoms: C16_21  and  O5_31
REMARK   15  A    between atoms: C17_23  and  C18_24
REMARK   16  A    between atoms: C18_24  and  C19_26
REMARK   17  A    between atoms: C18_24  and  O4_30
REMARK   18  A    between atoms: C19_26  and  C20_27
REMARK                            x       y       z     vdW  Elec       q    Type
REMARK                         _______ _______ _______ _____ _____    ______ ____
ROOT
ATOM      1  C7  <0> A   1     -26.208  -0.441  51.374  0.00  0.00    -0.033 C 
ATOM      2  C8  <0> A   1     -24.875  -0.353  51.758  0.00  0.00    -0.054 C 
ATOM      3  C9  <0> A   1     -24.441  -1.676  52.027  0.00  0.00    -0.122 C 
ATOM      4  C10 <0> A   1     -25.498  -2.506  51.804  0.00  0.00    +0.075 C 
ATOM      5  N3  <0> A   1     -26.567  -1.769  51.417  0.00  0.00    -0.403 N 
ENDROOT
BRANCH   3   6
ATOM      6  C21 <0> A   1     -23.085  -2.081  52.470  0.00  0.00    -0.010 A 
ATOM      7  C22 <0> A   1     -22.177  -2.606  51.552  0.00  0.00    +0.053 A 
ATOM      8  C23 <0> A   1     -20.916  -2.982  51.968  0.00  0.00    -0.013 A 
ATOM      9  C24 <0> A   1     -20.552  -2.837  53.297  0.00  0.00    +0.095 A 
ATOM     10  C25 <0> A   1     -21.451  -2.316  54.213  0.00  0.00    -0.020 A 
ATOM     11  C26 <0> A   1     -22.711  -1.933  53.805  0.00  0.00    +0.054 A 
ATOM     12  F1  <0> A   1     -19.317  -3.208  53.700  0.00  0.00    -0.142 F 
ENDBRANCH   3   6
BRANCH   2  13
ATOM     13  C27 <0> A   1     -24.066   0.882  51.863  0.00  0.00    -0.012 A 
ATOM     14  C28 <0> A   1     -23.217   1.256  50.821  0.00  0.00    +0.027 A 
ATOM     15  C29 <0> A   1     -22.466   2.408  50.925  0.00  0.00    +0.003 A 
ATOM     16  C30 <0> A   1     -22.553   3.193  52.061  0.00  0.00    -0.002 A 
ATOM     17  C31 <0> A   1     -23.392   2.828  53.099  0.00  0.00    +0.001 A 
ATOM     18  C32 <0> A   1     -24.153   1.681  53.004  0.00  0.00    +0.010 A 
ENDBRANCH   2  13
BRANCH   1  20
ATOM     19  N2  <0> A   1     -27.615   1.461  51.954  0.00  0.00    -0.719 N 
ATOM     20  C6  <0> A   1     -27.076   0.677  50.999  0.00  0.00    +0.609 C 
ATOM     21  O1  <0> A   1     -27.309   0.899  49.825  0.00  0.00    -0.513 OA
ATOM     22  H9  <0> A   1     -27.487   1.243  52.889  0.00  0.00    +0.406 HD
BRANCH  19  23
ATOM     23  C5  <0> A   1     -28.396   2.642  51.576  0.00  0.00    +0.415 C 
BRANCH  23  28
ATOM     24  C1  <0> A   1     -32.934   3.988  53.201  0.00  0.00    +0.147 C 
ATOM     25  C2  <0> A   1     -31.939   2.976  52.694  0.00  0.00    +0.061 C 
ATOM     26  C3  <0> A   1     -32.279   1.673  52.520  0.00  0.00    -0.026 C 
ATOM     27  S1  <0> A   1     -30.734   1.006  51.923  0.00  0.00    +0.127 S 
ATOM     28  C4  <0> A   1     -29.839   2.432  51.958  0.00  0.00    +0.026 C 
ATOM     29  N1  <0> A   1     -30.702   3.316  52.394  0.00  0.00    -0.492 NA
ENDBRANCH  23  28
ENDBRANCH  19  23
ENDBRANCH   1  20
BRANCH   5  30
ATOM     30  C11 <0> A   1     -27.892  -2.301  51.092  0.00  0.00    +0.230 C 
ATOM     31  C12 <0> A   1     -27.849  -2.975  49.719  0.00  0.00    +0.041 C 
ATOM     32  C13 <0> A   1     -28.302  -3.327  52.151  0.00  0.00    +0.046 C 
ENDBRANCH   5  30
BRANCH   4  33
ATOM     33  C14 <0> A   1     -25.484  -4.005  51.969  0.00  0.00    +0.118 C 
BRANCH  33  34
ATOM     34  C15 <0> A   1     -24.806  -4.645  50.756  0.00  0.00    -0.009 C 
BRANCH  34  35
ATOM     35  C16 <0> A   1     -25.446  -6.006  50.474  0.00  0.00    +0.213 C 
BRANCH  35  36
ATOM     36  O5  <0> A   1     -25.924  -6.036  49.128  0.00  0.00    -0.542 OA
ATOM     37  H26 <0> A   1     -26.001  -5.164  48.717  0.00  0.00    +0.363 HD
ENDBRANCH  35  36
BRANCH  35  38
ATOM     38  C17 <0> A   1     -24.404  -7.109  50.670  0.00  0.00    -0.051 C 
BRANCH  38  39
ATOM     39  C18 <0> A   1     -24.402  -8.032  49.450  0.00  0.00    +0.230 C 
BRANCH  39  40
ATOM     40  O4  <0> A   1     -23.416  -7.585  48.516  0.00  0.00    -0.528 OA
ATOM     41  H25 <0> A   1     -22.646  -7.168  48.928  0.00  0.00    +0.349 HD
ENDBRANCH  39  40
BRANCH  39  42
ATOM     42  C19 <0> A   1     -24.077  -9.461  49.891  0.00  0.00    -0.103 C 
BRANCH  42  43
ATOM     43  C20 <0> A   1     -24.690 -10.438  48.921  0.00  0.00    +0.490 C 
ATOM     44  O2  <0> A   1     -24.660 -10.208  47.724  0.00  0.00    -0.681 OA
ATOM     45  O3  <0> A   1     -25.215 -11.457  49.333  0.00  0.00    -0.713 OA
ENDBRANCH  42  43
ENDBRANCH  39  42
ENDBRANCH  38  39
ENDBRANCH  35  38
ENDBRANCH  34  35
ENDBRANCH  33  34
ENDBRANCH   4  33
TORSDOF 15
ENDMDL
MODEL 6
REMARK VINA RESULT:      -7.6     15.026     18.438
REMARK  Name = CHEMBL398239
REMARK  18 active torsions:
REMARK  status: ('A' for Active; 'I' for Inactive)
REMARK    1  A    between atoms: C1_1  and  C2_2
REMARK    2  A    between atoms: C4_5  and  C5_7
REMARK    3  A    between atoms: C5_7  and  N2_8
REMARK    4  A    between atoms: C6_9  and  C7_11
REMARK    5  A    between atoms: C8_12  and  C27_39
REMARK    6  A    between atoms: C9_13  and  C21_32
REMARK    7  A    between atoms: C10_14  and  C14_19
REMARK    8  A    between atoms: N3_15  and  C11_16
REMARK    9  A    between atoms: C11_16  and  C12_17
REMARK   10  A    between atoms: C11_16  and  C13_18
REMARK   11  A    between atoms: C14_19  and  C15_20
REMARK   12  A    between atoms: C15_20  and  C16_21
REMARK   13  A    between atoms: C16_21  and  C17_23
REMARK   14  A    between atoms: C16_21  and  O5_31
REMARK   15  A    between atoms: C17_23  and  C18_24
REMARK   16  A    between atoms: C18_24  and  C19_26
REMARK   17  A    between atoms: C18_24  and  O4_30
REMARK   18  A    between atoms: C19_26  and  C20_27
REMARK                            x       y       z     vdW  Elec       q    Type
REMARK                         _______ _______ _______ _____ _____    ______ ____
ROOT
ATOM      1  C7  <0> A   1     -28.217  -3.714  51.917  0.00  0.00    -0.033 C 
ATOM      2  C8  <0> A   1     -27.346  -2.632  51.943  0.00  0.00    -0.054 C 
ATOM      3  C9  <0> A   1     -26.032  -3.168  51.938  0.00  0.00    -0.122 C 
ATOM      4  C10 <0> A   1     -26.145  -4.525  51.909  0.00  0.00    +0.075 C 
ATOM      5  N3  <0> A   1     -27.457  -4.862  51.901  0.00  0.00    -0.403 N 
ENDROOT
BRANCH   3   6
ATOM      6  C21 <0> A   1     -24.769  -2.392  51.960  0.00  0.00    -0.010 A 
ATOM      7  C22 <0> A   1     -24.076  -2.151  50.775  0.00  0.00    +0.053 A 
ATOM      8  C23 <0> A   1     -22.900  -1.428  50.799  0.00  0.00    -0.013 A 
ATOM      9  C24 <0> A   1     -22.409  -0.942  52.000  0.00  0.00    +0.095 A 
ATOM     10  C25 <0> A   1     -23.095  -1.180  53.181  0.00  0.00    -0.020 A 
ATOM     11  C26 <0> A   1     -24.273  -1.896  53.165  0.00  0.00    +0.054 A 
ATOM     12  F1  <0> A   1     -21.257  -0.236  52.020  0.00  0.00    -0.142 F 
ENDBRANCH   3   6
BRANCH   2  13
ATOM     13  C27 <0> A   1     -27.716  -1.199  51.971  0.00  0.00    -0.012 A 
ATOM     14  C28 <0> A   1     -28.111  -0.600  53.168  0.00  0.00    +0.027 A 
ATOM     15  C29 <0> A   1     -28.455   0.735  53.188  0.00  0.00    +0.003 A 
ATOM     16  C30 <0> A   1     -28.408   1.481  52.024  0.00  0.00    -0.002 A 
ATOM     17  C31 <0> A   1     -28.018   0.894  50.833  0.00  0.00    +0.001 A 
ATOM     18  C32 <0> A   1     -27.667  -0.440  50.802  0.00  0.00    +0.010 A 
ENDBRANCH   2  13
BRANCH   1  20
ATOM     19  N2  <0> A   1     -30.350  -3.465  53.067  0.00  0.00    -0.719 N 
ATOM     20  C6  <0> A   1     -29.680  -3.647  51.911  0.00  0.00    +0.609 C 
ATOM     21  O1  <0> A   1     -30.291  -3.755  50.864  0.00  0.00    -0.513 OA
ATOM     22  H9  <0> A   1     -29.869  -3.450  53.909  0.00  0.00    +0.406 HD
BRANCH  19  23
ATOM     23  C5  <0> A   1     -31.804  -3.292  53.049  0.00  0.00    +0.415 C 
BRANCH  23  28
ATOM     24  C1  <0> A   1     -32.039   1.480  51.558  0.00  0.00    +0.147 C 
ATOM     25  C2  <0> A   1     -32.277   0.376  52.555  0.00  0.00    +0.061 C 
ATOM     26  C3  <0> A   1     -32.862   0.619  53.757  0.00  0.00    -0.026 C 
ATOM     27  S1  <0> A   1     -32.866  -1.023  54.459  0.00  0.00    +0.127 S 
ATOM     28  C4  <0> A   1     -32.136  -1.826  53.171  0.00  0.00    +0.026 C 
ATOM     29  N1  <0> A   1     -31.933  -0.871  52.300  0.00  0.00    -0.492 NA
ENDBRANCH  23  28
ENDBRANCH  19  23
ENDBRANCH   1  20
BRANCH   5  30
ATOM     30  C11 <0> A   1     -27.983  -6.229  51.879  0.00  0.00    +0.230 C 
ATOM     31  C12 <0> A   1     -28.969  -6.415  53.034  0.00  0.00    +0.041 C 
ATOM     32  C13 <0> A   1     -28.700  -6.476  50.551  0.00  0.00    +0.046 C 
ENDBRANCH   5  30
BRANCH   4  33
ATOM     33  C14 <0> A   1     -24.993  -5.498  51.894  0.00  0.00    +0.118 C 
BRANCH  33  34
ATOM     34  C15 <0> A   1     -24.538  -5.728  50.451  0.00  0.00    -0.009 C 
BRANCH  34  35
ATOM     35  C16 <0> A   1     -24.995  -7.111  49.985  0.00  0.00    +0.213 C 
BRANCH  35  36
ATOM     36  O5  <0> A   1     -25.025  -7.146  48.558  0.00  0.00    -0.542 OA
ATOM     37  H26 <0> A   1     -24.449  -7.818  48.168  0.00  0.00    +0.363 HD
ENDBRANCH  35  36
BRANCH  35  38
ATOM     38  C17 <0> A   1     -24.019  -8.171  50.501  0.00  0.00    -0.051 C 
BRANCH  38  39
ATOM     39  C18 <0> A   1     -24.714  -9.534  50.527  0.00  0.00    +0.230 C 
BRANCH  39  40
ATOM     40  O4  <0> A   1     -26.058  -9.392  50.064  0.00  0.00    -0.528 OA
ATOM     41  H25 <0> A   1     -26.724  -9.470  50.761  0.00  0.00    +0.349 HD
ENDBRANCH  39  40
BRANCH  39  42
ATOM     42  C19 <0> A   1     -23.960 -10.508  49.619  0.00  0.00    -0.103 C 
BRANCH  42  43
ATOM     43  C20 <0> A   1     -24.722 -10.685  48.332  0.00  0.00    +0.490 C 
ATOM     44  O2  <0> A   1     -25.403 -11.683  48.159  0.00  0.00    -0.681 OA
ATOM     45  O3  <0> A   1     -24.659  -9.833  47.463  0.00  0.00    -0.713 OA
ENDBRANCH  42  43
ENDBRANCH  39  42
ENDBRANCH  38  39
ENDBRANCH  35  38
ENDBRANCH  34  35
ENDBRANCH  33  34
ENDBRANCH   4  33
TORSDOF 15
ENDMDL
MODEL 7
REMARK VINA RESULT:      -7.6      4.124      9.776
REMARK  Name = CHEMBL398239
REMARK  18 active torsions:
REMARK  status: ('A' for Active; 'I' for Inactive)
REMARK    1  A    between atoms: C1_1  and  C2_2
REMARK    2  A    between atoms: C4_5  and  C5_7
REMARK    3  A    between atoms: C5_7  and  N2_8
REMARK    4  A    between atoms: C6_9  and  C7_11
REMARK    5  A    between atoms: C8_12  and  C27_39
REMARK    6  A    between atoms: C9_13  and  C21_32
REMARK    7  A    between atoms: C10_14  and  C14_19
REMARK    8  A    between atoms: N3_15  and  C11_16
REMARK    9  A    between atoms: C11_16  and  C12_17
REMARK   10  A    between atoms: C11_16  and  C13_18
REMARK   11  A    between atoms: C14_19  and  C15_20
REMARK   12  A    between atoms: C15_20  and  C16_21
REMARK   13  A    between atoms: C16_21  and  C17_23
REMARK   14  A    between atoms: C16_21  and  O5_31
REMARK   15  A    between atoms: C17_23  and  C18_24
REMARK   16  A    between atoms: C18_24  and  C19_26
REMARK   17  A    between atoms: C18_24  and  O4_30
REMARK   18  A    between atoms: C19_26  and  C20_27
REMARK                            x       y       z     vdW  Elec       q    Type
REMARK                         _______ _______ _______ _____ _____    ______ ____
ROOT
ATOM      1  C7  <0> A   1     -14.501   8.824  46.684  0.00  0.00    -0.033 C 
ATOM      2  C8  <0> A   1     -15.303   7.697  46.808  0.00  0.00    -0.054 C 
ATOM      3  C9  <0> A   1     -16.262   7.988  47.811  0.00  0.00    -0.122 C 
ATOM      4  C10 <0> A   1     -16.018   9.254  48.254  0.00  0.00    +0.075 C 
ATOM      5  N3  <0> A   1     -14.956   9.761  47.584  0.00  0.00    -0.403 N 
ENDROOT
BRANCH   3   6
ATOM      6  C21 <0> A   1     -17.334   7.082  48.290  0.00  0.00    -0.010 A 
ATOM      7  C22 <0> A   1     -18.620   7.180  47.762  0.00  0.00    +0.053 A 
ATOM      8  C23 <0> A   1     -19.615   6.335  48.210  0.00  0.00    -0.013 A 
ATOM      9  C24 <0> A   1     -19.336   5.390  49.183  0.00  0.00    +0.095 A 
ATOM     10  C25 <0> A   1     -18.059   5.289  49.712  0.00  0.00    -0.020 A 
ATOM     11  C26 <0> A   1     -17.058   6.126  49.266  0.00  0.00    +0.054 A 
ATOM     12  F1  <0> A   1     -20.314   4.565  49.621  0.00  0.00    -0.142 F 
ENDBRANCH   3   6
BRANCH   2  13
ATOM     13  C27 <0> A   1     -15.181   6.436  46.042  0.00  0.00    -0.012 A 
ATOM     14  C28 <0> A   1     -14.201   5.502  46.380  0.00  0.00    +0.027 A 
ATOM     15  C29 <0> A   1     -14.091   4.329  45.663  0.00  0.00    +0.003 A 
ATOM     16  C30 <0> A   1     -14.953   4.077  44.609  0.00  0.00    -0.002 A 
ATOM     17  C31 <0> A   1     -15.926   4.999  44.268  0.00  0.00    +0.001 A 
ATOM     18  C32 <0> A   1     -16.048   6.174  44.982  0.00  0.00    +0.010 A 
ENDBRANCH   2  13
BRANCH   1  20
ATOM     19  N2  <0> A   1     -13.540   9.643  44.601  0.00  0.00    -0.719 N 
ATOM     20  C6  <0> A   1     -13.372   8.986  45.766  0.00  0.00    +0.609 C 
ATOM     21  O1  <0> A   1     -12.281   8.528  46.055  0.00  0.00    -0.513 OA
ATOM     22  H9  <0> A   1     -14.423   9.946  44.338  0.00  0.00    +0.406 HD
BRANCH  19  23
ATOM     23  C5  <0> A   1     -12.389   9.897  43.732  0.00  0.00    +0.415 C 
BRANCH  23  28
ATOM     24  C1  <0> A   1     -12.603   8.900  38.832  0.00  0.00    +0.147 C 
ATOM     25  C2  <0> A   1     -13.011   9.672  40.060  0.00  0.00    +0.061 C 
ATOM     26  C3  <0> A   1     -13.918  10.681  39.996  0.00  0.00    -0.026 C 
ATOM     27  S1  <0> A   1     -13.977  11.180  41.710  0.00  0.00    +0.127 S 
ATOM     28  C4  <0> A   1     -12.861  10.072  42.311  0.00  0.00    +0.026 C 
ATOM     29  N1  <0> A   1     -12.508   9.395  41.247  0.00  0.00    -0.492 NA
ENDBRANCH  23  28
ENDBRANCH  19  23
ENDBRANCH   1  20
BRANCH   5  30
ATOM     30  C11 <0> A   1     -14.384  11.095  47.785  0.00  0.00    +0.230 C 
ATOM     31  C12 <0> A   1     -15.500  12.141  47.730  0.00  0.00    +0.041 C 
ATOM     32  C13 <0> A   1     -13.696  11.154  49.149  0.00  0.00    +0.046 C 
ENDBRANCH   5  30
BRANCH   4  33
ATOM     33  C14 <0> A   1     -16.801   9.973  49.324  0.00  0.00    +0.118 C 
BRANCH  33  34
ATOM     34  C15 <0> A   1     -16.424   9.413  50.697  0.00  0.00    -0.009 C 
BRANCH  34  35
ATOM     35  C16 <0> A   1     -17.693   9.172  51.516  0.00  0.00    +0.213 C 
BRANCH  35  36
ATOM     36  O5  <0> A   1     -17.660   9.981  52.693  0.00  0.00    -0.542 OA
ATOM     37  H26 <0> A   1     -16.913  10.595  52.727  0.00  0.00    +0.363 HD
ENDBRANCH  35  36
BRANCH  35  38
ATOM     38  C17 <0> A   1     -18.919   9.540  50.678  0.00  0.00    -0.051 C 
BRANCH  38  39
ATOM     39  C18 <0> A   1     -20.191   9.231  51.470  0.00  0.00    +0.230 C 
BRANCH  39  40
ATOM     40  O4  <0> A   1     -20.514  10.346  52.304  0.00  0.00    -0.528 OA
ATOM     41  H25 <0> A   1     -20.471  10.153  53.252  0.00  0.00    +0.349 HD
ENDBRANCH  39  40
BRANCH  39  42
ATOM     42  C19 <0> A   1     -21.344   8.966  50.501  0.00  0.00    -0.103 C 
BRANCH  42  43
ATOM     43  C20 <0> A   1     -22.455   9.950  50.762  0.00  0.00    +0.490 C 
ATOM     44  O2  <0> A   1     -23.357   9.661  51.530  0.00  0.00    -0.681 OA
ATOM     45  O3  <0> A   1     -22.452  11.034  50.205  0.00  0.00    -0.713 OA
ENDBRANCH  42  43
ENDBRANCH  39  42
ENDBRANCH  38  39
ENDBRANCH  35  38
ENDBRANCH  34  35
ENDBRANCH  33  34
ENDBRANCH   4  33
TORSDOF 15
ENDMDL
MODEL 8
REMARK VINA RESULT:      -7.5      3.491      5.963
REMARK  Name = CHEMBL398239
REMARK  18 active torsions:
REMARK  status: ('A' for Active; 'I' for Inactive)
REMARK    1  A    between atoms: C1_1  and  C2_2
REMARK    2  A    between atoms: C4_5  and  C5_7
REMARK    3  A    between atoms: C5_7  and  N2_8
REMARK    4  A    between atoms: C6_9  and  C7_11
REMARK    5  A    between atoms: C8_12  and  C27_39
REMARK    6  A    between atoms: C9_13  and  C21_32
REMARK    7  A    between atoms: C10_14  and  C14_19
REMARK    8  A    between atoms: N3_15  and  C11_16
REMARK    9  A    between atoms: C11_16  and  C12_17
REMARK   10  A    between atoms: C11_16  and  C13_18
REMARK   11  A    between atoms: C14_19  and  C15_20
REMARK   12  A    between atoms: C15_20  and  C16_21
REMARK   13  A    between atoms: C16_21  and  C17_23
REMARK   14  A    between atoms: C16_21  and  O5_31
REMARK   15  A    between atoms: C17_23  and  C18_24
REMARK   16  A    between atoms: C18_24  and  C19_26
REMARK   17  A    between atoms: C18_24  and  O4_30
REMARK   18  A    between atoms: C19_26  and  C20_27
REMARK                            x       y       z     vdW  Elec       q    Type
REMARK                         _______ _______ _______ _____ _____    ______ ____
ROOT
ATOM      1  C7  <0> A   1     -17.028   8.214  50.010  0.00  0.00    -0.033 C 
ATOM      2  C8  <0> A   1     -17.269   7.143  49.158  0.00  0.00    -0.054 C 
ATOM      3  C9  <0> A   1     -16.355   7.267  48.080  0.00  0.00    -0.122 C 
ATOM      4  C10 <0> A   1     -15.605   8.383  48.307  0.00  0.00    +0.075 C 
ATOM      5  N3  <0> A   1     -16.009   8.960  49.464  0.00  0.00    -0.403 N 
ENDROOT
BRANCH   3   6
ATOM      6  C21 <0> A   1     -16.236   6.351  46.920  0.00  0.00    -0.010 A 
ATOM      7  C22 <0> A   1     -16.963   6.598  45.757  0.00  0.00    +0.053 A 
ATOM      8  C23 <0> A   1     -16.849   5.743  44.679  0.00  0.00    -0.013 A 
ATOM      9  C24 <0> A   1     -16.014   4.640  44.753  0.00  0.00    +0.095 A 
ATOM     10  C25 <0> A   1     -15.291   4.390  45.909  0.00  0.00    -0.020 A 
ATOM     11  C26 <0> A   1     -15.394   5.242  46.988  0.00  0.00    +0.054 A 
ATOM     12  F1  <0> A   1     -15.907   3.804  43.697  0.00  0.00    -0.142 F 
ENDBRANCH   3   6
BRANCH   2  13
ATOM     13  C27 <0> A   1     -18.282   6.080  49.339  0.00  0.00    -0.012 A 
ATOM     14  C28 <0> A   1     -19.576   6.252  48.845  0.00  0.00    +0.027 A 
ATOM     15  C29 <0> A   1     -20.516   5.258  49.017  0.00  0.00    +0.003 A 
ATOM     16  C30 <0> A   1     -20.178   4.089  49.677  0.00  0.00    -0.002 A 
ATOM     17  C31 <0> A   1     -18.897   3.911  50.169  0.00  0.00    +0.001 A 
ATOM     18  C32 <0> A   1     -17.946   4.898  49.999  0.00  0.00    +0.010 A 
ENDBRANCH   2  13
BRANCH   1  20
ATOM     19  N2  <0> A   1     -18.917   9.145  51.233  0.00  0.00    -0.719 N 
ATOM     20  C6  <0> A   1     -17.734   8.500  51.261  0.00  0.00    +0.609 C 
ATOM     21  O1  <0> A   1     -17.253   8.154  52.324  0.00  0.00    -0.513 OA
ATOM     22  H9  <0> A   1     -19.267   9.482  50.394  0.00  0.00    +0.406 HD
BRANCH  19  23
ATOM     23  C5  <0> A   1     -19.674   9.337  52.473  0.00  0.00    +0.415 C 
BRANCH  23  28
ATOM     24  C1  <0> A   1     -23.559  10.805  49.679  0.00  0.00    +0.147 C 
ATOM     25  C2  <0> A   1     -22.752  10.797  50.952  0.00  0.00    +0.061 C 
ATOM     26  C3  <0> A   1     -23.131  11.520  52.037  0.00  0.00    -0.026 C 
ATOM     27  S1  <0> A   1     -21.821  11.111  53.180  0.00  0.00    +0.127 S 
ATOM     28  C4  <0> A   1     -20.949  10.082  52.172  0.00  0.00    +0.026 C 
ATOM     29  N1  <0> A   1     -21.650  10.083  51.066  0.00  0.00    -0.492 NA
ENDBRANCH  23  28
ENDBRANCH  19  23
ENDBRANCH   1  20
BRANCH   5  30
ATOM     30  C11 <0> A   1     -15.448  10.184  50.042  0.00  0.00    +0.230 C 
ATOM     31  C12 <0> A   1     -14.085   9.875  50.666  0.00  0.00    +0.041 C 
ATOM     32  C13 <0> A   1     -15.279  11.235  48.943  0.00  0.00    +0.046 C 
ENDBRANCH   5  30
BRANCH   4  33
ATOM     33  C14 <0> A   1     -14.507   8.896  47.410  0.00  0.00    +0.118 C 
BRANCH  33  34
ATOM     34  C15 <0> A   1     -13.212   8.134  47.702  0.00  0.00    -0.009 C 
BRANCH  34  35
ATOM     35  C16 <0> A   1     -12.508   7.802  46.386  0.00  0.00    +0.213 C 
BRANCH  35  36
ATOM     36  O5  <0> A   1     -12.165   6.415  46.367  0.00  0.00    -0.542 OA
ATOM     37  H26 <0> A   1     -12.761   5.870  45.834  0.00  0.00    +0.363 HD
ENDBRANCH  35  36
BRANCH  35  38
ATOM     38  C17 <0> A   1     -13.443   8.112  45.215  0.00  0.00    -0.051 C 
BRANCH  38  39
ATOM     39  C18 <0> A   1     -12.617   8.315  43.943  0.00  0.00    +0.230 C 
BRANCH  39  40
ATOM     40  O4  <0> A   1     -11.828   7.148  43.697  0.00  0.00    -0.528 OA
ATOM     41  H25 <0> A   1     -12.070   6.388  44.243  0.00  0.00    +0.349 HD
ENDBRANCH  39  40
BRANCH  39  42
ATOM     42  C19 <0> A   1     -13.556   8.555  42.759  0.00  0.00    -0.103 C 
BRANCH  42  43
ATOM     43  C20 <0> A   1     -13.591   7.325  41.889  0.00  0.00    +0.490 C 
ATOM     44  O2  <0> A   1     -12.861   7.246  40.914  0.00  0.00    -0.681 OA
ATOM     45  O3  <0> A   1     -14.348   6.409  42.158  0.00  0.00    -0.713 OA
ENDBRANCH  42  43
ENDBRANCH  39  42
ENDBRANCH  38  39
ENDBRANCH  35  38
ENDBRANCH  34  35
ENDBRANCH  33  34
ENDBRANCH   4  33
TORSDOF 15
ENDMDL
MODEL 9
REMARK VINA RESULT:      -7.5      4.333      7.476
REMARK  Name = CHEMBL398239
REMARK  18 active torsions:
REMARK  status: ('A' for Active; 'I' for Inactive)
REMARK    1  A    between atoms: C1_1  and  C2_2
REMARK    2  A    between atoms: C4_5  and  C5_7
REMARK    3  A    between atoms: C5_7  and  N2_8
REMARK    4  A    between atoms: C6_9  and  C7_11
REMARK    5  A    between atoms: C8_12  and  C27_39
REMARK    6  A    between atoms: C9_13  and  C21_32
REMARK    7  A    between atoms: C10_14  and  C14_19
REMARK    8  A    between atoms: N3_15  and  C11_16
REMARK    9  A    between atoms: C11_16  and  C12_17
REMARK   10  A    between atoms: C11_16  and  C13_18
REMARK   11  A    between atoms: C14_19  and  C15_20
REMARK   12  A    between atoms: C15_20  and  C16_21
REMARK   13  A    between atoms: C16_21  and  C17_23
REMARK   14  A    between atoms: C16_21  and  O5_31
REMARK   15  A    between atoms: C17_23  and  C18_24
REMARK   16  A    between atoms: C18_24  and  C19_26
REMARK   17  A    between atoms: C18_24  and  O4_30
REMARK   18  A    between atoms: C19_26  and  C20_27
REMARK                            x       y       z     vdW  Elec       q    Type
REMARK                         _______ _______ _______ _____ _____    ______ ____
ROOT
ATOM      1  C7  <0> A   1     -12.874   9.963  46.400  0.00  0.00    -0.033 C 
ATOM      2  C8  <0> A   1     -13.791  10.179  47.421  0.00  0.00    -0.054 C 
ATOM      3  C9  <0> A   1     -13.616   9.125  48.354  0.00  0.00    -0.122 C 
ATOM      4  C10 <0> A   1     -12.622   8.322  47.882  0.00  0.00    +0.075 C 
ATOM      5  N3  <0> A   1     -12.174   8.817  46.704  0.00  0.00    -0.403 N 
ENDROOT
BRANCH   3   6
ATOM      6  C21 <0> A   1     -14.376   8.933  49.614  0.00  0.00    -0.010 A 
ATOM      7  C22 <0> A   1     -13.853   9.389  50.822  0.00  0.00    +0.053 A 
ATOM      8  C23 <0> A   1     -14.564   9.209  51.992  0.00  0.00    -0.013 A 
ATOM      9  C24 <0> A   1     -15.795   8.576  51.965  0.00  0.00    +0.095 A 
ATOM     10  C25 <0> A   1     -16.318   8.120  50.765  0.00  0.00    -0.020 A 
ATOM     11  C26 <0> A   1     -15.618   8.301  49.592  0.00  0.00    +0.054 A 
ATOM     12  F1  <0> A   1     -16.487   8.400  53.112  0.00  0.00    -0.142 F 
ENDBRANCH   3   6
BRANCH   2  13
ATOM     13  C27 <0> A   1     -14.762  11.292  47.516  0.00  0.00    -0.012 A 
ATOM     14  C28 <0> A   1     -16.063  11.130  47.037  0.00  0.00    +0.027 A 
ATOM     15  C29 <0> A   1     -16.964  12.171  47.129  0.00  0.00    +0.003 A 
ATOM     16  C30 <0> A   1     -16.579  13.374  47.695  0.00  0.00    -0.002 A 
ATOM     17  C31 <0> A   1     -15.291  13.541  48.172  0.00  0.00    +0.001 A 
ATOM     18  C32 <0> A   1     -14.383  12.505  48.090  0.00  0.00    +0.010 A 
ENDBRANCH   2  13
BRANCH   1  20
ATOM     19  N2  <0> A   1     -13.500  10.646  44.147  0.00  0.00    -0.719 N 
ATOM     20  C6  <0> A   1     -12.688  10.799  45.213  0.00  0.00    +0.609 C 
ATOM     21  O1  <0> A   1     -11.802  11.633  45.188  0.00  0.00    -0.513 OA
ATOM     22  H9  <0> A   1     -14.160   9.936  44.139  0.00  0.00    +0.406 HD
BRANCH  19  23
ATOM     23  C5  <0> A   1     -13.384  11.553  43.003  0.00  0.00    +0.415 C 
BRANCH  23  28
ATOM     24  C1  <0> A   1     -12.414   7.461  40.288  0.00  0.00    +0.147 C 
ATOM     25  C2  <0> A   1     -12.781   8.916  40.433  0.00  0.00    +0.061 C 
ATOM     26  C3  <0> A   1     -13.011   9.702  39.350  0.00  0.00    -0.026 C 
ATOM     27  S1  <0> A   1     -13.385  11.257  40.144  0.00  0.00    +0.127 S 
ATOM     28  C4  <0> A   1     -13.213  10.748  41.740  0.00  0.00    +0.026 C 
ATOM     29  N1  <0> A   1     -12.899   9.482  41.618  0.00  0.00    -0.492 NA
ENDBRANCH  23  28
ENDBRANCH  19  23
ENDBRANCH   1  20
BRANCH   5  30
ATOM     30  C11 <0> A   1     -11.113   8.228  45.884  0.00  0.00    +0.230 C 
ATOM     31  C12 <0> A   1     -11.654   7.935  44.482  0.00  0.00    +0.041 C 
ATOM     32  C13 <0> A   1      -9.942   9.208  45.784  0.00  0.00    +0.046 C 
ENDBRANCH   5  30
BRANCH   4  33
ATOM     33  C14 <0> A   1     -12.106   7.078  48.560  0.00  0.00    +0.118 C 
BRANCH  33  34
ATOM     34  C15 <0> A   1     -13.142   5.960  48.433  0.00  0.00    -0.009 C 
BRANCH  34  35
ATOM     35  C16 <0> A   1     -13.584   5.838  46.973  0.00  0.00    +0.213 C 
BRANCH  35  36
ATOM     36  O5  <0> A   1     -12.892   4.751  46.356  0.00  0.00    -0.542 OA
ATOM     37  H26 <0> A   1     -12.768   4.854  45.403  0.00  0.00    +0.363 HD
ENDBRANCH  35  36
BRANCH  35  38
ATOM     38  C17 <0> A   1     -15.092   5.581  46.917  0.00  0.00    -0.051 C 
BRANCH  38  39
ATOM     39  C18 <0> A   1     -15.687   6.301  45.705  0.00  0.00    +0.230 C 
BRANCH  39  40
ATOM     40  O4  <0> A   1     -14.724   7.215  45.174  0.00  0.00    -0.528 OA
ATOM     41  H25 <0> A   1     -14.803   7.359  44.221  0.00  0.00    +0.349 HD
ENDBRANCH  39  40
BRANCH  39  42
ATOM     42  C19 <0> A   1     -16.060   5.273  44.634  0.00  0.00    -0.103 C 
BRANCH  42  43
ATOM     43  C20 <0> A   1     -15.002   5.260  43.561  0.00  0.00    +0.490 C 
ATOM     44  O2  <0> A   1     -14.072   4.474  43.632  0.00  0.00    -0.681 OA
ATOM     45  O3  <0> A   1     -15.075   6.034  42.623  0.00  0.00    -0.713 OA
ENDBRANCH  42  43
ENDBRANCH  39  42
ENDBRANCH  38  39
ENDBRANCH  35  38
ENDBRANCH  34  35
ENDBRANCH  33  34
ENDBRANCH   4  33
TORSDOF 15
ENDMDL
MODEL 10
REMARK VINA RESULT:      -7.5     14.481     18.906
REMARK  Name = CHEMBL398239
REMARK  18 active torsions:
REMARK  status: ('A' for Active; 'I' for Inactive)
REMARK    1  A    between atoms: C1_1  and  C2_2
REMARK    2  A    between atoms: C4_5  and  C5_7
REMARK    3  A    between atoms: C5_7  and  N2_8
REMARK    4  A    between atoms: C6_9  and  C7_11
REMARK    5  A    between atoms: C8_12  and  C27_39
REMARK    6  A    between atoms: C9_13  and  C21_32
REMARK    7  A    between atoms: C10_14  and  C14_19
REMARK    8  A    between atoms: N3_15  and  C11_16
REMARK    9  A    between atoms: C11_16  and  C12_17
REMARK   10  A    between atoms: C11_16  and  C13_18
REMARK   11  A    between atoms: C14_19  and  C15_20
REMARK   12  A    between atoms: C15_20  and  C16_21
REMARK   13  A    between atoms: C16_21  and  C17_23
REMARK   14  A    between atoms: C16_21  and  O5_31
REMARK   15  A    between atoms: C17_23  and  C18_24
REMARK   16  A    between atoms: C18_24  and  C19_26
REMARK   17  A    between atoms: C18_24  and  O4_30
REMARK   18  A    between atoms: C19_26  and  C20_27
REMARK                            x       y       z     vdW  Elec       q    Type
REMARK                         _______ _______ _______ _____ _____    ______ ____
ROOT
ATOM      1  C7  <0> A   1     -25.208  -2.448  51.942  0.00  0.00    -0.033 C 
ATOM      2  C8  <0> A   1     -26.495  -2.943  52.115  0.00  0.00    -0.054 C 
ATOM      3  C9  <0> A   1     -26.420  -4.346  51.918  0.00  0.00    -0.122 C 
ATOM      4  C10 <0> A   1     -25.122  -4.651  51.638  0.00  0.00    +0.075 C 
ATOM      5  N3  <0> A   1     -24.387  -3.513  51.646  0.00  0.00    -0.403 N 
ENDROOT
BRANCH   3   6
ATOM      6  C21 <0> A   1     -27.549  -5.304  52.001  0.00  0.00    -0.010 A 
ATOM      7  C22 <0> A   1     -28.317  -5.580  50.871  0.00  0.00    +0.053 A 
ATOM      8  C23 <0> A   1     -29.366  -6.474  50.953  0.00  0.00    -0.013 A 
ATOM      9  C24 <0> A   1     -29.656  -7.095  52.156  0.00  0.00    +0.095 A 
ATOM     10  C25 <0> A   1     -28.896  -6.823  53.283  0.00  0.00    -0.020 A 
ATOM     11  C26 <0> A   1     -27.843  -5.936  53.209  0.00  0.00    +0.054 A 
ATOM     12  F1  <0> A   1     -30.686  -7.967  52.233  0.00  0.00    -0.142 F 
ENDBRANCH   3   6
BRANCH   2  13
ATOM     13  C27 <0> A   1     -27.707  -2.159  52.441  0.00  0.00    -0.012 A 
ATOM     14  C28 <0> A   1     -27.827  -1.538  53.685  0.00  0.00    +0.027 A 
ATOM     15  C29 <0> A   1     -28.958  -0.809  53.984  0.00  0.00    +0.003 A 
ATOM     16  C30 <0> A   1     -29.974  -0.691  53.052  0.00  0.00    -0.002 A 
ATOM     17  C31 <0> A   1     -29.863  -1.304  51.816  0.00  0.00    +0.001 A 
ATOM     18  C32 <0> A   1     -28.732  -2.033  51.504  0.00  0.00    +0.010 A 
ENDBRANCH   2  13
BRANCH   1  20
ATOM     19  N2  <0> A   1     -25.031  -0.196  51.030  0.00  0.00    -0.719 N 
ATOM     20  C6  <0> A   1     -24.799  -1.046  52.050  0.00  0.00    +0.609 C 
ATOM     21  O1  <0> A   1     -24.249  -0.648  53.061  0.00  0.00    -0.513 OA
ATOM     22  H9  <0> A   1     -25.404  -0.528  50.198  0.00  0.00    +0.406 HD
BRANCH  19  23
ATOM     23  C5  <0> A   1     -24.719   1.227  51.178  0.00  0.00    +0.415 C 
BRANCH  23  28
ATOM     24  C1  <0> A   1     -29.573   2.403  51.499  0.00  0.00    +0.147 C 
ATOM     25  C2  <0> A   1     -28.132   2.541  51.916  0.00  0.00    +0.061 C 
ATOM     26  C3  <0> A   1     -27.756   3.404  52.895  0.00  0.00    -0.026 C 
ATOM     27  S1  <0> A   1     -25.993   3.118  52.927  0.00  0.00    +0.127 S 
ATOM     28  C4  <0> A   1     -25.927   1.953  51.713  0.00  0.00    +0.026 C 
ATOM     29  N1  <0> A   1     -27.179   1.826  51.352  0.00  0.00    -0.492 NA
ENDBRANCH  23  28
ENDBRANCH  19  23
ENDBRANCH   1  20
BRANCH   5  30
ATOM     30  C11 <0> A   1     -22.949  -3.429  51.382  0.00  0.00    +0.230 C 
ATOM     31  C12 <0> A   1     -22.680  -2.317  50.366  0.00  0.00    +0.041 C 
ATOM     32  C13 <0> A   1     -22.210  -3.119  52.686  0.00  0.00    +0.046 C 
ENDBRANCH   5  30
BRANCH   4  33
ATOM     33  C14 <0> A   1     -24.589  -6.033  51.359  0.00  0.00    +0.118 C 
BRANCH  33  34
ATOM     34  C15 <0> A   1     -24.876  -6.407  49.904  0.00  0.00    -0.009 C 
BRANCH  34  35
ATOM     35  C16 <0> A   1     -25.085  -7.919  49.797  0.00  0.00    +0.213 C 
BRANCH  35  36
ATOM     36  O5  <0> A   1     -25.582  -8.239  48.496  0.00  0.00    -0.542 OA
ATOM     37  H26 <0> A   1     -24.918  -8.619  47.904  0.00  0.00    +0.363 HD
ENDBRANCH  35  36
BRANCH  35  38
ATOM     38  C17 <0> A   1     -23.752  -8.635  50.024  0.00  0.00    -0.051 C 
BRANCH  38  39
ATOM     39  C18 <0> A   1     -24.015 -10.080  50.453  0.00  0.00    +0.230 C 
BRANCH  39  40
ATOM     40  O4  <0> A   1     -25.414 -10.258  50.691  0.00  0.00    -0.528 OA
ATOM     41  H25 <0> A   1     -25.696  -9.999  51.580  0.00  0.00    +0.349 HD
ENDBRANCH  39  40
BRANCH  39  42
ATOM     42  C19 <0> A   1     -23.561 -11.031  49.344  0.00  0.00    -0.103 C 
BRANCH  42  43
ATOM     43  C20 <0> A   1     -24.758 -11.747  48.775  0.00  0.00    +0.490 C 
ATOM     44  O2  <0> A   1     -25.461 -11.193  47.945  0.00  0.00    -0.681 OA
ATOM     45  O3  <0> A   1     -25.025 -12.878  49.142  0.00  0.00    -0.713 OA
ENDBRANCH  42  43
ENDBRANCH  39  42
ENDBRANCH  38  39
ENDBRANCH  35  38
ENDBRANCH  34  35
ENDBRANCH  33  34
ENDBRANCH   4  33
TORSDOF 15
ENDMDL
