REMARK VINA RESULT:      -7.6     21.776     23.430
REMARK  Name = CHEMBL296915
REMARK  7 active torsions:
REMARK  status: ('A' for Active; 'I' for Inactive)
REMARK    1  A    between atoms: C5_5  and  C14_15
REMARK    2  A    between atoms: C6_6  and  O1_7
REMARK    3  A    between atoms: O1_7  and  C7_8
REMARK    4  A    between atoms: C7_8  and  C8_9
REMARK    5  A    between atoms: C14_15  and  C15_16
REMARK    6  A    between atoms: C15_16  and  C16_17
REMARK    7  A    between atoms: C18_19  and  O4_25
REMARK                            x       y       z     vdW  Elec       q    Type
REMARK                         _______ _______ _______ _____ _____    ______ ____
ROOT
ATOM      1  C1  <0> A   1     -12.332  12.520  46.131  0.00  0.00    -0.053 A 
ATOM      2  C2  <0> A   1     -12.604  12.746  47.468  0.00  0.00    +0.013 A 
ATOM      3  C3  <0> A   1     -13.375  11.844  48.180  0.00  0.00    +0.007 A 
ATOM      4  C4  <0> A   1     -13.874  10.714  47.557  0.00  0.00    +0.013 A 
ATOM      5  C5  <0> A   1     -13.604  10.484  46.221  0.00  0.00    -0.102 A 
ATOM      6  C6  <0> A   1     -12.832  11.388  45.505  0.00  0.00    +0.162 A 
ATOM      7 Cl1  <0> A   1     -14.840   9.584  48.454  0.00  0.00    -0.038 Cl
ATOM      8 Cl2  <0> A   1     -11.979  14.162  48.252  0.00  0.00    -0.052 Cl
ENDROOT
BRANCH   6   9
ATOM      9  O1  <0> A   1     -12.566  11.164  44.191  0.00  0.00    -0.297 OA
BRANCH   9  10
ATOM     10  C7  <0> A   1     -13.466  11.735  43.240  0.00  0.00    +0.191 C 
BRANCH  10  11
ATOM     11  C8  <0> A   1     -13.729  10.728  42.118  0.00  0.00    +0.000 C 
ATOM     12  C9  <0> A   1     -12.552   9.757  42.019  0.00  0.00    +0.017 C 
ATOM     13  C10 <0> A   1     -12.814   8.749  40.897  0.00  0.00    +0.005 C 
ATOM     14  C11 <0> A   1     -12.972   9.495  39.570  0.00  0.00    +0.001 C 
ATOM     15  C12 <0> A   1     -14.149  10.468  39.669  0.00  0.00    +0.010 C 
ATOM     16  C13 <0> A   1     -13.888  11.474  40.792  0.00  0.00    +0.018 C 
ENDBRANCH  10  11
ENDBRANCH   9  10
ENDBRANCH   6   9
BRANCH   5  17
ATOM     17  C14 <0> A   1     -14.148   9.253  45.543  0.00  0.00    +0.097 C 
BRANCH  17  18
ATOM     18  C15 <0> A   1     -13.167   8.094  45.729  0.00  0.00    +0.061 C 
BRANCH  18  19
ATOM     19  C16 <0> A   1     -13.817   6.793  45.253  0.00  0.00    +0.199 C 
ATOM     20  C17 <0> A   1     -14.302   6.961  43.811  0.00  0.00    +0.041 C 
ATOM     21  C18 <0> A   1     -14.989   5.671  43.353  0.00  0.00    +0.184 C 
ATOM     22  C19 <0> A   1     -16.177   5.384  44.282  0.00  0.00    +0.020 C 
ATOM     23  C20 <0> A   1     -15.682   5.426  45.711  0.00  0.00    +0.496 C 
ATOM     24  O2  <0> A   1     -15.947   4.539  46.487  0.00  0.00    -0.453 OA
ATOM     25  O3  <0> A   1     -14.935   6.483  46.094  0.00  0.00    -0.366 OA
BRANCH  21  26
ATOM     26  O4  <0> A   1     -14.061   4.587  43.411  0.00  0.00    -0.563 OA
ATOM     27  H26 <0> A   1     -14.434   3.734  43.148  0.00  0.00    +0.386 HD
ENDBRANCH  21  26
ENDBRANCH  18  19
ENDBRANCH  17  18
ENDBRANCH   5  17
TORSDOF 7
