REMARK VINA RESULT:      -6.7     24.062     25.076
REMARK  Name = CHEMBL39312
REMARK  12 active torsions:
REMARK  status: ('A' for Active; 'I' for Inactive)
REMARK    1  A    between atoms: C4_4  and  C7_7
REMARK    2  A    between atoms: C7_7  and  O1_8
REMARK    3  A    between atoms: O1_8  and  C8_9
REMARK    4  A    between atoms: C13_14  and  C14_15
REMARK    5  A    between atoms: C14_15  and  C15_16
REMARK    6  A    between atoms: C15_16  and  C16_17
REMARK    7  A    between atoms: C16_17  and  C17_19
REMARK    8  A    between atoms: C16_17  and  O5_27
REMARK    9  A    between atoms: C17_19  and  C18_20
REMARK   10  A    between atoms: C18_20  and  C19_22
REMARK   11  A    between atoms: C18_20  and  O4_26
REMARK   12  A    between atoms: C19_22  and  C20_23
REMARK                            x       y       z     vdW  Elec       q    Type
REMARK                         _______ _______ _______ _____ _____    ______ ____
ROOT
ATOM      1  C8  <0> A   1       4.591  21.380  35.378  0.00  0.00    +0.159 A 
ATOM      2  C9  <0> A   1       3.714  22.061  36.209  0.00  0.00    -0.056 A 
ATOM      3  C10 <0> A   1       2.739  22.876  35.665  0.00  0.00    +0.009 A 
ATOM      4  C11 <0> A   1       2.637  23.011  34.291  0.00  0.00    +0.006 A 
ATOM      5  C12 <0> A   1       3.510  22.332  33.460  0.00  0.00    +0.011 A 
ATOM      6  C13 <0> A   1       4.491  21.521  34.001  0.00  0.00    -0.094 A 
ATOM      7 Cl1  <0> A   1       3.379  22.503  31.738  0.00  0.00    -0.040 Cl
ATOM      8 Cl2  <0> A   1       1.641  23.729  36.704  0.00  0.00    -0.057 Cl
ENDROOT
BRANCH   1   9
ATOM      9  O1  <0> A   1       5.551  20.579  35.912  0.00  0.00    -0.289 OA
BRANCH   9  10
ATOM     10  C7  <0> A   1       6.736  21.218  36.392  0.00  0.00    +0.246 C 
BRANCH  10  14
ATOM     11  C1  <0> A   1       7.838  19.522  40.154  0.00  0.00    +0.019 A 
ATOM     12  C2  <0> A   1       7.768  20.895  40.009  0.00  0.00    +0.003 A 
ATOM     13  C3  <0> A   1       7.411  21.444  38.792  0.00  0.00    +0.030 A 
ATOM     14  C4  <0> A   1       7.126  20.620  37.719  0.00  0.00    -0.099 A 
ATOM     15  C5  <0> A   1       7.196  19.246  37.864  0.00  0.00    +0.031 A 
ATOM     16  C6  <0> A   1       7.551  18.698  39.082  0.00  0.00    +0.005 A 
ENDBRANCH  10  14
ENDBRANCH   9  10
ENDBRANCH   1   9
BRANCH   6  17
ATOM     17  C14 <0> A   1       5.447  20.787  33.097  0.00  0.00    +0.097 C 
BRANCH  17  18
ATOM     18  C15 <0> A   1       4.918  19.376  32.833  0.00  0.00    -0.007 C 
BRANCH  18  19
ATOM     19  C16 <0> A   1       4.689  19.190  31.332  0.00  0.00    +0.211 C 
BRANCH  19  20
ATOM     20  O5  <0> A   1       5.528  20.093  30.607  0.00  0.00    -0.540 OA
ATOM     21  H21 <0> A   1       5.123  20.444  29.802  0.00  0.00    +0.364 HD
ENDBRANCH  19  20
BRANCH  19  22
ATOM     22  C17 <0> A   1       5.030  17.751  30.939  0.00  0.00    -0.053 C 
BRANCH  22  23
ATOM     23  C18 <0> A   1       4.267  17.375  29.667  0.00  0.00    +0.230 C 
BRANCH  23  24
ATOM     24  O4  <0> A   1       4.581  18.307  28.631  0.00  0.00    -0.528 OA
ATOM     25  H20 <0> A   1       5.031  19.104  28.943  0.00  0.00    +0.349 HD
ENDBRANCH  23  24
BRANCH  23  26
ATOM     26  C19 <0> A   1       4.671  15.967  29.228  0.00  0.00    -0.103 C 
BRANCH  26  27
ATOM     27  C20 <0> A   1       5.413  16.042  27.919  0.00  0.00    +0.490 C 
ATOM     28  O2  <0> A   1       6.624  16.179  27.911  0.00  0.00    -0.681 OA
ATOM     29  O3  <0> A   1       4.802  15.967  26.866  0.00  0.00    -0.714 OA
ENDBRANCH  26  27
ENDBRANCH  23  26
ENDBRANCH  22  23
ENDBRANCH  19  22
ENDBRANCH  18  19
ENDBRANCH  17  18
ENDBRANCH   6  17
TORSDOF 12
