REMARK VINA RESULT:      -7.9     14.453     20.587
REMARK  Name = CHEMBL253153
REMARK  15 active torsions:
REMARK  status: ('A' for Active; 'I' for Inactive)
REMARK    1  A    between atoms: C1_1  and  C2_2
REMARK    2  A    between atoms: C2_2  and  C3_3
REMARK    3  A    between atoms: C2_2  and  C4_4
REMARK    4  A    between atoms: C5_5  and  C24_29
REMARK    5  A    between atoms: N1_6  and  C18_22
REMARK    6  A    between atoms: C6_8  and  C7_9
REMARK    7  A    between atoms: C11_15  and  C12_16
REMARK    8  A    between atoms: C24_29  and  C25_30
REMARK    9  A    between atoms: C25_30  and  C26_31
REMARK   10  A    between atoms: C26_31  and  C27_33
REMARK   11  A    between atoms: C26_31  and  O5_41
REMARK   12  A    between atoms: C27_33  and  C28_34
REMARK   13  A    between atoms: C28_34  and  C29_36
REMARK   14  A    between atoms: C28_34  and  O4_40
REMARK   15  A    between atoms: C29_36  and  C30_37
REMARK                            x       y       z     vdW  Elec       q    Type
REMARK                         _______ _______ _______ _____ _____    ______ ____
ROOT
ATOM      1  C4  <0> A   1     -27.192  -4.169  51.968  0.00  0.00    -0.124 C 
ATOM      2  C5  <0> A   1     -26.957  -5.488  52.166  0.00  0.00    +0.027 C 
ATOM      3  N1  <0> A   1     -25.921  -5.834  51.360  0.00  0.00    -0.234 N 
ATOM      4  N2  <0> A   1     -25.518  -4.812  50.693  0.00  0.00    -0.257 NA
ATOM      5  C6  <0> A   1     -26.246  -3.756  51.001  0.00  0.00    -0.001 C 
ENDROOT
BRANCH   5   6
ATOM      6  C7  <0> A   1     -26.098  -2.396  50.443  0.00  0.00    +0.618 C 
ATOM      7  O1  <0> A   1     -26.926  -1.965  49.665  0.00  0.00    -0.502 OA
ATOM      8  N3  <0> A   1     -25.044  -1.634  50.796  0.00  0.00    -0.603 N 
ATOM      9  C8  <0> A   1     -23.966  -2.033  51.720  0.00  0.00    +0.263 C 
ATOM     10  C9  <0> A   1     -22.757  -1.149  51.324  0.00  0.00    +0.028 C 
ATOM     11  C10 <0> A   1     -23.453   0.191  50.969  0.00  0.00    +0.043 C 
ATOM     12  C11 <0> A   1     -24.775  -0.270  50.320  0.00  0.00    +0.266 C 
BRANCH  12  13
ATOM     13  C12 <0> A   1     -25.895   0.648  50.734  0.00  0.00    -0.084 A 
ATOM     14  C13 <0> A   1     -25.749   1.457  51.846  0.00  0.00    +0.013 A 
ATOM     15  C14 <0> A   1     -26.776   2.301  52.227  0.00  0.00    -0.001 A 
ATOM     16  C15 <0> A   1     -27.949   2.335  51.496  0.00  0.00    -0.000 A 
ATOM     17  C16 <0> A   1     -28.094   1.527  50.383  0.00  0.00    +0.002 A 
ATOM     18  C17 <0> A   1     -27.065   0.687  50.001  0.00  0.00    +0.016 A 
ENDBRANCH  12  13
ENDBRANCH   5   6
BRANCH   3  19
ATOM     19  C18 <0> A   1     -25.369  -7.120  51.270  0.00  0.00    +0.119 A 
ATOM     20  C19 <0> A   1     -25.961  -8.075  50.454  0.00  0.00    +0.068 A 
ATOM     21  C20 <0> A   1     -25.415  -9.340  50.367  0.00  0.00    +0.021 A 
ATOM     22  C21 <0> A   1     -24.279  -9.658  51.091  0.00  0.00    +0.112 A 
ATOM     23  C22 <0> A   1     -23.686  -8.707  51.905  0.00  0.00    +0.008 A 
ATOM     24  C23 <0> A   1     -24.225  -7.437  51.991  0.00  0.00    +0.070 A 
ATOM     25  F1  <0> A   1     -23.747 -10.896  51.003  0.00  0.00    -0.131 F 
ENDBRANCH   3  19
BRANCH   1  27
ATOM     26  C1  <0> A   1     -27.632  -1.983  53.052  0.00  0.00    +0.028 C 
ATOM     27  C2  <0> A   1     -28.244  -3.321  52.634  0.00  0.00    +0.061 C 
ATOM     28  C3  <0> A   1     -29.393  -3.071  51.654  0.00  0.00    +0.025 C 
ENDBRANCH   1  27
BRANCH   2  29
ATOM     29  C24 <0> A   1     -27.705  -6.399  53.104  0.00  0.00    +0.127 C 
BRANCH  29  30
ATOM     30  C25 <0> A   1     -28.905  -7.007  52.376  0.00  0.00    -0.009 C 
BRANCH  30  31
ATOM     31  C26 <0> A   1     -30.049  -7.221  53.368  0.00  0.00    +0.214 C 
BRANCH  31  32
ATOM     32  O5  <0> A   1     -29.667  -8.206  54.331  0.00  0.00    -0.540 OA
ATOM     33  H35 <0> A   1     -30.410  -8.697  54.707  0.00  0.00    +0.363 HD
ENDBRANCH  31  32
BRANCH  31  34
ATOM     34  C27 <0> A   1     -30.358  -5.903  54.082  0.00  0.00    -0.052 C 
BRANCH  34  35
ATOM     35  C28 <0> A   1     -31.822  -5.897  54.529  0.00  0.00    +0.231 C 
BRANCH  35  36
ATOM     36  O4  <0> A   1     -32.500  -7.016  53.957  0.00  0.00    -0.528 OA
ATOM     37  H34 <0> A   1     -31.959  -7.816  53.897  0.00  0.00    +0.349 HD
ENDBRANCH  35  36
BRANCH  35  38
ATOM     38  C29 <0> A   1     -31.889  -5.984  56.055  0.00  0.00    -0.103 C 
BRANCH  38  39
ATOM     39  C30 <0> A   1     -32.443  -7.326  56.458  0.00  0.00    +0.491 C 
ATOM     40  O2  <0> A   1     -31.713  -8.302  56.488  0.00  0.00    -0.681 OA
ATOM     41  O3  <0> A   1     -33.621  -7.436  56.753  0.00  0.00    -0.713 OA
ENDBRANCH  38  39
ENDBRANCH  35  38
ENDBRANCH  34  35
ENDBRANCH  31  34
ENDBRANCH  30  31
ENDBRANCH  29  30
ENDBRANCH   2  29
TORSDOF 13
