REMARK VINA RESULT:      -7.1      3.332      6.212
REMARK  Name = CHEMBL333904
REMARK  15 active torsions:
REMARK  status: ('A' for Active; 'I' for Inactive)
REMARK    1  A    between atoms: C1_1  and  C2_2
REMARK    2  A    between atoms: C2_2  and  C3_3
REMARK    3  A    between atoms: C2_2  and  C4_4
REMARK    4  A    between atoms: C6_6  and  C22_30
REMARK    5  A    between atoms: C7_7  and  C16_23
REMARK    6  A    between atoms: N1_8  and  C8_9
REMARK    7  A    between atoms: C9_10  and  C10_11
REMARK    8  A    between atoms: C10_11  and  C11_13
REMARK    9  A    between atoms: C10_11  and  O4_22
REMARK   10  A    between atoms: C11_13  and  C12_14
REMARK   11  A    between atoms: C12_14  and  C13_16
REMARK   12  A    between atoms: C12_14  and  O3_21
REMARK   13  A    between atoms: C13_16  and  C14_17
REMARK   14  A    between atoms: C14_17  and  O2_19
REMARK   15  A    between atoms: O2_19  and  C15_20
REMARK                            x       y       z     vdW  Elec       q    Type
REMARK                         _______ _______ _______ _____ _____    ______ ____
ROOT
ATOM      1  C4  <0> A   1     -13.610  10.397  43.053  0.00  0.00    +0.043 C 
ATOM      2  C5  <0> A   1     -13.628  11.517  43.800  0.00  0.00    -0.020 C 
ATOM      3  C6  <0> A   1     -13.451  11.135  45.152  0.00  0.00    -0.112 C 
ATOM      4  C7  <0> A   1     -13.330   9.754  45.167  0.00  0.00    +0.072 C 
ATOM      5  N1  <0> A   1     -13.436   9.317  43.872  0.00  0.00    -0.389 N 
ENDROOT
BRANCH   4   6
ATOM      6  C16 <0> A   1     -13.130   8.909  46.360  0.00  0.00    -0.034 A 
ATOM      7  C17 <0> A   1     -14.232   8.422  47.067  0.00  0.00    +0.056 A 
ATOM      8  C18 <0> A   1     -14.039   7.630  48.180  0.00  0.00    -0.011 A 
ATOM      9  C19 <0> A   1     -12.754   7.319  48.598  0.00  0.00    +0.106 A 
ATOM     10  C20 <0> A   1     -11.657   7.800  47.900  0.00  0.00    -0.010 A 
ATOM     11  C21 <0> A   1     -11.838   8.586  46.783  0.00  0.00    +0.069 A 
ATOM     12  F1  <0> A   1     -12.572   6.544  49.689  0.00  0.00    -0.136 F 
ENDBRANCH   4   6
BRANCH   3  13
ATOM     13  C22 <0> A   1     -13.404  12.037  46.325  0.00  0.00    +0.041 A 
ATOM     14  C23 <0> A   1     -14.557  12.308  47.071  0.00  0.00    -0.031 A 
ATOM     15  C24 <0> A   1     -14.468  13.154  48.156  0.00  0.00    +0.255 A 
ATOM     16  N2  <0> A   1     -13.317  13.705  48.493  0.00  0.00    -0.490 NA
ATOM     17  C25 <0> A   1     -12.207  13.477  47.817  0.00  0.00    +0.255 A 
ATOM     18  C26 <0> A   1     -12.205  12.638  46.722  0.00  0.00    -0.031 A 
ENDBRANCH   3  13
BRANCH   1  20
ATOM     19  C1  <0> A   1     -14.617  11.526  41.087  0.00  0.00    +0.041 C 
ATOM     20  C2  <0> A   1     -13.766  10.343  41.554  0.00  0.00    +0.050 C 
ATOM     21  C3  <0> A   1     -12.387  10.415  40.896  0.00  0.00    +0.033 C 
ENDBRANCH   1  20
BRANCH   5  22
ATOM     22  C8  <0> A   1     -13.371   7.988  43.457  0.00  0.00    +0.201 C 
ATOM     23  C9  <0> A   1     -14.431   7.210  43.562  0.00  0.00    -0.056 C 
BRANCH  23  24
ATOM     24  C10 <0> A   1     -14.360   5.774  43.112  0.00  0.00    +0.268 C 
BRANCH  24  25
ATOM     25  O4  <0> A   1     -12.995   5.356  43.066  0.00  0.00    -0.538 OA
ATOM     26  H21 <0> A   1     -12.531   5.614  42.257  0.00  0.00    +0.370 HD
ENDBRANCH  24  25
BRANCH  24  27
ATOM     27  C11 <0> A   1     -15.128   4.893  44.099  0.00  0.00    -0.015 C 
BRANCH  27  28
ATOM     28  C12 <0> A   1     -16.279   5.694  44.710  0.00  0.00    +0.233 C 
BRANCH  28  29
ATOM     29  O3  <0> A   1     -17.506   5.325  44.078  0.00  0.00    -0.530 OA
ATOM     30  H20 <0> A   1     -18.214   5.975  44.186  0.00  0.00    +0.366 HD
ENDBRANCH  28  29
BRANCH  28  31
ATOM     31  C13 <0> A   1     -16.369   5.398  46.208  0.00  0.00    +0.073 C 
BRANCH  31  32
ATOM     32  C14 <0> A   1     -17.367   6.331  46.846  0.00  0.00    +0.456 C 
ATOM     33  O1  <0> A   1     -18.167   6.921  46.159  0.00  0.00    -0.486 OA
BRANCH  32  34
ATOM     34  O2  <0> A   1     -17.367   6.504  48.177  0.00  0.00    -0.359 OA
ATOM     35  C15 <0> A   1     -17.744   5.381  48.978  0.00  0.00    +0.258 C 
ENDBRANCH  32  34
ENDBRANCH  31  32
ENDBRANCH  28  31
ENDBRANCH  27  28
ENDBRANCH  24  27
ENDBRANCH  23  24
ENDBRANCH   5  22
TORSDOF 12
