REMARK VINA RESULT:      -7.5     15.887     20.532
REMARK  Name = CHEMBL471744
REMARK  17 active torsions:
REMARK  status: ('A' for Active; 'I' for Inactive)
REMARK    1  A    between atoms: C1_1  and  C2_2
REMARK    2  A    between atoms: C2_2  and  C3_3
REMARK    3  A    between atoms: C4_4  and  C23_31
REMARK    4  A    between atoms: C5_5  and  C20_28
REMARK    5  A    between atoms: C6_6  and  C14_21
REMARK    6  A    between atoms: N1_7  and  C7_8
REMARK    7  A    between atoms: C7_8  and  C8_9
REMARK    8  A    between atoms: C8_9  and  C9_10
REMARK    9  A    between atoms: C9_10  and  C10_12
REMARK   10  A    between atoms: C9_10  and  O4_20
REMARK   11  A    between atoms: C10_12  and  C11_13
REMARK   12  A    between atoms: C11_13  and  C12_15
REMARK   13  A    between atoms: C11_13  and  O3_19
REMARK   14  A    between atoms: C12_15  and  C13_16
REMARK   15  A    between atoms: C20_28  and  C21_29
REMARK   16  A    between atoms: C20_28  and  C22_30
REMARK   17  A    between atoms: N2_33  and  C24_34
REMARK                            x       y       z     vdW  Elec       q    Type
REMARK                         _______ _______ _______ _____ _____    ______ ____
ROOT
ATOM      1  C3  <0> A   1     -25.588  -4.009  50.846  0.00  0.00    +0.089 C 
ATOM      2  C4  <0> A   1     -26.740  -3.287  50.621  0.00  0.00    -0.221 C 
ATOM      3  C5  <0> A   1     -27.793  -4.227  50.468  0.00  0.00    -0.086 C 
ATOM      4  C6  <0> A   1     -27.246  -5.462  50.603  0.00  0.00    +0.043 C 
ATOM      5  N1  <0> A   1     -25.899  -5.320  50.829  0.00  0.00    -0.413 N 
ENDROOT
BRANCH   4   6
ATOM      6  C14 <0> A   1     -27.977  -6.746  50.517  0.00  0.00    -0.023 A 
ATOM      7  C15 <0> A   1     -28.477  -7.346  51.673  0.00  0.00    +0.065 A 
ATOM      8  C16 <0> A   1     -29.158  -8.542  51.587  0.00  0.00    -0.009 A 
ATOM      9  C17 <0> A   1     -29.345  -9.149  50.355  0.00  0.00    +0.102 A 
ATOM     10  C18 <0> A   1     -28.849  -8.558  49.204  0.00  0.00    -0.006 A 
ATOM     11  C19 <0> A   1     -28.173  -7.358  49.278  0.00  0.00    +0.046 A 
ATOM     12  F1  <0> A   1     -30.012 -10.320  50.277  0.00  0.00    -0.138 F 
ENDBRANCH   4   6
BRANCH   2  13
ATOM     13  C23 <0> A   1     -26.858  -1.821  50.553  0.00  0.00    +0.606 C 
ATOM     14  O5  <0> A   1     -26.476  -1.225  49.564  0.00  0.00    -0.512 OA
ATOM     15  N2  <0> A   1     -27.391  -1.139  51.586  0.00  0.00    -0.671 N 
ATOM     16  H29 <0> A   1     -27.766  -1.618  52.342  0.00  0.00    +0.411 HD
BRANCH  15  17
ATOM     17  C24 <0> A   1     -27.403   0.259  51.570  0.00  0.00    +0.151 A 
ATOM     18  C25 <0> A   1     -26.260   0.970  51.913  0.00  0.00    -0.024 A 
ATOM     19  C26 <0> A   1     -26.275   2.351  51.897  0.00  0.00    +0.024 A 
ATOM     20  C27 <0> A   1     -27.428   3.026  51.541  0.00  0.00    -0.018 A 
ATOM     21  C28 <0> A   1     -28.569   2.322  51.200  0.00  0.00    +0.024 A 
ATOM     22  C29 <0> A   1     -28.558   0.941  51.207  0.00  0.00    +0.011 A 
ENDBRANCH  15  17
ENDBRANCH   2  13
BRANCH   3  23
ATOM     23  C20 <0> A   1     -29.242  -3.914  50.204  0.00  0.00    +0.048 C 
ATOM     24  C21 <0> A   1     -29.705  -4.662  48.951  0.00  0.00    +0.021 C 
ATOM     25  C22 <0> A   1     -30.086  -4.355  51.402  0.00  0.00    +0.024 C 
ENDBRANCH   3  23
BRANCH   1  27
ATOM     26  C1  <0> A   1     -24.194  -2.650  52.384  0.00  0.00    +0.035 C 
ATOM     27  C2  <0> A   1     -24.214  -3.430  51.068  0.00  0.00    +0.099 C 
ENDBRANCH   1  27
BRANCH   5  28
ATOM     28  C7  <0> A   1     -24.951  -6.420  51.023  0.00  0.00    +0.293 C 
BRANCH  28  29
ATOM     29  C8  <0> A   1     -24.393  -6.857  49.668  0.00  0.00    -0.014 C 
BRANCH  29  30
ATOM     30  C9  <0> A   1     -24.496  -8.378  49.540  0.00  0.00    +0.217 C 
BRANCH  30  31
ATOM     31  O4  <0> A   1     -23.202  -8.923  49.274  0.00  0.00    -0.541 OA
ATOM     32  H17 <0> A   1     -23.140  -9.397  48.434  0.00  0.00    +0.366 HD
ENDBRANCH  30  31
BRANCH  30  33
ATOM     33  C10 <0> A   1     -25.037  -8.965  50.845  0.00  0.00    -0.048 C 
BRANCH  33  34
ATOM     34  C11 <0> A   1     -25.758 -10.282  50.553  0.00  0.00    +0.231 C 
BRANCH  34  35
ATOM     35  O3  <0> A   1     -26.018 -10.381  49.151  0.00  0.00    -0.528 OA
ATOM     36  H16 <0> A   1     -26.890 -10.056  48.888  0.00  0.00    +0.350 HD
ENDBRANCH  34  35
BRANCH  34  37
ATOM     37  C12 <0> A   1     -24.877 -11.454  50.991  0.00  0.00    -0.102 C 
BRANCH  37  38
ATOM     38  C13 <0> A   1     -24.482 -12.265  49.784  0.00  0.00    +0.490 C 
ATOM     39  O1  <0> A   1     -23.536 -11.916  49.098  0.00  0.00    -0.681 OA
ATOM     40  O2  <0> A   1     -25.107 -13.270  49.494  0.00  0.00    -0.712 OA
ENDBRANCH  37  38
ENDBRANCH  34  37
ENDBRANCH  33  34
ENDBRANCH  30  33
ENDBRANCH  29  30
ENDBRANCH  28  29
ENDBRANCH   5  28
TORSDOF 14
