REMARK VINA RESULT:      -8.2      1.336      1.933
REMARK  Name = CHEMBL398403
REMARK  17 active torsions:
REMARK  status: ('A' for Active; 'I' for Inactive)
REMARK    1  A    between atoms: C1_1  and  C2_2
REMARK    2  A    between atoms: C2_2  and  N1_3
REMARK    3  A    between atoms: C3_4  and  C23_29
REMARK    4  A    between atoms: C4_5  and  C17_22
REMARK    5  A    between atoms: C5_6  and  C16_21
REMARK    6  A    between atoms: C6_7  and  C7_8
REMARK    7  A    between atoms: N2_10  and  C8_11
REMARK    8  A    between atoms: C8_11  and  C9_12
REMARK    9  A    between atoms: C12_15  and  C15_18
REMARK   10  A    between atoms: C23_29  and  C24_30
REMARK   11  A    between atoms: C24_30  and  C25_31
REMARK   12  A    between atoms: C25_31  and  C26_33
REMARK   13  A    between atoms: C25_31  and  O7_41
REMARK   14  A    between atoms: C26_33  and  C27_34
REMARK   15  A    between atoms: C27_34  and  C28_36
REMARK   16  A    between atoms: C27_34  and  O6_40
REMARK   17  A    between atoms: C28_36  and  C29_37
REMARK                            x       y       z     vdW  Elec       q    Type
REMARK                         _______ _______ _______ _____ _____    ______ ____
ROOT
ATOM      1  N1  <0> A   1     -11.664   7.504  45.995  0.00  0.00    -0.407 N 
ATOM      2  C3  <0> A   1     -12.950   7.769  45.685  0.00  0.00    +0.073 C 
ATOM      3  C4  <0> A   1     -13.755   7.119  46.577  0.00  0.00    -0.145 C 
ATOM      4  C5  <0> A   1     -12.919   6.424  47.473  0.00  0.00    -0.090 C 
ATOM      5  C6  <0> A   1     -11.630   6.671  47.091  0.00  0.00    -0.043 C 
ATOM      6  C16 <0> A   1     -13.363   5.567  48.630  0.00  0.00    +0.108 C 
ENDROOT
BRANCH   3   7
ATOM      7  C17 <0> A   1     -15.240   7.141  46.598  0.00  0.00    -0.002 A 
ATOM      8  C18 <0> A   1     -15.913   7.996  47.468  0.00  0.00    +0.050 A 
ATOM      9  C19 <0> A   1     -17.293   8.014  47.484  0.00  0.00    -0.017 A 
ATOM     10  C20 <0> A   1     -18.008   7.182  46.638  0.00  0.00    +0.089 A 
ATOM     11  C21 <0> A   1     -17.343   6.331  45.772  0.00  0.00    -0.019 A 
ATOM     12  C22 <0> A   1     -15.963   6.312  45.744  0.00  0.00    +0.052 A 
ATOM     13  F1  <0> A   1     -19.359   7.202  46.658  0.00  0.00    -0.144 F 
ENDBRANCH   3   7
BRANCH   5  14
ATOM     14  C7  <0> A   1     -10.423   6.145  47.738  0.00  0.00    +0.594 C 
ATOM     15  O1  <0> A   1     -10.113   6.530  48.851  0.00  0.00    -0.530 OA
ATOM     16  N2  <0> A   1      -9.657   5.238  47.101  0.00  0.00    -0.713 N 
ATOM     17  H8  <0> A   1      -9.862   4.986  46.187  0.00  0.00    +0.406 HD
BRANCH  16  18
ATOM     18  C8  <0> A   1      -8.516   4.631  47.789  0.00  0.00    +0.315 C 
BRANCH  18  19
ATOM     19  C9  <0> A   1      -7.748   3.765  46.823  0.00  0.00    -0.128 A 
ATOM     20  C10 <0> A   1      -7.532   4.204  45.528  0.00  0.00    -0.003 A 
ATOM     21  C11 <0> A   1      -6.830   3.417  44.639  0.00  0.00    +0.039 A 
ATOM     22  C12 <0> A   1      -6.337   2.176  45.048  0.00  0.00    -0.122 A 
ATOM     23  C13 <0> A   1      -6.559   1.740  46.358  0.00  0.00    +0.039 A 
ATOM     24  C14 <0> A   1      -7.258   2.539  47.238  0.00  0.00    -0.001 A 
BRANCH  22  25
ATOM     25  C15 <0> A   1      -5.586   1.327  44.103  0.00  0.00    +0.518 C 
ATOM     26  O2  <0> A   1      -4.468   1.661  43.738  0.00  0.00    -0.686 OA
ATOM     27  O3  <0> A   1      -6.081   0.290  43.685  0.00  0.00    -0.686 OA
ENDBRANCH  22  25
ENDBRANCH  18  19
ENDBRANCH  16  18
ENDBRANCH   5  14
BRANCH   1  29
ATOM     28  C1  <0> A   1     -10.165   9.424  45.774  0.00  0.00    +0.038 C 
ATOM     29  C2  <0> A   1     -10.493   8.014  45.277  0.00  0.00    +0.281 C 
ENDBRANCH   1  29
BRANCH   2  30
ATOM     30  C23 <0> A   1     -13.419   8.636  44.546  0.00  0.00    +0.116 C 
BRANCH  30  31
ATOM     31  C24 <0> A   1     -13.705  10.047  45.064  0.00  0.00    -0.008 C 
BRANCH  31  32
ATOM     32  C25 <0> A   1     -13.568  11.050  43.917  0.00  0.00    +0.212 C 
BRANCH  32  33
ATOM     33  O7  <0> A   1     -12.794  12.169  44.354  0.00  0.00    -0.542 OA
ATOM     34  H31 <0> A   1     -12.649  12.199  45.309  0.00  0.00    +0.363 HD
ENDBRANCH  32  33
BRANCH  32  35
ATOM     35  C26 <0> A   1     -12.869  10.378  42.734  0.00  0.00    -0.051 C 
BRANCH  35  36
ATOM     36  C27 <0> A   1     -13.759  10.474  41.494  0.00  0.00    +0.230 C 
BRANCH  36  37
ATOM     37  O6  <0> A   1     -14.343  11.778  41.427  0.00  0.00    -0.528 OA
ATOM     38  H30 <0> A   1     -13.772  12.481  41.765  0.00  0.00    +0.349 HD
ENDBRANCH  36  37
BRANCH  36  39
ATOM     39  C28 <0> A   1     -12.917  10.229  40.240  0.00  0.00    -0.103 C 
BRANCH  39  40
ATOM     40  C29 <0> A   1     -13.120  11.362  39.268  0.00  0.00    +0.491 C 
ATOM     41  O4  <0> A   1     -14.205  11.519  38.733  0.00  0.00    -0.681 OA
ATOM     42  O5  <0> A   1     -12.201  12.123  39.017  0.00  0.00    -0.715 OA
ENDBRANCH  39  40
ENDBRANCH  36  39
ENDBRANCH  35  36
ENDBRANCH  32  35
ENDBRANCH  31  32
ENDBRANCH  30  31
ENDBRANCH   2  30
TORSDOF 15
