REMARK VINA RESULT:      -7.4      2.609      7.885
REMARK  Name = CHEMBL250707
REMARK  16 active torsions:
REMARK  status: ('A' for Active; 'I' for Inactive)
REMARK    1  A    between atoms: C1_1  and  C2_2
REMARK    2  A    between atoms: C2_2  and  C3_3
REMARK    3  A    between atoms: C2_2  and  N1_4
REMARK    4  A    between atoms: C4_5  and  C24_28
REMARK    5  A    between atoms: C5_6  and  C18_21
REMARK    6  A    between atoms: C6_7  and  C12_15
REMARK    7  A    between atoms: C7_8  and  C8_9
REMARK    8  A    between atoms: N2_11  and  C9_12
REMARK    9  A    between atoms: C24_28  and  C25_29
REMARK   10  A    between atoms: C25_29  and  C26_30
REMARK   11  A    between atoms: C26_30  and  C27_32
REMARK   12  A    between atoms: C26_30  and  O5_40
REMARK   13  A    between atoms: C27_32  and  C28_33
REMARK   14  A    between atoms: C28_33  and  C29_35
REMARK   15  A    between atoms: C28_33  and  O4_39
REMARK   16  A    between atoms: C29_35  and  C30_36
REMARK                            x       y       z     vdW  Elec       q    Type
REMARK                         _______ _______ _______ _____ _____    ______ ____
ROOT
ATOM      1  N1  <0> A   1     -14.777   6.854  45.148  0.00  0.00    -0.402 N 
ATOM      2  C4  <0> A   1     -15.482   7.049  46.288  0.00  0.00    +0.074 C 
ATOM      3  C5  <0> A   1     -15.059   8.200  46.882  0.00  0.00    -0.122 C 
ATOM      4  C6  <0> A   1     -14.036   8.750  46.067  0.00  0.00    -0.057 C 
ATOM      5  C7  <0> A   1     -13.877   7.883  44.992  0.00  0.00    -0.033 C 
ENDROOT
BRANCH   3   6
ATOM      6  C18 <0> A   1     -15.574   8.775  48.150  0.00  0.00    -0.009 A 
ATOM      7  C19 <0> A   1     -15.148   8.262  49.374  0.00  0.00    +0.050 A 
ATOM      8  C20 <0> A   1     -15.630   8.799  50.550  0.00  0.00    -0.016 A 
ATOM      9  C21 <0> A   1     -16.534   9.849  50.515  0.00  0.00    +0.095 A 
ATOM     10  C22 <0> A   1     -16.960  10.362  49.301  0.00  0.00    -0.017 A 
ATOM     11  C23 <0> A   1     -16.479   9.834  48.120  0.00  0.00    +0.055 A 
ATOM     12  F1  <0> A   1     -17.003  10.371  51.669  0.00  0.00    -0.142 F 
ENDBRANCH   3   6
BRANCH   4  13
ATOM     13  C12 <0> A   1     -13.282   9.999  46.315  0.00  0.00    -0.010 A 
ATOM     14  C13 <0> A   1     -13.699  11.196  45.732  0.00  0.00    +0.026 A 
ATOM     15  C14 <0> A   1     -12.993  12.358  45.967  0.00  0.00    +0.003 A 
ATOM     16  C15 <0> A   1     -11.872  12.336  46.778  0.00  0.00    -0.002 A 
ATOM     17  C16 <0> A   1     -11.453  11.153  47.359  0.00  0.00    +0.001 A 
ATOM     18  C17 <0> A   1     -12.156   9.986  47.137  0.00  0.00    +0.009 A 
ENDBRANCH   4  13
BRANCH   5  19
ATOM     19  C8  <0> A   1     -12.926   8.040  43.890  0.00  0.00    +0.608 C 
ATOM     20  O1  <0> A   1     -11.805   7.572  43.982  0.00  0.00    -0.517 OA
ATOM     21  N2  <0> A   1     -13.290   8.702  42.774  0.00  0.00    -0.693 N 
ATOM     22  H10 <0> A   1     -14.158   9.133  42.727  0.00  0.00    +0.404 HD
BRANCH  21  23
ATOM     23  C9  <0> A   1     -12.374   8.774  41.632  0.00  0.00    +0.217 C 
ATOM     24  C10 <0> A   1     -12.959   9.195  40.282  0.00  0.00    +0.009 C 
ATOM     25  C11 <0> A   1     -12.551   7.739  40.519  0.00  0.00    +0.017 C 
ENDBRANCH  21  23
ENDBRANCH   5  19
BRANCH   1  27
ATOM     26  C1  <0> A   1     -14.650   4.419  44.974  0.00  0.00    +0.045 C 
ATOM     27  C2  <0> A   1     -14.942   5.724  44.231  0.00  0.00    +0.230 C 
ATOM     28  C3  <0> A   1     -16.377   5.700  43.703  0.00  0.00    +0.041 C 
ENDBRANCH   1  27
BRANCH   2  29
ATOM     29  C24 <0> A   1     -16.561   6.139  46.815  0.00  0.00    +0.117 C 
BRANCH  29  30
ATOM     30  C25 <0> A   1     -17.930   6.668  46.382  0.00  0.00    -0.007 C 
BRANCH  30  31
ATOM     31  C26 <0> A   1     -18.807   6.890  47.616  0.00  0.00    +0.212 C 
BRANCH  31  32
ATOM     32  O5  <0> A   1     -20.133   6.433  47.346  0.00  0.00    -0.542 OA
ATOM     33  H34 <0> A   1     -20.825   7.051  47.619  0.00  0.00    +0.362 HD
ENDBRANCH  31  32
BRANCH  31  34
ATOM     34  C27 <0> A   1     -18.230   6.111  48.799  0.00  0.00    -0.051 C 
BRANCH  34  35
ATOM     35  C28 <0> A   1     -18.764   6.698  50.106  0.00  0.00    +0.230 C 
BRANCH  35  36
ATOM     36  O4  <0> A   1     -19.688   7.749  49.815  0.00  0.00    -0.528 OA
ATOM     37  H33 <0> A   1     -19.418   8.317  49.080  0.00  0.00    +0.349 HD
ENDBRANCH  35  36
BRANCH  35  38
ATOM     38  C29 <0> A   1     -19.474   5.604  50.907  0.00  0.00    -0.103 C 
BRANCH  38  39
ATOM     39  C30 <0> A   1     -20.943   5.611  50.575  0.00  0.00    +0.490 C 
ATOM     40  O2  <0> A   1     -21.360   4.952  49.638  0.00  0.00    -0.681 OA
ATOM     41  O3  <0> A   1     -21.715   6.277  51.243  0.00  0.00    -0.713 OA
ENDBRANCH  38  39
ENDBRANCH  35  38
ENDBRANCH  34  35
ENDBRANCH  31  34
ENDBRANCH  30  31
ENDBRANCH  29  30
ENDBRANCH   2  29
TORSDOF 14
