REMARK VINA RESULT:      -7.4      2.313      4.452
REMARK  Name = CHEMBL101774
REMARK  17 active torsions:
REMARK  status: ('A' for Active; 'I' for Inactive)
REMARK    1  A    between atoms: C1_1  and  C2_2
REMARK    2  A    between atoms: C4_4  and  C25_32
REMARK    3  A    between atoms: C5_5  and  O1_20
REMARK    4  A    between atoms: C6_6  and  C8_8
REMARK    5  A    between atoms: C8_8  and  C9_9
REMARK    6  A    between atoms: C8_8  and  C13_13
REMARK    7  A    between atoms: C9_9  and  C10_10
REMARK    8  A    between atoms: C10_10  and  C11_11
REMARK    9  A    between atoms: C10_10  and  C12_12
REMARK   10  A    between atoms: O1_20  and  C19_21
REMARK   11  A    between atoms: C19_21  and  C20_22
REMARK   12  A    between atoms: C20_22  and  C21_23
REMARK   13  A    between atoms: C20_22  and  O5_31
REMARK   14  A    between atoms: C21_23  and  C22_24
REMARK   15  A    between atoms: C22_24  and  C23_26
REMARK   16  A    between atoms: C22_24  and  O4_30
REMARK   17  A    between atoms: C23_26  and  C24_27
REMARK                            x       y       z     vdW  Elec       q    Type
REMARK                         _______ _______ _______ _____ _____    ______ ____
ROOT
ATOM      1  C1  <0> A   1     -14.757  11.745  47.752  0.00  0.00    +0.087 C 
ATOM      2  C2  <0> A   1     -14.365  10.936  46.542  0.00  0.00    -0.087 A 
ATOM      3  C3  <0> A   1     -14.005  11.575  45.370  0.00  0.00    +0.008 A 
ATOM      4  C4  <0> A   1     -13.647  10.837  44.260  0.00  0.00    -0.094 A 
ATOM      5  C5  <0> A   1     -13.648   9.450  44.321  0.00  0.00    +0.096 A 
ATOM      6  C6  <0> A   1     -14.008   8.811  45.499  0.00  0.00    -0.076 A 
ATOM      7  C7  <0> A   1     -14.362   9.555  46.608  0.00  0.00    +0.012 A 
ATOM      8  C25 <0> A   1     -13.255  11.535  42.983  0.00  0.00    +0.096 C 
ENDROOT
BRANCH   6   9
ATOM      9  C8  <0> A   1     -14.011   7.305  45.568  0.00  0.00    +0.088 C 
BRANCH   9  10
ATOM     10  C13 <0> A   1     -13.053   6.851  46.640  0.00  0.00    -0.080 A 
ATOM     11  C14 <0> A   1     -13.535   6.244  47.785  0.00  0.00    +0.044 A 
ATOM     12  C15 <0> A   1     -12.659   5.827  48.768  0.00  0.00    -0.018 A 
ATOM     13  C16 <0> A   1     -11.296   6.016  48.606  0.00  0.00    +0.093 A 
ATOM     14  C17 <0> A   1     -10.814   6.624  47.459  0.00  0.00    -0.009 A 
ATOM     15  C18 <0> A   1     -11.693   7.035  46.475  0.00  0.00    +0.046 A 
ATOM     16  F1  <0> A   1     -10.438   5.609  49.567  0.00  0.00    -0.141 F 
ENDBRANCH   9  10
BRANCH   9  17
ATOM     17  C9  <0> A   1     -15.420   6.813  45.901  0.00  0.00    +0.032 C 
BRANCH  17  18
ATOM     18  C10 <0> A   1     -15.851   5.767  44.871  0.00  0.00    -0.023 C 
ATOM     19  C11 <0> A   1     -15.036   5.949  43.589  0.00  0.00    +0.018 C 
ATOM     20  C12 <0> A   1     -15.610   4.366  45.435  0.00  0.00    +0.011 C 
ENDBRANCH  17  18
ENDBRANCH   9  17
ENDBRANCH   6   9
BRANCH   5  21
ATOM     21  O1  <0> A   1     -13.296   8.720  43.231  0.00  0.00    -0.317 OA
BRANCH  21  22
ATOM     22  C19 <0> A   1     -11.908   8.420  43.071  0.00  0.00    +0.144 C 
BRANCH  22  23
ATOM     23  C20 <0> A   1     -11.711   7.567  41.817  0.00  0.00    +0.224 C 
BRANCH  23  24
ATOM     24  O5  <0> A   1     -11.627   6.189  42.186  0.00  0.00    -0.531 OA
ATOM     25  H29 <0> A   1     -11.236   5.623  41.506  0.00  0.00    +0.363 HD
ENDBRANCH  23  24
BRANCH  23  26
ATOM     26  C21 <0> A   1     -12.894   7.771  40.869  0.00  0.00    -0.044 C 
BRANCH  26  27
ATOM     27  C22 <0> A   1     -12.638   8.995  39.989  0.00  0.00    +0.235 C 
BRANCH  27  28
ATOM     28  O4  <0> A   1     -12.126   8.573  38.723  0.00  0.00    -0.527 OA
ATOM     29  H28 <0> A   1     -11.235   8.199  38.764  0.00  0.00    +0.350 HD
ENDBRANCH  27  28
BRANCH  27  30
ATOM     30  C23 <0> A   1     -13.948   9.757  39.780  0.00  0.00    -0.101 C 
BRANCH  30  31
ATOM     31  C24 <0> A   1     -13.648  11.205  39.489  0.00  0.00    +0.491 C 
ATOM     32  O2  <0> A   1     -14.396  12.076  39.898  0.00  0.00    -0.680 OA
ATOM     33  O3  <0> A   1     -12.656  11.505  38.847  0.00  0.00    -0.713 OA
ENDBRANCH  30  31
ENDBRANCH  27  30
ENDBRANCH  26  27
ENDBRANCH  23  26
ENDBRANCH  22  23
ENDBRANCH  21  22
ENDBRANCH   5  21
TORSDOF 13
