REMARK VINA RESULT:      -8.1      1.495      2.405
REMARK  Name = CHEMBL253153
REMARK  15 active torsions:
REMARK  status: ('A' for Active; 'I' for Inactive)
REMARK    1  A    between atoms: C1_1  and  C2_2
REMARK    2  A    between atoms: C2_2  and  C3_3
REMARK    3  A    between atoms: C2_2  and  C4_4
REMARK    4  A    between atoms: C5_5  and  C24_29
REMARK    5  A    between atoms: N1_6  and  C18_22
REMARK    6  A    between atoms: C6_8  and  C7_9
REMARK    7  A    between atoms: C11_15  and  C12_16
REMARK    8  A    between atoms: C24_29  and  C25_30
REMARK    9  A    between atoms: C25_30  and  C26_31
REMARK   10  A    between atoms: C26_31  and  C27_33
REMARK   11  A    between atoms: C26_31  and  O5_41
REMARK   12  A    between atoms: C27_33  and  C28_34
REMARK   13  A    between atoms: C28_34  and  C29_36
REMARK   14  A    between atoms: C28_34  and  O4_40
REMARK   15  A    between atoms: C29_36  and  C30_37
REMARK                            x       y       z     vdW  Elec       q    Type
REMARK                         _______ _______ _______ _____ _____    ______ ____
ROOT
ATOM      1  C4  <0> A   1     -14.939   6.936  45.495  0.00  0.00    -0.124 C 
ATOM      2  C5  <0> A   1     -14.235   8.010  45.066  0.00  0.00    +0.027 C 
ATOM      3  N1  <0> A   1     -14.161   8.880  46.106  0.00  0.00    -0.234 N 
ATOM      4  N2  <0> A   1     -14.773   8.399  47.129  0.00  0.00    -0.257 NA
ATOM      5  C6  <0> A   1     -15.282   7.219  46.838  0.00  0.00    -0.001 C 
ENDROOT
BRANCH   5   6
ATOM      6  C7  <0> A   1     -16.061   6.351  47.745  0.00  0.00    +0.618 C 
ATOM      7  O1  <0> A   1     -15.496   5.504  48.409  0.00  0.00    -0.502 OA
ATOM      8  N3  <0> A   1     -17.397   6.500  47.838  0.00  0.00    -0.603 N 
ATOM      9  C8  <0> A   1     -18.207   7.480  47.089  0.00  0.00    +0.263 C 
ATOM     10  C9  <0> A   1     -19.629   6.869  47.050  0.00  0.00    +0.028 C 
ATOM     11  C10 <0> A   1     -19.727   6.215  48.452  0.00  0.00    +0.043 C 
ATOM     12  C11 <0> A   1     -18.290   5.710  48.697  0.00  0.00    +0.266 C 
BRANCH  12  13
ATOM     13  C12 <0> A   1     -17.918   5.908  50.143  0.00  0.00    -0.084 A 
ATOM     14  C13 <0> A   1     -17.643   7.177  50.618  0.00  0.00    +0.013 A 
ATOM     15  C14 <0> A   1     -17.302   7.360  51.945  0.00  0.00    -0.001 A 
ATOM     16  C15 <0> A   1     -17.237   6.273  52.798  0.00  0.00    -0.000 A 
ATOM     17  C16 <0> A   1     -17.513   5.005  52.323  0.00  0.00    +0.002 A 
ATOM     18  C17 <0> A   1     -17.858   4.823  50.997  0.00  0.00    +0.016 A 
ENDBRANCH  12  13
ENDBRANCH   5   6
BRANCH   3  19
ATOM     19  C18 <0> A   1     -13.510  10.122  46.070  0.00  0.00    +0.119 A 
ATOM     20  C19 <0> A   1     -14.149  11.225  45.521  0.00  0.00    +0.068 A 
ATOM     21  C20 <0> A   1     -13.507  12.447  45.486  0.00  0.00    +0.021 A 
ATOM     22  C21 <0> A   1     -12.227  12.573  45.999  0.00  0.00    +0.112 A 
ATOM     23  C22 <0> A   1     -11.588  11.473  46.548  0.00  0.00    +0.008 A 
ATOM     24  C23 <0> A   1     -12.230  10.250  46.590  0.00  0.00    +0.070 A 
ATOM     25  F1  <0> A   1     -11.601  13.769  45.965  0.00  0.00    -0.131 F 
ENDBRANCH   3  19
BRANCH   1  27
ATOM     26  C1  <0> A   1     -14.822   4.460  45.465  0.00  0.00    +0.028 C 
ATOM     27  C2  <0> A   1     -15.289   5.702  44.704  0.00  0.00    +0.061 C 
ATOM     28  C3  <0> A   1     -16.805   5.637  44.505  0.00  0.00    +0.025 C 
ENDBRANCH   1  27
BRANCH   2  29
ATOM     29  C24 <0> A   1     -13.644   8.204  43.694  0.00  0.00    +0.127 C 
BRANCH  29  30
ATOM     30  C25 <0> A   1     -12.233   7.613  43.658  0.00  0.00    -0.009 C 
BRANCH  30  31
ATOM     31  C26 <0> A   1     -11.786   7.449  42.205  0.00  0.00    +0.214 C 
BRANCH  31  32
ATOM     32  O5  <0> A   1     -11.579   6.063  41.923  0.00  0.00    -0.540 OA
ATOM     33  H35 <0> A   1     -11.423   5.521  42.709  0.00  0.00    +0.363 HD
ENDBRANCH  31  32
BRANCH  31  34
ATOM     34  C27 <0> A   1     -12.865   8.003  41.273  0.00  0.00    -0.052 C 
BRANCH  34  35
ATOM     35  C28 <0> A   1     -12.298   9.182  40.480  0.00  0.00    +0.231 C 
BRANCH  35  36
ATOM     36  O4  <0> A   1     -12.426   8.922  39.081  0.00  0.00    -0.528 OA
ATOM     37  H34 <0> A   1     -12.230   8.008  38.831  0.00  0.00    +0.349 HD
ENDBRANCH  35  36
BRANCH  35  38
ATOM     38  C29 <0> A   1     -13.070  10.455  40.835  0.00  0.00    -0.103 C 
BRANCH  38  39
ATOM     39  C30 <0> A   1     -13.277  11.281  39.593  0.00  0.00    +0.491 C 
ATOM     40  O2  <0> A   1     -12.347  11.909  39.116  0.00  0.00    -0.681 OA
ATOM     41  O3  <0> A   1     -14.375  11.320  39.063  0.00  0.00    -0.713 OA
ENDBRANCH  38  39
ENDBRANCH  35  38
ENDBRANCH  34  35
ENDBRANCH  31  34
ENDBRANCH  30  31
ENDBRANCH  29  30
ENDBRANCH   2  29
TORSDOF 13
