REMARK  Name = CHEMBL100721
REMARK  12 active torsions:
REMARK  status: ('A' for Active; 'I' for Inactive)
REMARK    1  A    between atoms: C6_6  and  C7_7
REMARK    2  A    between atoms: C7_7  and  C8_8
REMARK    3  A    between atoms: C7_7  and  C14_15
REMARK    4  A    between atoms: C19_20  and  O1_21
REMARK    5  A    between atoms: O1_21  and  C20_22
REMARK    6  A    between atoms: C20_22  and  C21_23
REMARK    7  A    between atoms: C21_23  and  C22_24
REMARK    8  A    between atoms: C21_23  and  O5_32
REMARK    9  A    between atoms: C22_24  and  C23_25
REMARK   10  A    between atoms: C23_25  and  C24_27
REMARK   11  A    between atoms: C23_25  and  O4_31
REMARK   12  A    between atoms: C24_27  and  C25_28
REMARK                            x       y       z     vdW  Elec       q    Type
REMARK                         _______ _______ _______ _____ _____    ______ ____
ROOT
ATOM      1  C14 <0> A   1      -0.855  -1.690   1.124  0.00  0.00    -0.071 A 
ATOM      2  C15 <0> A   1       0.387  -2.294   1.074  0.00  0.00    +0.059 A 
ATOM      3  C16 <0> A   1       0.790  -3.135   2.096  0.00  0.00    -0.030 A 
ATOM      4  C17 <0> A   1      -0.049  -3.374   3.170  0.00  0.00    +0.058 A 
ATOM      5  C18 <0> A   1      -1.292  -2.772   3.224  0.00  0.00    -0.045 A 
ATOM      6  C19 <0> A   1      -1.695  -1.923   2.202  0.00  0.00    +0.124 A 
ATOM      7 Cl1  <0> A   1      -2.345  -3.073   4.571  0.00  0.00    -0.036 Cl
ATOM      8 Cl2  <0> A   1       2.351  -3.893   2.030  0.00  0.00    -0.053 Cl
ENDROOT
BRANCH   1   9
ATOM      9  C7  <0> A   1      -1.293  -0.775   0.010  0.00  0.00    +0.157 C 
BRANCH   9  15
ATOM     10  C1  <0> A   1       0.926   0.328  -0.345  0.00  0.00    +0.049 A 
ATOM     11  C2  <0> A   1       1.736   1.447  -0.366  0.00  0.00    -0.018 A 
ATOM     12  C3  <0> A   1       1.208   2.688  -0.053  0.00  0.00    +0.100 A 
ATOM     13  C4  <0> A   1      -0.130   2.807   0.280  0.00  0.00    -0.011 A 
ATOM     14  C5  <0> A   1      -0.938   1.686   0.300  0.00  0.00    +0.071 A 
ATOM     15  C6  <0> A   1      -0.411   0.447  -0.012  0.00  0.00    -0.086 A 
ATOM     16  F2  <0> A   1       2.000   3.784  -0.073  0.00  0.00    -0.140 F 
ENDBRANCH   9  15
BRANCH   9  17
ATOM     17  C8  <0> A   1      -1.183  -1.498  -1.307  0.00  0.00    -0.090 A 
ATOM     18  C9  <0> A   1      -1.209  -2.880  -1.341  0.00  0.00    +0.045 A 
ATOM     19  C10 <0> A   1      -1.109  -3.544  -2.549  0.00  0.00    -0.013 A 
ATOM     20  C11 <0> A   1      -0.983  -2.825  -3.725  0.00  0.00    +0.099 A 
ATOM     21  C12 <0> A   1      -0.957  -1.441  -3.690  0.00  0.00    -0.012 A 
ATOM     22  C13 <0> A   1      -1.062  -0.779  -2.482  0.00  0.00    +0.061 A 
ATOM     23  F1  <0> A   1      -0.884  -3.473  -4.906  0.00  0.00    -0.140 F 
ENDBRANCH   9  17
ENDBRANCH   1   9
BRANCH   6  24
ATOM     24  O1  <0> A   1      -2.915  -1.326   2.255  0.00  0.00    -0.309 OA
BRANCH  24  25
ATOM     25  C20 <0> A   1      -4.010  -2.031   1.667  0.00  0.00    +0.155 C 
BRANCH  25  26
ATOM     26  C21 <0> A   1      -5.290  -1.209   1.823  0.00  0.00    +0.229 C 
BRANCH  26  27
ATOM     27  O5  <0> A   1      -5.173   0.001   1.072  0.00  0.00    -0.530 OA
ATOM     28  H21 <0> A   1      -5.036  -0.136   0.124  0.00  0.00    +0.363 HD
ENDBRANCH  26  27
BRANCH  26  29
ATOM     29  C22 <0> A   1      -6.482  -2.017   1.306  0.00  0.00    -0.041 C 
BRANCH  29  30
ATOM     30  C23 <0> A   1      -7.776  -1.247   1.576  0.00  0.00    +0.235 C 
BRANCH  30  31
ATOM     31  O4  <0> A   1      -7.779  -0.039   0.812  0.00  0.00    -0.526 OA
ATOM     32  H20 <0> A   1      -7.723  -0.177  -0.143  0.00  0.00    +0.350 HD
ENDBRANCH  30  31
BRANCH  30  33
ATOM     33  C24 <0> A   1      -8.975  -2.107   1.173  0.00  0.00    -0.101 C 
BRANCH  33  34
ATOM     34  C25 <0> A   1     -10.251  -1.400   1.551  0.00  0.00    +0.490 C 
ATOM     35  O2  <0> A   1     -10.205  -0.309   2.093  0.00  0.00    -0.680 OA
ATOM     36  O3  <0> A   1     -11.329  -1.919   1.316  0.00  0.00    -0.712 OA
ENDBRANCH  33  34
ENDBRANCH  30  33
ENDBRANCH  29  30
ENDBRANCH  26  29
ENDBRANCH  25  26
ENDBRANCH  24  25
ENDBRANCH   6  24
TORSDOF 12
