REMARK VINA RESULT:      -7.5      3.469      6.057
REMARK  Name = CHEMBL249273
REMARK  18 active torsions:
REMARK  status: ('A' for Active; 'I' for Inactive)
REMARK    1  A    between atoms: C1_1  and  C2_2
REMARK    2  A    between atoms: C4_5  and  C5_8
REMARK    3  A    between atoms: C5_8  and  N3_9
REMARK    4  A    between atoms: C6_10  and  C7_12
REMARK    5  A    between atoms: C8_13  and  C27_40
REMARK    6  A    between atoms: C9_14  and  C21_33
REMARK    7  A    between atoms: C10_15  and  C14_20
REMARK    8  A    between atoms: N4_16  and  C11_17
REMARK    9  A    between atoms: C11_17  and  C12_18
REMARK   10  A    between atoms: C11_17  and  C13_19
REMARK   11  A    between atoms: C14_20  and  C15_21
REMARK   12  A    between atoms: C15_21  and  C16_22
REMARK   13  A    between atoms: C16_22  and  C17_24
REMARK   14  A    between atoms: C16_22  and  O5_32
REMARK   15  A    between atoms: C17_24  and  C18_25
REMARK   16  A    between atoms: C18_25  and  C19_27
REMARK   17  A    between atoms: C18_25  and  O4_31
REMARK   18  A    between atoms: C19_27  and  C20_28
REMARK                            x       y       z     vdW  Elec       q    Type
REMARK                         _______ _______ _______ _____ _____    ______ ____
ROOT
ATOM      1  C7  <0> A   1     -16.999   8.316  49.943  0.00  0.00    -0.057 C 
ATOM      2  C8  <0> A   1     -17.226   7.225  49.113  0.00  0.00    -0.041 C 
ATOM      3  C9  <0> A   1     -16.303   7.330  48.042  0.00  0.00    -0.116 C 
ATOM      4  C10 <0> A   1     -15.561   8.455  48.250  0.00  0.00    +0.087 C 
ATOM      5  N4  <0> A   1     -15.980   9.056  49.389  0.00  0.00    -0.404 N 
ENDROOT
BRANCH   3   6
ATOM      6  C21 <0> A   1     -16.168   6.387  46.904  0.00  0.00    -0.022 A 
ATOM      7  C22 <0> A   1     -16.875   6.610  45.724  0.00  0.00    +0.056 A 
ATOM      8  C23 <0> A   1     -16.745   5.731  44.669  0.00  0.00    -0.009 A 
ATOM      9  C24 <0> A   1     -15.913   4.628  44.781  0.00  0.00    +0.102 A 
ATOM     10  C25 <0> A   1     -15.208   4.403  45.952  0.00  0.00    -0.019 A 
ATOM     11  C26 <0> A   1     -15.327   5.280  47.010  0.00  0.00    +0.053 A 
ATOM     12  F1  <0> A   1     -15.790   3.769  43.745  0.00  0.00    -0.138 F 
ENDBRANCH   3   6
BRANCH   2  13
ATOM     13  C27 <0> A   1     -18.235   6.160  49.310  0.00  0.00    -0.017 A 
ATOM     14  C28 <0> A   1     -17.894   4.987  49.984  0.00  0.00    +0.034 A 
ATOM     15  C29 <0> A   1     -18.840   3.998  50.164  0.00  0.00    +0.014 A 
ATOM     16  C30 <0> A   1     -20.124   4.168  49.677  0.00  0.00    +0.006 A 
ATOM     17  C31 <0> A   1     -20.468   5.328  49.008  0.00  0.00    -0.004 A 
ATOM     18  C32 <0> A   1     -19.533   6.326  48.826  0.00  0.00    -0.005 A 
ENDBRANCH   2  13
BRANCH   1  20
ATOM     19  N3  <0> A   1     -18.833   9.384  51.140  0.00  0.00    -0.742 N 
ATOM     20  C6  <0> A   1     -17.718   8.625  51.180  0.00  0.00    +0.622 C 
ATOM     21  O1  <0> A   1     -17.312   8.198  52.244  0.00  0.00    -0.488 OA
ATOM     22  H10 <0> A   1     -19.117   9.784  50.303  0.00  0.00    +0.400 HD
BRANCH  19  23
ATOM     23  C5  <0> A   1     -19.614   9.604  52.360  0.00  0.00    +0.439 C 
BRANCH  23  28
ATOM     24  C1  <0> A   1     -23.725  10.968  49.737  0.00  0.00    +0.208 C 
ATOM     25  C2  <0> A   1     -22.743  10.744  50.859  0.00  0.00    +0.074 C 
ATOM     26  C3  <0> A   1     -22.909  11.086  52.151  0.00  0.00    +0.233 C 
ATOM     27  N1  <0> A   1     -21.809  10.715  52.823  0.00  0.00    -0.470 N 
ATOM     28  C4  <0> A   1     -20.968  10.156  51.997  0.00  0.00    +0.311 C 
ATOM     29  N2  <0> A   1     -21.515  10.148  50.762  0.00  0.00    -0.499 N 
ATOM     30  H1  <0> A   1     -21.111   9.790  49.956  0.00  0.00    +0.466 HD
ATOM     31  H37 <0> A   1     -21.661  10.842  53.773  0.00  0.00    +0.461 HD
ENDBRANCH  23  28
ENDBRANCH  19  23
ENDBRANCH   1  20
BRANCH   5  32
ATOM     32  C11 <0> A   1     -15.431  10.295  49.945  0.00  0.00    +0.233 C 
ATOM     33  C12 <0> A   1     -14.057  10.015  50.555  0.00  0.00    +0.036 C 
ATOM     34  C13 <0> A   1     -15.294  11.337  48.833  0.00  0.00    +0.048 C 
ENDBRANCH   5  32
BRANCH   4  35
ATOM     35  C14 <0> A   1     -14.458   8.953  47.352  0.00  0.00    +0.120 C 
BRANCH  35  36
ATOM     36  C15 <0> A   1     -13.168   8.189  47.659  0.00  0.00    -0.009 C 
BRANCH  36  37
ATOM     37  C16 <0> A   1     -12.462   7.832  46.349  0.00  0.00    +0.214 C 
BRANCH  37  38
ATOM     38  O5  <0> A   1     -12.107   6.448  46.362  0.00  0.00    -0.541 OA
ATOM     39  H27 <0> A   1     -11.262   6.254  45.934  0.00  0.00    +0.362 HD
ENDBRANCH  37  38
BRANCH  37  40
ATOM     40  C17 <0> A   1     -13.401   8.107  45.173  0.00  0.00    -0.051 C 
BRANCH  40  41
ATOM     41  C18 <0> A   1     -12.577   8.337  43.905  0.00  0.00    +0.231 C 
BRANCH  41  42
ATOM     42  O4  <0> A   1     -11.763   7.190  43.650  0.00  0.00    -0.528 OA
ATOM     43  H26 <0> A   1     -11.963   6.743  42.816  0.00  0.00    +0.349 HD
ENDBRANCH  41  42
BRANCH  41  44
ATOM     44  C19 <0> A   1     -13.517   8.568  42.720  0.00  0.00    -0.103 C 
BRANCH  44  45
ATOM     45  C20 <0> A   1     -13.559   7.329  41.863  0.00  0.00    +0.490 C 
ATOM     46  O2  <0> A   1     -14.317   6.417  42.148  0.00  0.00    -0.681 OA
ATOM     47  O3  <0> A   1     -12.836   7.239  40.886  0.00  0.00    -0.711 OA
ENDBRANCH  44  45
ENDBRANCH  41  44
ENDBRANCH  40  41
ENDBRANCH  37  40
ENDBRANCH  36  37
ENDBRANCH  35  36
ENDBRANCH   4  35
TORSDOF 15
