REMARK VINA RESULT:      -8.1     31.513     33.891
REMARK  Name = CHEMBL300495
REMARK  6 active torsions:
REMARK  status: ('A' for Active; 'I' for Inactive)
REMARK    1  A    between atoms: C4_4  and  C7_7
REMARK    2  A    between atoms: C7_7  and  C8_8
REMARK    3  A    between atoms: C13_13  and  C14_14
REMARK    4  A    between atoms: C14_14  and  C15_15
REMARK    5  A    between atoms: C15_15  and  C16_16
REMARK    6  A    between atoms: C18_18  and  O3_24
REMARK                            x       y       z     vdW  Elec       q    Type
REMARK                         _______ _______ _______ _____ _____    ______ ____
ROOT
ATOM      1  C8  <0> A   1      -4.258   4.195  45.626  0.00  0.00    -0.048 A 
ATOM      2  C9  <0> A   1      -2.879   4.250  45.545  0.00  0.00    +0.045 A 
ATOM      3  C10 <0> A   1      -2.179   3.217  44.948  0.00  0.00    -0.024 A 
ATOM      4  C11 <0> A   1      -2.859   2.127  44.434  0.00  0.00    +0.039 A 
ATOM      5  C12 <0> A   1      -4.239   2.072  44.517  0.00  0.00    -0.021 A 
ATOM      6  C13 <0> A   1      -4.937   3.104  45.118  0.00  0.00    -0.068 A 
ATOM      7 Cl1  <0> A   1      -5.094   0.707  43.871  0.00  0.00    -0.053 Cl
ATOM      8 Cl2  <0> A   1      -0.447   3.286  44.845  0.00  0.00    -0.057 Cl
ENDROOT
BRANCH   1   9
ATOM      9  C7  <0> A   1      -5.019   5.321  46.276  0.00  0.00    +0.148 C 
BRANCH   9  13
ATOM     10  C1  <0> A   1      -2.560   7.179  49.235  0.00  0.00    +0.002 A 
ATOM     11  C2  <0> A   1      -3.038   5.897  49.438  0.00  0.00    +0.005 A 
ATOM     12  C3  <0> A   1      -3.833   5.297  48.480  0.00  0.00    +0.008 A 
ATOM     13  C4  <0> A   1      -4.152   5.977  47.320  0.00  0.00    -0.086 A 
ATOM     14  C5  <0> A   1      -3.676   7.259  47.117  0.00  0.00    +0.008 A 
ATOM     15  C6  <0> A   1      -2.879   7.859  48.074  0.00  0.00    +0.006 A 
ENDBRANCH   9  13
ENDBRANCH   1   9
BRANCH   6  16
ATOM     16  C14 <0> A   1      -6.440   3.042  45.214  0.00  0.00    +0.086 C 
BRANCH  16  17
ATOM     17  C15 <0> A   1      -6.840   2.194  46.423  0.00  0.00    +0.062 C 
BRANCH  17  18
ATOM     18  C16 <0> A   1      -7.288   3.111  47.562  0.00  0.00    +0.199 C 
ATOM     19  C17 <0> A   1      -7.108   2.389  48.900  0.00  0.00    +0.042 C 
ATOM     20  C18 <0> A   1      -7.596   3.295  50.036  0.00  0.00    +0.184 C 
ATOM     21  C19 <0> A   1      -9.077   3.624  49.806  0.00  0.00    +0.021 C 
ATOM     22  C20 <0> A   1      -9.232   4.150  48.395  0.00  0.00    +0.496 C 
ATOM     23  O1  <0> A   1      -9.842   5.169  48.176  0.00  0.00    -0.452 OA
ATOM     24  O2  <0> A   1      -8.669   3.448  47.389  0.00  0.00    -0.368 OA
BRANCH  20  25
ATOM     25  O3  <0> A   1      -6.831   4.501  50.049  0.00  0.00    -0.564 OA
ATOM     26  H20 <0> A   1      -5.880   4.363  49.938  0.00  0.00    +0.387 HD
ENDBRANCH  20  25
ENDBRANCH  17  18
ENDBRANCH  16  17
ENDBRANCH   6  16
TORSDOF 6
