REMARK VINA RESULT:      -7.1      2.594      4.892
REMARK  Name = CHEMBL143143
REMARK  13 active torsions:
REMARK  status: ('A' for Active; 'I' for Inactive)
REMARK    1  A    between atoms: C1_1  and  C2_2
REMARK    2  A    between atoms: C2_2  and  C3_3
REMARK    3  A    between atoms: C2_2  and  C4_4
REMARK    4  A    between atoms: C7_7  and  C15_21
REMARK    5  A    between atoms: N1_8  and  C8_9
REMARK    6  A    between atoms: C8_9  and  C9_10
REMARK    7  A    between atoms: C9_10  and  C10_11
REMARK    8  A    between atoms: C10_11  and  C11_12
REMARK    9  A    between atoms: C10_11  and  O4_20
REMARK   10  A    between atoms: C11_12  and  C12_13
REMARK   11  A    between atoms: C12_13  and  C13_15
REMARK   12  A    between atoms: C12_13  and  O3_19
REMARK   13  A    between atoms: C13_15  and  C14_16
REMARK                            x       y       z     vdW  Elec       q    Type
REMARK                         _______ _______ _______ _____ _____    ______ ____
ROOT
ATOM      1  C4  <0> A   1     -12.826   9.771  46.292  0.00  0.00    +0.089 C 
ATOM      2  C5  <0> A   1     -13.197   9.448  47.549  0.00  0.00    -0.144 C 
ATOM      3  C6  <0> A   1     -13.947   8.262  47.483  0.00  0.00    -0.126 C 
ATOM      4  C7  <0> A   1     -14.009   7.894  46.171  0.00  0.00    +0.099 C 
ATOM      5  N1  <0> A   1     -13.323   8.830  45.438  0.00  0.00    -0.417 N 
ATOM      6 Br1  <0> A   1     -14.724   7.343  48.941  0.00  0.00    -0.015 Br
ATOM      7 Br2  <0> A   1     -12.782  10.418  49.119  0.00  0.00    -0.013 Br
ENDROOT
BRANCH   4   8
ATOM      8  C15 <0> A   1     -14.700   6.703  45.633  0.00  0.00    -0.041 A 
ATOM      9  C16 <0> A   1     -13.963   5.584  45.243  0.00  0.00    +0.056 A 
ATOM     10  C17 <0> A   1     -14.613   4.474  44.743  0.00  0.00    -0.007 A 
ATOM     11  C18 <0> A   1     -15.994   4.470  44.626  0.00  0.00    +0.110 A 
ATOM     12  C19 <0> A   1     -16.729   5.579  45.012  0.00  0.00    -0.007 A 
ATOM     13  C20 <0> A   1     -16.091   6.692  45.519  0.00  0.00    +0.080 A 
ATOM     14  F1  <0> A   1     -16.625   3.381  44.136  0.00  0.00    -0.136 F 
ENDBRANCH   4   8
BRANCH   1  16
ATOM     15  C1  <0> A   1     -12.685  12.244  46.409  0.00  0.00    +0.040 C 
ATOM     16  C2  <0> A   1     -12.006  10.973  45.896  0.00  0.00    +0.053 C 
ATOM     17  C3  <0> A   1     -10.608  10.859  46.506  0.00  0.00    +0.041 C 
ENDBRANCH   1  16
BRANCH   5  18
ATOM     18  C8  <0> A   1     -13.150   8.817  43.985  0.00  0.00    +0.302 C 
BRANCH  18  19
ATOM     19  C9  <0> A   1     -11.798   8.189  43.637  0.00  0.00    -0.014 C 
BRANCH  19  20
ATOM     20  C10 <0> A   1     -11.809   7.730  42.178  0.00  0.00    +0.218 C 
BRANCH  20  21
ATOM     21  O4  <0> A   1     -11.789   6.302  42.127  0.00  0.00    -0.541 OA
ATOM     22  H19 <0> A   1     -11.033   5.936  41.650  0.00  0.00    +0.367 HD
ENDBRANCH  20  21
BRANCH  20  23
ATOM     23  C11 <0> A   1     -13.074   8.247  41.490  0.00  0.00    -0.047 C 
BRANCH  23  24
ATOM     24  C12 <0> A   1     -12.688   9.251  40.401  0.00  0.00    +0.231 C 
BRANCH  24  25
ATOM     25  O3  <0> A   1     -13.348   8.909  39.181  0.00  0.00    -0.528 OA
ATOM     26  H18 <0> A   1     -12.963   8.149  38.724  0.00  0.00    +0.350 HD
ENDBRANCH  24  25
BRANCH  24  27
ATOM     27  C13 <0> A   1     -13.108  10.657  40.832  0.00  0.00    -0.102 C 
BRANCH  27  28
ATOM     28  C14 <0> A   1     -13.882  11.314  39.718  0.00  0.00    +0.491 C 
ATOM     29  O1  <0> A   1     -13.294  11.956  38.863  0.00  0.00    -0.681 OA
ATOM     30  O2  <0> A   1     -15.095  11.202  39.669  0.00  0.00    -0.712 OA
ENDBRANCH  27  28
ENDBRANCH  24  27
ENDBRANCH  23  24
ENDBRANCH  20  23
ENDBRANCH  19  20
ENDBRANCH  18  19
ENDBRANCH   5  18
TORSDOF 11
