REMARK  Name = CHEMBL316712
REMARK  15 active torsions:
REMARK  status: ('A' for Active; 'I' for Inactive)
REMARK    1  A    between atoms: C1_1  and  C2_2
REMARK    2  A    between atoms: C6_6  and  C14_20
REMARK    3  A    between atoms: C7_7  and  O1_8
REMARK    4  A    between atoms: O1_8  and  C8_9
REMARK    5  A    between atoms: C8_9  and  C9_10
REMARK    6  A    between atoms: C9_10  and  C10_11
REMARK    7  A    between atoms: C9_10  and  O5_19
REMARK    8  A    between atoms: C10_11  and  C11_12
REMARK    9  A    between atoms: C11_12  and  C12_14
REMARK   10  A    between atoms: C11_12  and  O4_18
REMARK   11  A    between atoms: C12_14  and  C13_15
REMARK   12  A    between atoms: C14_20  and  C15_21
REMARK   13  A    between atoms: C15_21  and  C16_22
REMARK   14  A    between atoms: C16_22  and  O6_23
REMARK   15  A    between atoms: O6_23  and  C17_24
REMARK                            x       y       z     vdW  Elec       q    Type
REMARK                         _______ _______ _______ _____ _____    ______ ____
ROOT
ATOM      1  C1  <0> A   1       0.195   1.760   0.526  0.00  0.00    +0.108 C 
ATOM      2  C2  <0> A   1       0.117   0.280   0.256  0.00  0.00    -0.089 A 
ATOM      3  C3  <0> A   1      -0.020  -0.180  -1.039  0.00  0.00    +0.034 A 
ATOM      4  C4  <0> A   1      -0.092  -1.539  -1.288  0.00  0.00    -0.036 A 
ATOM      5  C5  <0> A   1      -0.027  -2.440  -0.240  0.00  0.00    +0.035 A 
ATOM      6  C6  <0> A   1       0.109  -1.984   1.057  0.00  0.00    -0.083 A 
ATOM      7  C7  <0> A   1       0.187  -0.622   1.308  0.00  0.00    +0.107 A 
ATOM      8 Cl2  <0> A   1      -0.264  -2.115  -2.917  0.00  0.00    -0.070 Cl
ENDROOT
BRANCH   7   9
ATOM      9  O1  <0> A   1       0.328  -0.172   2.582  0.00  0.00    -0.316 OA
BRANCH   9  10
ATOM     10  C8  <0> A   1       1.659   0.073   3.041  0.00  0.00    +0.150 C 
BRANCH  10  11
ATOM     11  C9  <0> A   1       1.617   0.565   4.489  0.00  0.00    +0.226 C 
BRANCH  11  12
ATOM     12  O5  <0> A   1       1.112  -0.474   5.331  0.00  0.00    -0.529 OA
ATOM     13  H15 <0> A   1       1.642  -1.283   5.319  0.00  0.00    +0.362 HD
ENDBRANCH  11  12
BRANCH  11  14
ATOM     14  C10 <0> A   1       3.029   0.945   4.940  0.00  0.00    -0.042 C 
BRANCH  14  15
ATOM     15  C11 <0> A   1       2.970   1.552   6.343  0.00  0.00    +0.235 C 
BRANCH  15  16
ATOM     16  O4  <0> A   1       2.530   0.561   7.273  0.00  0.00    -0.526 OA
ATOM     17  H14 <0> A   1       3.105  -0.215   7.322  0.00  0.00    +0.350 HD
ENDBRANCH  15  16
BRANCH  15  18
ATOM     18  C12 <0> A   1       4.362   2.046   6.743  0.00  0.00    -0.101 C 
BRANCH  18  19
ATOM     19  C13 <0> A   1       4.281   2.754   8.071  0.00  0.00    +0.490 C 
ATOM     20  O2  <0> A   1       3.209   2.855   8.644  0.00  0.00    -0.680 OA
ATOM     21  O3  <0> A   1       5.287   3.227   8.572  0.00  0.00    -0.712 OA
ENDBRANCH  18  19
ENDBRANCH  15  18
ENDBRANCH  14  15
ENDBRANCH  11  14
ENDBRANCH  10  11
ENDBRANCH   9  10
ENDBRANCH   7   9
BRANCH   6  22
ATOM     22  C14 <0> A   1       0.179  -2.966   2.198  0.00  0.00    +0.088 C 
BRANCH  22  23
ATOM     23  C15 <0> A   1      -1.219  -3.162   2.788  0.00  0.00    +0.049 C 
BRANCH  23  24
ATOM     24  C16 <0> A   1      -1.156  -4.192   3.918  0.00  0.00    +0.192 C 
BRANCH  24  25
ATOM     25  O6  <0> A   1      -2.462  -4.375   4.469  0.00  0.00    -0.309 OA
BRANCH  25  26
ATOM     26  C17 <0> A   1      -2.581  -5.264   5.490  0.00  0.00    +0.141 A 
ATOM     27  C18 <0> A   1      -1.464  -5.942   5.955  0.00  0.00    -0.059 A 
ATOM     28  C19 <0> A   1      -1.587  -6.845   6.993  0.00  0.00    +0.068 A 
ATOM     29  C20 <0> A   1      -2.825  -7.075   7.569  0.00  0.00    -0.076 A 
ATOM     30  C21 <0> A   1      -3.941  -6.400   7.106  0.00  0.00    +0.069 A 
ATOM     31  C22 <0> A   1      -3.820  -5.491   6.072  0.00  0.00    -0.001 A 
ATOM     32 Cl1  <0> A   1      -2.978  -8.210   8.872  0.00  0.00    -0.074 Cl
ENDBRANCH  25  26
ENDBRANCH  24  25
ENDBRANCH  23  24
ENDBRANCH  22  23
ENDBRANCH   6  22
TORSDOF 14
