REMARK VINA RESULT:      -7.6     16.498     20.038
REMARK  Name = CHEMBL466547
REMARK  14 active torsions:
REMARK  status: ('A' for Active; 'I' for Inactive)
REMARK    1  A    between atoms: C1_1  and  C2_2
REMARK    2  A    between atoms: C2_2  and  C3_3
REMARK    3  A    between atoms: C2_2  and  C4_4
REMARK    4  A    between atoms: C5_5  and  C17_25
REMARK    5  A    between atoms: C6_6  and  C11_18
REMARK    6  A    between atoms: N3_10  and  C8_11
REMARK    7  A    between atoms: N7_16  and  C10_17
REMARK    8  A    between atoms: C18_26  and  C19_27
REMARK    9  A    between atoms: C19_27  and  C20_29
REMARK   10  A    between atoms: C19_27  and  O4_37
REMARK   11  A    between atoms: C20_29  and  C21_30
REMARK   12  A    between atoms: C21_30  and  C22_32
REMARK   13  A    between atoms: C21_30  and  O3_36
REMARK   14  A    between atoms: C22_32  and  C23_33
REMARK                            x       y       z     vdW  Elec       q    Type
REMARK                         _______ _______ _______ _____ _____    ______ ____
ROOT
ATOM      1  C4  <0> A   1     -27.412  -3.101  52.128  0.00  0.00    +0.238 A 
ATOM      2  C5  <0> A   1     -26.467  -3.979  51.591  0.00  0.00    -0.176 A 
ATOM      3  C6  <0> A   1     -26.704  -5.365  51.708  0.00  0.00    +0.270 A 
ATOM      4  N1  <0> A   1     -27.812  -5.775  52.321  0.00  0.00    -0.554 NA
ATOM      5  C7  <0> A   1     -28.676  -4.903  52.812  0.00  0.00    +0.568 A 
ATOM      6  N2  <0> A   1     -28.483  -3.594  52.725  0.00  0.00    -0.541 NA
ATOM      7  N3  <0> A   1     -29.818  -5.372  53.443  0.00  0.00    -0.516 N 
ATOM      8  C8  <0> A   1     -30.789  -4.426  53.996  0.00  0.00    +0.351 C 
ATOM      9  C9  <0> A   1     -30.039  -6.736  53.551  0.00  0.00    +0.488 C 
ATOM     10  N4  <0> A   1     -29.733  -7.497  54.578  0.00  0.00    -0.313 NA
ATOM     11  N5  <0> A   1     -30.074  -8.715  54.353  0.00  0.00    -0.032 NA
ATOM     12  N6  <0> A   1     -30.612  -8.821  53.186  0.00  0.00    -0.070 NA
ATOM     13  N7  <0> A   1     -30.616  -7.533  52.621  0.00  0.00    -0.371 N 
ATOM     14  C10 <0> A   1     -31.130  -7.139  51.307  0.00  0.00    +0.383 C 
ENDROOT
BRANCH   3  15
ATOM     15  C11 <0> A   1     -25.739  -6.343  51.159  0.00  0.00    -0.077 A 
ATOM     16  C12 <0> A   1     -25.732  -6.629  49.793  0.00  0.00    +0.099 A 
ATOM     17  C13 <0> A   1     -24.831  -7.543  49.287  0.00  0.00    -0.014 A 
ATOM     18  C14 <0> A   1     -23.933  -8.176  50.131  0.00  0.00    +0.123 A 
ATOM     19  C15 <0> A   1     -23.936  -7.895  51.489  0.00  0.00    -0.023 A 
ATOM     20  C16 <0> A   1     -24.829  -6.980  52.005  0.00  0.00    +0.091 A 
ATOM     21  F1  <0> A   1     -23.053  -9.070  49.631  0.00  0.00    -0.134 F 
ENDBRANCH   3  15
BRANCH   1  23
ATOM     22  C1  <0> A   1     -28.408  -0.977  51.324  0.00  0.00    +0.045 C 
ATOM     23  C2  <0> A   1     -27.209  -1.610  52.034  0.00  0.00    +0.052 C 
ATOM     24  C3  <0> A   1     -27.080  -1.022  53.439  0.00  0.00    +0.045 C 
ENDBRANCH   1  23
BRANCH   2  25
ATOM     25  C17 <0> A   1     -25.254  -3.472  50.921  0.00  0.00    +0.010 C 
ATOM     26  C18 <0> A   1     -24.204  -3.098  51.640  0.00  0.00    -0.033 C 
BRANCH  26  27
ATOM     27  C19 <0> A   1     -22.966  -2.579  50.956  0.00  0.00    +0.252 C 
BRANCH  27  28
ATOM     28  O4  <0> A   1     -23.314  -1.480  50.111  0.00  0.00    -0.537 OA
ATOM     29  H27 <0> A   1     -22.578  -1.141  49.584  0.00  0.00    +0.366 HD
ENDBRANCH  27  28
BRANCH  27  30
ATOM     30  C20 <0> A   1     -21.958  -2.113  52.008  0.00  0.00    -0.041 C 
BRANCH  30  31
ATOM     31  C21 <0> A   1     -21.251  -3.328  52.611  0.00  0.00    +0.232 C 
BRANCH  31  32
ATOM     32  O3  <0> A   1     -20.131  -3.680  51.796  0.00  0.00    -0.528 OA
ATOM     33  H26 <0> A   1     -19.639  -2.921  51.455  0.00  0.00    +0.350 HD
ENDBRANCH  31  32
BRANCH  31  34
ATOM     34  C22 <0> A   1     -20.768  -2.988  54.023  0.00  0.00    -0.102 C 
BRANCH  34  35
ATOM     35  C23 <0> A   1     -20.099  -4.195  54.629  0.00  0.00    +0.491 C 
ATOM     36  O1  <0> A   1     -19.314  -4.058  55.551  0.00  0.00    -0.681 OA
ATOM     37  O2  <0> A   1     -20.342  -5.308  54.195  0.00  0.00    -0.713 OA
ENDBRANCH  34  35
ENDBRANCH  31  34
ENDBRANCH  30  31
ENDBRANCH  27  30
ENDBRANCH  26  27
ENDBRANCH   2  25
TORSDOF 10
