REMARK VINA RESULT:      -7.6     16.859     20.147
REMARK  Name = CHEMBL438694
REMARK  15 active torsions:
REMARK  status: ('A' for Active; 'I' for Inactive)
REMARK    1  A    between atoms: C1_1  and  C2_2
REMARK    2  A    between atoms: C2_2  and  C3_3
REMARK    3  A    between atoms: C2_2  and  N1_4
REMARK    4  A    between atoms: C4_5  and  C21_25
REMARK    5  A    between atoms: C5_6  and  C15_18
REMARK    6  A    between atoms: C6_7  and  C9_12
REMARK    7  A    between atoms: C7_8  and  C8_9
REMARK    8  A    between atoms: C21_25  and  C22_26
REMARK    9  A    between atoms: C22_26  and  C23_27
REMARK   10  A    between atoms: C23_27  and  C24_29
REMARK   11  A    between atoms: C23_27  and  O5_37
REMARK   12  A    between atoms: C24_29  and  C25_30
REMARK   13  A    between atoms: C25_30  and  C26_32
REMARK   14  A    between atoms: C25_30  and  O4_36
REMARK   15  A    between atoms: C26_32  and  C27_33
REMARK                            x       y       z     vdW  Elec       q    Type
REMARK                         _______ _______ _______ _____ _____    ______ ____
ROOT
ATOM      1  N1  <0> A   1     -27.630  -5.280  51.352  0.00  0.00    -0.402 N 
ATOM      2  C4  <0> A   1     -26.323  -5.030  51.603  0.00  0.00    +0.073 C 
ATOM      3  C5  <0> A   1     -26.115  -3.683  51.576  0.00  0.00    -0.122 C 
ATOM      4  C6  <0> A   1     -27.360  -3.066  51.295  0.00  0.00    -0.059 C 
ATOM      5  C7  <0> A   1     -28.290  -4.089  51.153  0.00  0.00    -0.034 C 
ENDROOT
BRANCH   3   6
ATOM      6  C15 <0> A   1     -24.823  -2.990  51.802  0.00  0.00    -0.009 A 
ATOM      7  C16 <0> A   1     -23.838  -3.010  50.816  0.00  0.00    +0.050 A 
ATOM      8  C17 <0> A   1     -22.637  -2.365  51.031  0.00  0.00    -0.016 A 
ATOM      9  C18 <0> A   1     -22.411  -1.696  52.223  0.00  0.00    +0.095 A 
ATOM     10  C19 <0> A   1     -23.387  -1.674  53.205  0.00  0.00    -0.017 A 
ATOM     11  C20 <0> A   1     -24.593  -2.312  52.997  0.00  0.00    +0.056 A 
ATOM     12  F1  <0> A   1     -21.234  -1.066  52.429  0.00  0.00    -0.142 F 
ENDBRANCH   3   6
BRANCH   4  13
ATOM     13  C9  <0> A   1     -27.619  -1.613  51.171  0.00  0.00    -0.010 A 
ATOM     14  C10 <0> A   1     -28.383  -0.953  52.134  0.00  0.00    +0.026 A 
ATOM     15  C11 <0> A   1     -28.620   0.401  52.013  0.00  0.00    +0.003 A 
ATOM     16  C12 <0> A   1     -28.104   1.103  50.938  0.00  0.00    -0.002 A 
ATOM     17  C13 <0> A   1     -27.348   0.455  49.979  0.00  0.00    +0.000 A 
ATOM     18  C14 <0> A   1     -27.097  -0.898  50.093  0.00  0.00    +0.008 A 
ENDBRANCH   4  13
BRANCH   5  19
ATOM     19  C8  <0> A   1     -29.714  -3.928  50.853  0.00  0.00    +0.607 C 
ATOM     20  O1  <0> A   1     -30.107  -4.014  49.704  0.00  0.00    -0.522 OA
ATOM     21  N2  <0> A   1     -30.589  -3.686  51.848  0.00  0.00    -0.845 N 
ATOM     22  H10 <0> A   1     -30.268  -3.540  52.752  0.00  0.00    +0.404 HD
ATOM     23  H11 <0> A   1     -31.541  -3.657  51.662  0.00  0.00    +0.406 HD
ENDBRANCH   5  19
BRANCH   1  25
ATOM     24  C1  <0> A   1     -29.385  -6.689  52.311  0.00  0.00    +0.044 C 
ATOM     25  C2  <0> A   1     -28.244  -6.610  51.295  0.00  0.00    +0.229 C 
ATOM     26  C3  <0> A   1     -28.795  -6.858  49.889  0.00  0.00    +0.042 C 
ENDBRANCH   1  25
BRANCH   2  27
ATOM     27  C21 <0> A   1     -25.268  -6.073  51.867  0.00  0.00    +0.117 C 
BRANCH  27  28
ATOM     28  C22 <0> A   1     -24.534  -6.398  50.564  0.00  0.00    -0.007 C 
BRANCH  28  29
ATOM     29  C23 <0> A   1     -25.151  -7.646  49.930  0.00  0.00    +0.212 C 
BRANCH  29  30
ATOM     30  O5  <0> A   1     -25.168  -7.498  48.508  0.00  0.00    -0.542 OA
ATOM     31  H30 <0> A   1     -24.696  -8.198  48.034  0.00  0.00    +0.362 HD
ENDBRANCH  29  30
BRANCH  29  32
ATOM     32  C24 <0> A   1     -24.318  -8.874  50.305  0.00  0.00    -0.051 C 
BRANCH  32  33
ATOM     33  C25 <0> A   1     -25.234 -10.091  50.436  0.00  0.00    +0.230 C 
BRANCH  33  34
ATOM     34  O4  <0> A   1     -25.887 -10.333  49.189  0.00  0.00    -0.528 OA
ATOM     35  H29 <0> A   1     -25.332 -10.164  48.415  0.00  0.00    +0.349 HD
ENDBRANCH  33  34
BRANCH  33  36
ATOM     36  C26 <0> A   1     -24.402 -11.316  50.822  0.00  0.00    -0.103 C 
BRANCH  36  37
ATOM     37  C27 <0> A   1     -24.363 -12.281  49.666  0.00  0.00    +0.490 C 
ATOM     38  O2  <0> A   1     -23.581 -12.101  48.747  0.00  0.00    -0.681 OA
ATOM     39  O3  <0> A   1     -25.113 -13.243  49.649  0.00  0.00    -0.713 OA
ENDBRANCH  36  37
ENDBRANCH  33  36
ENDBRANCH  32  33
ENDBRANCH  29  32
ENDBRANCH  28  29
ENDBRANCH  27  28
ENDBRANCH   2  27
TORSDOF 13
