REMARK VINA RESULT:      -7.8     31.490     33.866
REMARK  Name = CHEMBL47537
REMARK  6 active torsions:
REMARK  status: ('A' for Active; 'I' for Inactive)
REMARK    1  A    between atoms: C4_4  and  O1_7
REMARK    2  A    between atoms: O1_7  and  C7_8
REMARK    3  A    between atoms: C12_13  and  C13_14
REMARK    4  A    between atoms: C13_14  and  C14_15
REMARK    5  A    between atoms: C14_15  and  C15_16
REMARK    6  A    between atoms: C17_18  and  O4_24
REMARK                            x       y       z     vdW  Elec       q    Type
REMARK                         _______ _______ _______ _____ _____    ______ ____
ROOT
ATOM      1  C7  <0> A   1     -31.690  22.151  34.688  0.00  0.00    +0.153 A 
ATOM      2  C8  <0> A   1     -32.197  21.316  35.673  0.00  0.00    -0.035 A 
ATOM      3  C9  <0> A   1     -31.714  21.401  36.966  0.00  0.00    +0.010 A 
ATOM      4  C10 <0> A   1     -30.726  22.318  37.277  0.00  0.00    +0.017 A 
ATOM      5  C11 <0> A   1     -30.219  23.152  36.297  0.00  0.00    +0.010 A 
ATOM      6  C12 <0> A   1     -30.695  23.066  35.001  0.00  0.00    -0.095 A 
ATOM      7 Cl1  <0> A   1     -28.981  24.302  36.691  0.00  0.00    -0.040 Cl
ATOM      8 Cl2  <0> A   1     -32.348  20.356  38.199  0.00  0.00    -0.048 Cl
ENDROOT
BRANCH   1   9
ATOM      9  O1  <0> A   1     -32.162  22.069  33.417  0.00  0.00    -0.239 OA
BRANCH   9  13
ATOM     10  C1  <0> A   1     -31.992  18.408  31.520  0.00  0.00    +0.014 A 
ATOM     11  C2  <0> A   1     -32.922  19.351  31.120  0.00  0.00    +0.029 A 
ATOM     12  C3  <0> A   1     -32.980  20.577  31.754  0.00  0.00    -0.007 A 
ATOM     13  C4  <0> A   1     -32.106  20.862  32.793  0.00  0.00    +0.077 A 
ATOM     14  C5  <0> A   1     -31.175  19.916  33.192  0.00  0.00    +0.017 A 
ATOM     15  C6  <0> A   1     -31.119  18.691  32.555  0.00  0.00    +0.031 A 
ENDBRANCH   9  13
ENDBRANCH   1   9
BRANCH   6  16
ATOM     16  C13 <0> A   1     -30.138  23.970  33.931  0.00  0.00    +0.098 C 
BRANCH  16  17
ATOM     17  C14 <0> A   1     -29.097  23.207  33.110  0.00  0.00    +0.062 C 
BRANCH  17  18
ATOM     18  C15 <0> A   1     -27.774  23.976  33.123  0.00  0.00    +0.199 C 
ATOM     19  C16 <0> A   1     -26.956  23.608  31.883  0.00  0.00    +0.041 C 
ATOM     20  C17 <0> A   1     -25.615  24.347  31.921  0.00  0.00    +0.184 C 
ATOM     21  C18 <0> A   1     -24.861  23.942  33.194  0.00  0.00    +0.021 C 
ATOM     22  C19 <0> A   1     -25.785  24.139  34.376  0.00  0.00    +0.496 C 
ATOM     23  O2  <0> A   1     -25.416  24.735  35.360  0.00  0.00    -0.453 OA
ATOM     24  O3  <0> A   1     -27.032  23.630  34.299  0.00  0.00    -0.365 OA
BRANCH  20  25
ATOM     25  O4  <0> A   1     -25.847  25.757  31.927  0.00  0.00    -0.563 OA
ATOM     26  H18 <0> A   1     -26.760  26.005  32.131  0.00  0.00    +0.386 HD
ENDBRANCH  20  25
ENDBRANCH  17  18
ENDBRANCH  16  17
ENDBRANCH   6  16
TORSDOF 6
