REMARK VINA RESULT:      -8.0      0.000      0.000
REMARK  Name = CHEMBL306742
REMARK  15 active torsions:
REMARK  status: ('A' for Active; 'I' for Inactive)
REMARK    1  A    between atoms: C1_1  and  C2_2
REMARK    2  A    between atoms: C2_2  and  C3_3
REMARK    3  A    between atoms: C2_2  and  C9_10
REMARK    4  A    between atoms: C3_3  and  C4_4
REMARK    5  A    between atoms: C4_4  and  C5_5
REMARK    6  A    between atoms: C5_5  and  C6_6
REMARK    7  A    between atoms: C6_6  and  C7_7
REMARK    8  A    between atoms: C6_6  and  C8_8
REMARK    9  A    between atoms: C6_6  and  O1_9
REMARK   10  A    between atoms: C13_16  and  C28_33
REMARK   11  A    between atoms: C17_20  and  C18_21
REMARK   12  A    between atoms: C18_21  and  C19_22
REMARK   13  A    between atoms: C22_25  and  O2_32
REMARK   14  A    between atoms: C25_29  and  C26_30
REMARK   15  A    between atoms: C25_29  and  C27_31
REMARK                            x       y       z     vdW  Elec       q    Type
REMARK                         _______ _______ _______ _____ _____    ______ ____
ROOT
ATOM      1  C9  <0> A   1     -33.824  19.475  32.298  0.00  0.00    -0.009 C 
ATOM      2  C10 <0> A   1     -33.555  18.371  33.353  0.00  0.00    +0.004 C 
ATOM      3  C11 <0> A   1     -33.190  19.111  34.677  0.00  0.00    +0.011 C 
ATOM      4  C12 <0> A   1     -33.824  20.490  34.439  0.00  0.00    -0.010 C 
ATOM      5  C13 <0> A   1     -33.374  20.775  32.991  0.00  0.00    -0.050 C 
ATOM      6  C14 <0> A   1     -34.032  22.044  32.503  0.00  0.00    +0.020 C 
ATOM      7  C15 <0> A   1     -33.617  23.195  33.430  0.00  0.00    -0.000 C 
ATOM      8  C16 <0> A   1     -34.026  22.933  34.871  0.00  0.00    +0.003 C 
ATOM      9  C17 <0> A   1     -33.527  21.588  35.407  0.00  0.00    -0.010 C 
ATOM     10  C28 <0> A   1     -31.858  20.872  32.831  0.00  0.00    +0.027 C 
ENDROOT
BRANCH   1  12
ATOM     11  C1  <0> A   1     -33.827  19.500  29.802  0.00  0.00    +0.013 C 
ATOM     12  C2  <0> A   1     -32.979  19.234  31.048  0.00  0.00    -0.007 C 
BRANCH  12  13
ATOM     13  C3  <0> A   1     -32.491  17.785  31.034  0.00  0.00    +0.001 C 
BRANCH  13  14
ATOM     14  C4  <0> A   1     -31.028  17.744  30.588  0.00  0.00    +0.015 C 
BRANCH  14  15
ATOM     15  C5  <0> A   1     -30.798  16.516  29.705  0.00  0.00    -0.013 C 
BRANCH  15  16
ATOM     16  C6  <0> A   1     -29.507  15.814  30.134  0.00  0.00    +0.125 C 
ATOM     17  C7  <0> A   1     -28.726  15.381  28.892  0.00  0.00    +0.053 C 
ATOM     18  C8  <0> A   1     -28.655  16.775  30.964  0.00  0.00    +0.005 C 
BRANCH  16  19
ATOM     19  O1  <0> A   1     -29.830  14.663  30.919  0.00  0.00    -0.559 OA
ATOM     20  H20 <0> A   1     -29.258  14.539  31.689  0.00  0.00    +0.374 HD
ENDBRANCH  16  19
ENDBRANCH  15  16
ENDBRANCH  14  15
ENDBRANCH  13  14
ENDBRANCH  12  13
ENDBRANCH   1  12
BRANCH   9  21
ATOM     21  C18 <0> A   1     -32.069  21.674  35.845  0.00  0.00    +0.070 C 
BRANCH  21  22
ATOM     22  C19 <0> A   1     -31.861  22.926  36.657  0.00  0.00    -0.046 C 
ATOM     23  C20 <0> A   1     -30.647  23.342  36.919  0.00  0.00    -0.118 C 
ATOM     24  C21 <0> A   1     -30.343  24.094  38.196  0.00  0.00    +0.041 C 
ATOM     25  C22 <0> A   1     -29.598  25.383  37.836  0.00  0.00    +0.159 C 
ATOM     26  C23 <0> A   1     -28.365  25.041  36.998  0.00  0.00    +0.026 C 
ATOM     27  C24 <0> A   1     -28.797  24.410  35.673  0.00  0.00    +0.037 C 
ATOM     28  C25 <0> A   1     -29.512  23.079  35.954  0.00  0.00    -0.025 C 
ATOM     29  C26 <0> A   1     -28.529  22.085  36.576  0.00  0.00    +0.026 C 
ATOM     30  C27 <0> A   1     -30.069  22.508  34.649  0.00  0.00    +0.031 C 
BRANCH  25  31
ATOM     31  O2  <0> A   1     -29.189  26.048  39.034  0.00  0.00    -0.570 OA
ATOM     32  H47 <0> A   1     -28.253  25.933  39.247  0.00  0.00    +0.378 HD
ENDBRANCH  25  31
ENDBRANCH  21  22
ENDBRANCH   9  21
TORSDOF 9
