MODEL 1
REMARK VINA RESULT:      -8.0      0.000      0.000
REMARK  Name = CHEMBL60218
REMARK  7 active torsions:
REMARK  status: ('A' for Active; 'I' for Inactive)
REMARK    1  A    between atoms: C1_1  and  N1_2
REMARK    2  A    between atoms: C2_3  and  C3_7
REMARK    3  A    between atoms: C3_7  and  C17_23
REMARK    4  A    between atoms: C4_8  and  C5_9
REMARK    5  A    between atoms: C4_8  and  C11_16
REMARK    6  A    between atoms: C18_24  and  C19_25
REMARK    7  A    between atoms: C21_27  and  O3_33
REMARK                            x       y       z     vdW  Elec       q    Type
REMARK                         _______ _______ _______ _____ _____    ______ ____
ROOT
ATOM      1  C3  <0> A   1     -26.313  -2.583  51.706  0.00  0.00    -0.025 C 
ATOM      2  C4  <0> A   1     -27.508  -2.168  51.144  0.00  0.00    +0.038 C 
ENDROOT
BRANCH   2   3
ATOM      3  C5  <0> A   1     -27.945  -0.766  51.290  0.00  0.00    -0.087 A 
ATOM      4  C6  <0> A   1     -27.516   0.203  50.378  0.00  0.00    +0.077 A 
ATOM      5  C7  <0> A   1     -27.928   1.510  50.521  0.00  0.00    -0.009 A 
ATOM      6  C8  <0> A   1     -28.766   1.867  51.567  0.00  0.00    +0.113 A 
ATOM      7  C9  <0> A   1     -29.193   0.910  52.476  0.00  0.00    -0.012 A 
ATOM      8  C10 <0> A   1     -28.793  -0.402  52.339  0.00  0.00    +0.070 A 
ATOM      9  F1  <0> A   1     -29.165   3.150  51.702  0.00  0.00    -0.134 F 
ENDBRANCH   2   3
BRANCH   2  10
ATOM     10  C11 <0> A   1     -28.346  -3.128  50.399  0.00  0.00    -0.071 A 
ATOM     11  C12 <0> A   1     -29.387  -3.800  51.045  0.00  0.00    +0.066 A 
ATOM     12  C13 <0> A   1     -30.166  -4.695  50.344  0.00  0.00    -0.010 A 
ATOM     13  C14 <0> A   1     -29.918  -4.931  49.000  0.00  0.00    +0.113 A 
ATOM     14  C15 <0> A   1     -28.886  -4.268  48.354  0.00  0.00    -0.008 A 
ATOM     15  C16 <0> A   1     -28.104  -3.365  49.042  0.00  0.00    +0.077 A 
ATOM     16  F2  <0> A   1     -30.684  -5.811  48.319  0.00  0.00    -0.135 F 
ENDBRANCH   2  10
BRANCH   1  19
ATOM     17  C1  <0> A   1     -24.009  -0.801  50.551  0.00  0.00    +0.384 C 
ATOM     18  N1  <0> A   1     -24.475  -0.852  51.938  0.00  0.00    -0.370 N 
ATOM     19  C2  <0> A   1     -25.477  -1.625  52.450  0.00  0.00    +0.289 C 
ATOM     20  N2  <0> A   1     -25.554  -1.349  53.737  0.00  0.00    -0.312 NA
ATOM     21  N3  <0> A   1     -24.678  -0.468  54.061  0.00  0.00    -0.039 NA
ATOM     22  N4  <0> A   1     -23.983  -0.119  53.033  0.00  0.00    -0.076 NA
ENDBRANCH   1  19
BRANCH   1  23
ATOM     23  C17 <0> A   1     -25.878  -3.980  51.561  0.00  0.00    +0.060 C 
ATOM     24  C18 <0> A   1     -24.985  -4.307  50.630  0.00  0.00    -0.013 C 
BRANCH  24  25
ATOM     25  C19 <0> A   1     -24.448  -5.713  50.561  0.00  0.00    +0.247 C 
ATOM     26  C20 <0> A   1     -25.369  -6.569  49.688  0.00  0.00    +0.049 C 
ATOM     27  C21 <0> A   1     -24.842  -8.007  49.653  0.00  0.00    +0.187 C 
ATOM     28  C22 <0> A   1     -24.806  -8.556  51.086  0.00  0.00    +0.025 C 
ATOM     29  C23 <0> A   1     -24.052  -7.572  51.953  0.00  0.00    +0.497 C 
ATOM     30  O1  <0> A   1     -23.169  -7.943  52.689  0.00  0.00    -0.446 OA
ATOM     31  O2  <0> A   1     -24.394  -6.270  51.879  0.00  0.00    -0.368 OA
BRANCH  27  32
ATOM     32  O3  <0> A   1     -23.525  -8.022  49.099  0.00  0.00    -0.563 OA
ATOM     33  H20 <0> A   1     -23.431  -8.595  48.325  0.00  0.00    +0.388 HD
ENDBRANCH  27  32
ENDBRANCH  24  25
ENDBRANCH   1  23
TORSDOF 6
ENDMDL
MODEL 2
REMARK VINA RESULT:      -8.0      3.125      4.939
REMARK  Name = CHEMBL60218
REMARK  7 active torsions:
REMARK  status: ('A' for Active; 'I' for Inactive)
REMARK    1  A    between atoms: C1_1  and  N1_2
REMARK    2  A    between atoms: C2_3  and  C3_7
REMARK    3  A    between atoms: C3_7  and  C17_23
REMARK    4  A    between atoms: C4_8  and  C5_9
REMARK    5  A    between atoms: C4_8  and  C11_16
REMARK    6  A    between atoms: C18_24  and  C19_25
REMARK    7  A    between atoms: C21_27  and  O3_33
REMARK                            x       y       z     vdW  Elec       q    Type
REMARK                         _______ _______ _______ _____ _____    ______ ____
ROOT
ATOM      1  C3  <0> A   1     -26.095  -3.955  51.105  0.00  0.00    -0.025 C 
ATOM      2  C4  <0> A   1     -25.601  -2.686  51.357  0.00  0.00    +0.038 C 
ENDROOT
BRANCH   2   3
ATOM      3  C5  <0> A   1     -26.474  -1.508  51.187  0.00  0.00    -0.087 A 
ATOM      4  C6  <0> A   1     -27.441  -1.205  52.150  0.00  0.00    +0.077 A 
ATOM      5  C7  <0> A   1     -28.252  -0.103  51.984  0.00  0.00    -0.009 A 
ATOM      6  C8  <0> A   1     -28.111   0.704  50.865  0.00  0.00    +0.113 A 
ATOM      7  C9  <0> A   1     -27.155   0.408  49.907  0.00  0.00    -0.012 A 
ATOM      8  C10 <0> A   1     -26.332  -0.688  50.064  0.00  0.00    +0.070 A 
ATOM      9  F1  <0> A   1     -28.910   1.782  50.708  0.00  0.00    -0.134 F 
ENDBRANCH   2   3
BRANCH   2  10
ATOM     10  C11 <0> A   1     -24.203  -2.512  51.796  0.00  0.00    -0.071 A 
ATOM     11  C12 <0> A   1     -23.152  -2.825  50.930  0.00  0.00    +0.066 A 
ATOM     12  C13 <0> A   1     -21.848  -2.660  51.345  0.00  0.00    -0.010 A 
ATOM     13  C14 <0> A   1     -21.578  -2.186  52.620  0.00  0.00    +0.113 A 
ATOM     14  C15 <0> A   1     -22.616  -1.875  53.484  0.00  0.00    -0.008 A 
ATOM     15  C16 <0> A   1     -23.925  -2.029  53.078  0.00  0.00    +0.077 A 
ATOM     16  F2  <0> A   1     -20.297  -2.028  53.022  0.00  0.00    -0.135 F 
ENDBRANCH   2  10
BRANCH   1  19
ATOM     17  C1  <0> A   1     -28.534  -4.798  52.880  0.00  0.00    +0.384 C 
ATOM     18  N1  <0> A   1     -28.547  -4.496  51.447  0.00  0.00    -0.370 N 
ATOM     19  C2  <0> A   1     -27.490  -4.129  50.666  0.00  0.00    +0.289 C 
ATOM     20  N2  <0> A   1     -27.958  -3.959  49.444  0.00  0.00    -0.312 NA
ATOM     21  N3  <0> A   1     -29.220  -4.193  49.409  0.00  0.00    -0.039 NA
ATOM     22  N4  <0> A   1     -29.651  -4.528  50.576  0.00  0.00    -0.076 NA
ENDBRANCH   1  19
BRANCH   1  23
ATOM     23  C17 <0> A   1     -25.225  -5.129  51.273  0.00  0.00    +0.060 C 
ATOM     24  C18 <0> A   1     -25.478  -6.247  50.598  0.00  0.00    -0.013 C 
BRANCH  24  25
ATOM     25  C19 <0> A   1     -24.520  -7.408  50.676  0.00  0.00    +0.247 C 
ATOM     26  C20 <0> A   1     -25.211  -8.676  50.168  0.00  0.00    +0.049 C 
ATOM     27  C21 <0> A   1     -24.248  -9.861  50.287  0.00  0.00    +0.187 C 
ATOM     28  C22 <0> A   1     -23.845 -10.027  51.758  0.00  0.00    +0.025 C 
ATOM     29  C23 <0> A   1     -23.353  -8.692  52.270  0.00  0.00    +0.497 C 
ATOM     30  O1  <0> A   1     -22.309  -8.603  52.871  0.00  0.00    -0.446 OA
ATOM     31  O2  <0> A   1     -24.114  -7.603  52.035  0.00  0.00    -0.368 OA
BRANCH  27  32
ATOM     32  O3  <0> A   1     -23.085  -9.614  49.495  0.00  0.00    -0.563 OA
ATOM     33  H20 <0> A   1     -23.225  -9.725  48.544  0.00  0.00    +0.388 HD
ENDBRANCH  27  32
ENDBRANCH  24  25
ENDBRANCH   1  23
TORSDOF 6
ENDMDL
MODEL 3
REMARK VINA RESULT:      -8.0      3.099      4.752
REMARK  Name = CHEMBL60218
REMARK  7 active torsions:
REMARK  status: ('A' for Active; 'I' for Inactive)
REMARK    1  A    between atoms: C1_1  and  N1_2
REMARK    2  A    between atoms: C2_3  and  C3_7
REMARK    3  A    between atoms: C3_7  and  C17_23
REMARK    4  A    between atoms: C4_8  and  C5_9
REMARK    5  A    between atoms: C4_8  and  C11_16
REMARK    6  A    between atoms: C18_24  and  C19_25
REMARK    7  A    between atoms: C21_27  and  O3_33
REMARK                            x       y       z     vdW  Elec       q    Type
REMARK                         _______ _______ _______ _____ _____    ______ ____
ROOT
ATOM      1  C3  <0> A   1     -26.664  -3.553  51.864  0.00  0.00    -0.025 C 
ATOM      2  C4  <0> A   1     -25.908  -2.395  51.788  0.00  0.00    +0.038 C 
ENDROOT
BRANCH   2   3
ATOM      3  C5  <0> A   1     -26.575  -1.089  51.627  0.00  0.00    -0.087 A 
ATOM      4  C6  <0> A   1     -27.083  -0.417  52.743  0.00  0.00    +0.077 A 
ATOM      5  C7  <0> A   1     -27.705   0.803  52.585  0.00  0.00    -0.009 A 
ATOM      6  C8  <0> A   1     -27.828   1.365  51.323  0.00  0.00    +0.113 A 
ATOM      7  C9  <0> A   1     -27.326   0.702  50.213  0.00  0.00    -0.012 A 
ATOM      8  C10 <0> A   1     -26.696  -0.515  50.359  0.00  0.00    +0.070 A 
ATOM      9  F1  <0> A   1     -28.439   2.560  51.175  0.00  0.00    -0.134 F 
ENDBRANCH   2   3
BRANCH   2  10
ATOM     10  C11 <0> A   1     -24.437  -2.468  51.868  0.00  0.00    -0.071 A 
ATOM     11  C12 <0> A   1     -23.693  -2.868  50.754  0.00  0.00    +0.066 A 
ATOM     12  C13 <0> A   1     -22.318  -2.934  50.835  0.00  0.00    -0.010 A 
ATOM     13  C14 <0> A   1     -21.673  -2.606  52.017  0.00  0.00    +0.113 A 
ATOM     14  C15 <0> A   1     -22.406  -2.209  53.125  0.00  0.00    -0.008 A 
ATOM     15  C16 <0> A   1     -23.780  -2.132  53.056  0.00  0.00    +0.077 A 
ATOM     16  F2  <0> A   1     -20.326  -2.674  52.090  0.00  0.00    -0.135 F 
ENDBRANCH   2  10
BRANCH   1  19
ATOM     17  C1  <0> A   1     -28.410  -3.586  49.263  0.00  0.00    +0.384 C 
ATOM     18  N1  <0> A   1     -28.886  -3.497  50.646  0.00  0.00    -0.370 N 
ATOM     19  C2  <0> A   1     -28.133  -3.481  51.784  0.00  0.00    +0.289 C 
ATOM     20  N2  <0> A   1     -28.972  -3.392  52.797  0.00  0.00    -0.312 NA
ATOM     21  N3  <0> A   1     -30.184  -3.349  52.374  0.00  0.00    -0.039 NA
ATOM     22  N4  <0> A   1     -30.218  -3.403  51.087  0.00  0.00    -0.076 NA
ENDBRANCH   1  19
BRANCH   1  23
ATOM     23  C17 <0> A   1     -25.999  -4.856  52.023  0.00  0.00    +0.060 C 
ATOM     24  C18 <0> A   1     -26.535  -5.947  51.483  0.00  0.00    -0.013 C 
BRANCH  24  25
ATOM     25  C19 <0> A   1     -25.794  -7.258  51.540  0.00  0.00    +0.247 C 
ATOM     26  C20 <0> A   1     -24.335  -7.038  51.132  0.00  0.00    +0.049 C 
ATOM     27  C21 <0> A   1     -23.595  -8.380  51.152  0.00  0.00    +0.187 C 
ATOM     28  C22 <0> A   1     -24.282  -9.339  50.171  0.00  0.00    +0.025 C 
ATOM     29  C23 <0> A   1     -25.760  -9.368  50.493  0.00  0.00    +0.497 C 
ATOM     30  O1  <0> A   1     -26.349 -10.416  50.615  0.00  0.00    -0.446 OA
ATOM     31  O2  <0> A   1     -26.401  -8.190  50.639  0.00  0.00    -0.368 OA
BRANCH  27  32
ATOM     32  O3  <0> A   1     -23.634  -8.929  52.470  0.00  0.00    -0.563 OA
ATOM     33  H20 <0> A   1     -24.422  -9.460  52.651  0.00  0.00    +0.388 HD
ENDBRANCH  27  32
ENDBRANCH  24  25
ENDBRANCH   1  23
TORSDOF 6
ENDMDL
MODEL 4
REMARK VINA RESULT:      -7.9      2.926      4.556
REMARK  Name = CHEMBL60218
REMARK  7 active torsions:
REMARK  status: ('A' for Active; 'I' for Inactive)
REMARK    1  A    between atoms: C1_1  and  N1_2
REMARK    2  A    between atoms: C2_3  and  C3_7
REMARK    3  A    between atoms: C3_7  and  C17_23
REMARK    4  A    between atoms: C4_8  and  C5_9
REMARK    5  A    between atoms: C4_8  and  C11_16
REMARK    6  A    between atoms: C18_24  and  C19_25
REMARK    7  A    between atoms: C21_27  and  O3_33
REMARK                            x       y       z     vdW  Elec       q    Type
REMARK                         _______ _______ _______ _____ _____    ______ ____
ROOT
ATOM      1  C3  <0> A   1     -26.543  -3.671  51.555  0.00  0.00    -0.025 C 
ATOM      2  C4  <0> A   1     -25.940  -2.431  51.688  0.00  0.00    +0.038 C 
ENDROOT
BRANCH   2   3
ATOM      3  C5  <0> A   1     -26.758  -1.204  51.635  0.00  0.00    -0.087 A 
ATOM      4  C6  <0> A   1     -26.822  -0.452  50.458  0.00  0.00    +0.077 A 
ATOM      5  C7  <0> A   1     -27.587   0.693  50.416  0.00  0.00    -0.009 A 
ATOM      6  C8  <0> A   1     -28.293   1.101  51.537  0.00  0.00    +0.113 A 
ATOM      7  C9  <0> A   1     -28.233   0.360  52.707  0.00  0.00    -0.012 A 
ATOM      8  C10 <0> A   1     -27.476  -0.791  52.760  0.00  0.00    +0.070 A 
ATOM      9  F1  <0> A   1     -29.041   2.225  51.489  0.00  0.00    -0.134 F 
ENDBRANCH   2   3
BRANCH   2  10
ATOM     10  C11 <0> A   1     -24.480  -2.338  51.881  0.00  0.00    -0.071 A 
ATOM     11  C12 <0> A   1     -23.613  -2.604  50.817  0.00  0.00    +0.066 A 
ATOM     12  C13 <0> A   1     -22.250  -2.515  51.004  0.00  0.00    -0.010 A 
ATOM     13  C14 <0> A   1     -21.738  -2.164  52.244  0.00  0.00    +0.113 A 
ATOM     14  C15 <0> A   1     -22.593  -1.900  53.303  0.00  0.00    -0.008 A 
ATOM     15  C16 <0> A   1     -23.958  -1.979  53.127  0.00  0.00    +0.077 A 
ATOM     16  F2  <0> A   1     -20.402  -2.080  52.421  0.00  0.00    -0.135 F 
ENDBRANCH   2  10
BRANCH   1  19
ATOM     17  C1  <0> A   1     -28.099  -3.451  48.845  0.00  0.00    +0.384 C 
ATOM     18  N1  <0> A   1     -28.670  -3.668  50.176  0.00  0.00    -0.370 N 
ATOM     19  C2  <0> A   1     -28.001  -3.764  51.361  0.00  0.00    +0.289 C 
ATOM     20  N2  <0> A   1     -28.907  -3.958  52.299  0.00  0.00    -0.312 NA
ATOM     21  N3  <0> A   1     -30.085  -3.989  51.786  0.00  0.00    -0.039 NA
ATOM     22  N4  <0> A   1     -30.028  -3.816  50.510  0.00  0.00    -0.076 NA
ENDBRANCH   1  19
BRANCH   1  23
ATOM     23  C17 <0> A   1     -25.728  -4.894  51.607  0.00  0.00    +0.060 C 
ATOM     24  C18 <0> A   1     -25.626  -5.671  50.532  0.00  0.00    -0.013 C 
BRANCH  24  25
ATOM     25  C19 <0> A   1     -24.695  -6.857  50.544  0.00  0.00    +0.247 C 
ATOM     26  C20 <0> A   1     -25.368  -8.042  49.847  0.00  0.00    +0.049 C 
ATOM     27  C21 <0> A   1     -24.436  -9.256  49.898  0.00  0.00    +0.187 C 
ATOM     28  C22 <0> A   1     -24.147  -9.598  51.366  0.00  0.00    +0.025 C 
ATOM     29  C23 <0> A   1     -23.671  -8.341  52.061  0.00  0.00    +0.497 C 
ATOM     30  O1  <0> A   1     -22.674  -8.347  52.742  0.00  0.00    -0.446 OA
ATOM     31  O2  <0> A   1     -24.394  -7.214  51.898  0.00  0.00    -0.368 OA
BRANCH  27  32
ATOM     32  O3  <0> A   1     -23.214  -8.951  49.225  0.00  0.00    -0.563 OA
ATOM     33  H20 <0> A   1     -22.468  -8.790  49.819  0.00  0.00    +0.388 HD
ENDBRANCH  27  32
ENDBRANCH  24  25
ENDBRANCH   1  23
TORSDOF 6
ENDMDL
MODEL 5
REMARK VINA RESULT:      -7.8      0.811      1.506
REMARK  Name = CHEMBL60218
REMARK  7 active torsions:
REMARK  status: ('A' for Active; 'I' for Inactive)
REMARK    1  A    between atoms: C1_1  and  N1_2
REMARK    2  A    between atoms: C2_3  and  C3_7
REMARK    3  A    between atoms: C3_7  and  C17_23
REMARK    4  A    between atoms: C4_8  and  C5_9
REMARK    5  A    between atoms: C4_8  and  C11_16
REMARK    6  A    between atoms: C18_24  and  C19_25
REMARK    7  A    between atoms: C21_27  and  O3_33
REMARK                            x       y       z     vdW  Elec       q    Type
REMARK                         _______ _______ _______ _____ _____    ______ ____
ROOT
ATOM      1  C3  <0> A   1     -25.749  -1.843  50.866  0.00  0.00    -0.025 C 
ATOM      2  C4  <0> A   1     -27.115  -1.661  50.738  0.00  0.00    +0.038 C 
ENDROOT
BRANCH   2   3
ATOM      3  C5  <0> A   1     -27.727  -0.372  51.116  0.00  0.00    -0.087 A 
ATOM      4  C6  <0> A   1     -28.433  -0.255  52.317  0.00  0.00    +0.077 A 
ATOM      5  C7  <0> A   1     -29.001   0.951  52.663  0.00  0.00    -0.009 A 
ATOM      6  C8  <0> A   1     -28.874   2.048  51.825  0.00  0.00    +0.113 A 
ATOM      7  C9  <0> A   1     -28.176   1.938  50.633  0.00  0.00    -0.012 A 
ATOM      8  C10 <0> A   1     -27.597   0.738  50.278  0.00  0.00    +0.070 A 
ATOM      9  F1  <0> A   1     -29.435   3.228  52.171  0.00  0.00    -0.134 F 
ENDBRANCH   2   3
BRANCH   2  10
ATOM     10  C11 <0> A   1     -27.960  -2.756  50.223  0.00  0.00    -0.071 A 
ATOM     11  C12 <0> A   1     -28.777  -3.481  51.095  0.00  0.00    +0.066 A 
ATOM     12  C13 <0> A   1     -29.564  -4.503  50.608  0.00  0.00    -0.010 A 
ATOM     13  C14 <0> A   1     -29.545  -4.814  49.257  0.00  0.00    +0.113 A 
ATOM     14  C15 <0> A   1     -28.736  -4.099  48.388  0.00  0.00    -0.008 A 
ATOM     15  C16 <0> A   1     -27.950  -3.070  48.861  0.00  0.00    +0.077 A 
ATOM     16  F2  <0> A   1     -30.318  -5.817  48.787  0.00  0.00    -0.135 F 
ENDBRANCH   2  10
BRANCH   1  19
ATOM     17  C1  <0> A   1     -25.182  -1.157  53.870  0.00  0.00    +0.384 C 
ATOM     18  N1  <0> A   1     -24.663  -0.459  52.692  0.00  0.00    -0.370 N 
ATOM     19  C2  <0> A   1     -24.905  -0.750  51.381  0.00  0.00    +0.289 C 
ATOM     20  N2  <0> A   1     -24.238   0.132  50.663  0.00  0.00    -0.312 NA
ATOM     21  N3  <0> A   1     -23.604   0.947  51.428  0.00  0.00    -0.039 NA
ATOM     22  N4  <0> A   1     -23.812   0.660  52.667  0.00  0.00    -0.076 NA
ENDBRANCH   1  19
BRANCH   1  23
ATOM     23  C17 <0> A   1     -25.139  -3.128  50.491  0.00  0.00    +0.060 C 
ATOM     24  C18 <0> A   1     -25.081  -4.121  51.374  0.00  0.00    -0.013 C 
BRANCH  24  25
ATOM     25  C19 <0> A   1     -24.569  -5.475  50.954  0.00  0.00    +0.247 C 
ATOM     26  C20 <0> A   1     -25.556  -6.111  49.972  0.00  0.00    +0.049 C 
ATOM     27  C21 <0> A   1     -25.053  -7.504  49.579  0.00  0.00    +0.187 C 
ATOM     28  C22 <0> A   1     -24.933  -8.363  50.845  0.00  0.00    +0.025 C 
ATOM     29  C23 <0> A   1     -24.111  -7.601  51.861  0.00  0.00    +0.497 C 
ATOM     30  O1  <0> A   1     -23.189  -8.128  52.435  0.00  0.00    -0.446 OA
ATOM     31  O2  <0> A   1     -24.439  -6.315  52.106  0.00  0.00    -0.368 OA
BRANCH  27  32
ATOM     32  O3  <0> A   1     -23.775  -7.392  48.951  0.00  0.00    -0.563 OA
ATOM     33  H20 <0> A   1     -23.640  -8.013  48.222  0.00  0.00    +0.388 HD
ENDBRANCH  27  32
ENDBRANCH  24  25
ENDBRANCH   1  23
TORSDOF 6
ENDMDL
MODEL 6
REMARK VINA RESULT:      -7.7     15.016     18.360
REMARK  Name = CHEMBL60218
REMARK  7 active torsions:
REMARK  status: ('A' for Active; 'I' for Inactive)
REMARK    1  A    between atoms: C1_1  and  N1_2
REMARK    2  A    between atoms: C2_3  and  C3_7
REMARK    3  A    between atoms: C3_7  and  C17_23
REMARK    4  A    between atoms: C4_8  and  C5_9
REMARK    5  A    between atoms: C4_8  and  C11_16
REMARK    6  A    between atoms: C18_24  and  C19_25
REMARK    7  A    between atoms: C21_27  and  O3_33
REMARK                            x       y       z     vdW  Elec       q    Type
REMARK                         _______ _______ _______ _____ _____    ______ ____
ROOT
ATOM      1  C3  <0> A   1     -14.680   7.342  45.750  0.00  0.00    -0.025 C 
ATOM      2  C4  <0> A   1     -15.262   7.979  46.832  0.00  0.00    +0.038 C 
ENDROOT
BRANCH   2   3
ATOM      3  C5  <0> A   1     -15.951   7.189  47.871  0.00  0.00    -0.087 A 
ATOM      4  C6  <0> A   1     -15.329   6.951  49.100  0.00  0.00    +0.077 A 
ATOM      5  C7  <0> A   1     -15.978   6.212  50.066  0.00  0.00    -0.009 A 
ATOM      6  C8  <0> A   1     -17.245   5.705  49.821  0.00  0.00    +0.113 A 
ATOM      7  C9  <0> A   1     -17.866   5.937  48.603  0.00  0.00    -0.012 A 
ATOM      8  C10 <0> A   1     -17.230   6.681  47.632  0.00  0.00    +0.070 A 
ATOM      9  F1  <0> A   1     -17.875   4.980  50.771  0.00  0.00    -0.134 F 
ENDBRANCH   2   3
BRANCH   2  10
ATOM     10  C11 <0> A   1     -15.195   9.449  46.946  0.00  0.00    -0.071 A 
ATOM     11  C12 <0> A   1     -13.977  10.077  47.223  0.00  0.00    +0.066 A 
ATOM     12  C13 <0> A   1     -13.921  11.450  47.328  0.00  0.00    -0.010 A 
ATOM     13  C14 <0> A   1     -15.069  12.209  47.161  0.00  0.00    +0.113 A 
ATOM     14  C15 <0> A   1     -16.280  11.592  46.887  0.00  0.00    -0.008 A 
ATOM     15  C16 <0> A   1     -16.348  10.220  46.773  0.00  0.00    +0.077 A 
ATOM     16  F2  <0> A   1     -15.008  13.555  47.267  0.00  0.00    -0.135 F 
ENDBRANCH   2  10
BRANCH   1  19
ATOM     17  C1  <0> A   1     -16.827   5.673  44.195  0.00  0.00    +0.384 C 
ATOM     18  N1  <0> A   1     -15.687   5.156  44.955  0.00  0.00    -0.370 N 
ATOM     19  C2  <0> A   1     -14.747   5.875  45.635  0.00  0.00    +0.289 C 
ATOM     20  N2  <0> A   1     -13.911   5.005  46.168  0.00  0.00    -0.312 NA
ATOM     21  N3  <0> A   1     -14.261   3.805  45.872  0.00  0.00    -0.039 NA
ATOM     22  N4  <0> A   1     -15.326   3.810  45.146  0.00  0.00    -0.076 NA
ENDBRANCH   1  19
BRANCH   1  23
ATOM     23  C17 <0> A   1     -13.995   8.130  44.714  0.00  0.00    +0.060 C 
ATOM     24  C18 <0> A   1     -13.660   7.562  43.558  0.00  0.00    -0.013 C 
BRANCH  24  25
ATOM     25  C19 <0> A   1     -13.070   8.396  42.451  0.00  0.00    +0.247 C 
ATOM     26  C20 <0> A   1     -13.611   9.826  42.545  0.00  0.00    +0.049 C 
ATOM     27  C21 <0> A   1     -13.041  10.661  41.394  0.00  0.00    +0.187 C 
ATOM     28  C22 <0> A   1     -13.459  10.021  40.064  0.00  0.00    +0.025 C 
ATOM     29  C23 <0> A   1     -13.079   8.557  40.100  0.00  0.00    +0.497 C 
ATOM     30  O1  <0> A   1     -12.476   8.049  39.185  0.00  0.00    -0.446 OA
ATOM     31  O2  <0> A   1     -13.434   7.837  41.184  0.00  0.00    -0.368 OA
BRANCH  27  32
ATOM     32  O3  <0> A   1     -11.616  10.693  41.486  0.00  0.00    -0.563 OA
ATOM     33  H20 <0> A   1     -11.273  11.408  42.039  0.00  0.00    +0.388 HD
ENDBRANCH  27  32
ENDBRANCH  24  25
ENDBRANCH   1  23
TORSDOF 6
ENDMDL
MODEL 7
REMARK VINA RESULT:      -7.7     16.600     19.612
REMARK  Name = CHEMBL60218
REMARK  7 active torsions:
REMARK  status: ('A' for Active; 'I' for Inactive)
REMARK    1  A    between atoms: C1_1  and  N1_2
REMARK    2  A    between atoms: C2_3  and  C3_7
REMARK    3  A    between atoms: C3_7  and  C17_23
REMARK    4  A    between atoms: C4_8  and  C5_9
REMARK    5  A    between atoms: C4_8  and  C11_16
REMARK    6  A    between atoms: C18_24  and  C19_25
REMARK    7  A    between atoms: C21_27  and  O3_33
REMARK                            x       y       z     vdW  Elec       q    Type
REMARK                         _______ _______ _______ _____ _____    ______ ____
ROOT
ATOM      1  C3  <0> A   1     -12.982   8.928  45.498  0.00  0.00    -0.025 C 
ATOM      2  C4  <0> A   1     -13.421   7.917  46.335  0.00  0.00    +0.038 C 
ENDROOT
BRANCH   2   3
ATOM      3  C5  <0> A   1     -13.039   7.921  47.761  0.00  0.00    -0.087 A 
ATOM      4  C6  <0> A   1     -13.856   8.550  48.705  0.00  0.00    +0.077 A 
ATOM      5  C7  <0> A   1     -13.493   8.550  50.035  0.00  0.00    -0.009 A 
ATOM      6  C8  <0> A   1     -12.321   7.929  50.437  0.00  0.00    +0.113 A 
ATOM      7  C9  <0> A   1     -11.506   7.304  49.505  0.00  0.00    -0.012 A 
ATOM      8  C10 <0> A   1     -11.862   7.291  48.173  0.00  0.00    +0.070 A 
ATOM      9  F1  <0> A   1     -11.970   7.933  51.742  0.00  0.00    -0.134 F 
ENDBRANCH   2   3
BRANCH   2  10
ATOM     10  C11 <0> A   1     -14.269   6.834  45.802  0.00  0.00    -0.071 A 
ATOM     11  C12 <0> A   1     -13.687   5.736  45.162  0.00  0.00    +0.066 A 
ATOM     12  C13 <0> A   1     -14.485   4.728  44.665  0.00  0.00    -0.010 A 
ATOM     13  C14 <0> A   1     -15.863   4.800  44.799  0.00  0.00    +0.113 A 
ATOM     14  C15 <0> A   1     -16.447   5.887  45.432  0.00  0.00    -0.008 A 
ATOM     15  C16 <0> A   1     -15.659   6.898  45.939  0.00  0.00    +0.077 A 
ATOM     16  F2  <0> A   1     -16.640   3.809  44.309  0.00  0.00    -0.135 F 
ENDBRANCH   2  10
BRANCH   1  19
ATOM     17  C1  <0> A   1     -13.943  11.668  46.676  0.00  0.00    +0.384 C 
ATOM     18  N1  <0> A   1     -12.562  11.200  46.542  0.00  0.00    -0.370 N 
ATOM     19  C2  <0> A   1     -12.134  10.009  46.030  0.00  0.00    +0.289 C 
ATOM     20  N2  <0> A   1     -10.818  10.011  46.105  0.00  0.00    -0.312 NA
ATOM     21  N3  <0> A   1     -10.398  11.110  46.621  0.00  0.00    -0.039 NA
ATOM     22  N4  <0> A   1     -11.389  11.883  46.908  0.00  0.00    -0.076 NA
ENDBRANCH   1  19
BRANCH   1  23
ATOM     23  C17 <0> A   1     -13.361   8.923  44.077  0.00  0.00    +0.060 C 
ATOM     24  C18 <0> A   1     -13.275  10.041  43.361  0.00  0.00    -0.013 C 
BRANCH  24  25
ATOM     25  C19 <0> A   1     -13.545  10.010  41.879  0.00  0.00    +0.247 C 
ATOM     26  C20 <0> A   1     -12.226  10.158  41.116  0.00  0.00    +0.049 C 
ATOM     27  C21 <0> A   1     -12.509  10.167  39.611  0.00  0.00    +0.187 C 
ATOM     28  C22 <0> A   1     -13.444  11.340  39.289  0.00  0.00    +0.025 C 
ATOM     29  C23 <0> A   1     -14.642  11.260  40.209  0.00  0.00    +0.497 C 
ATOM     30  O1  <0> A   1     -15.766  11.345  39.775  0.00  0.00    -0.446 OA
ATOM     31  O2  <0> A   1     -14.417  11.090  41.529  0.00  0.00    -0.368 OA
BRANCH  27  32
ATOM     32  O3  <0> A   1     -13.132   8.938  39.233  0.00  0.00    -0.563 OA
ATOM     33  H20 <0> A   1     -12.835   8.592  38.380  0.00  0.00    +0.388 HD
ENDBRANCH  27  32
ENDBRANCH  24  25
ENDBRANCH   1  23
TORSDOF 6
ENDMDL
MODEL 8
REMARK VINA RESULT:      -7.6     25.828     28.194
REMARK  Name = CHEMBL60218
REMARK  7 active torsions:
REMARK  status: ('A' for Active; 'I' for Inactive)
REMARK    1  A    between atoms: C1_1  and  N1_2
REMARK    2  A    between atoms: C2_3  and  C3_7
REMARK    3  A    between atoms: C3_7  and  C17_23
REMARK    4  A    between atoms: C4_8  and  C5_9
REMARK    5  A    between atoms: C4_8  and  C11_16
REMARK    6  A    between atoms: C18_24  and  C19_25
REMARK    7  A    between atoms: C21_27  and  O3_33
REMARK                            x       y       z     vdW  Elec       q    Type
REMARK                         _______ _______ _______ _____ _____    ______ ____
ROOT
ATOM      1  C3  <0> A   1      -2.607   9.854  52.267  0.00  0.00    -0.025 C 
ATOM      2  C4  <0> A   1      -1.410  10.120  52.910  0.00  0.00    +0.038 C 
ENDROOT
BRANCH   2   3
ATOM      3  C5  <0> A   1      -1.403  10.901  54.162  0.00  0.00    -0.087 A 
ATOM      4  C6  <0> A   1      -1.437  10.248  55.398  0.00  0.00    +0.077 A 
ATOM      5  C7  <0> A   1      -1.430  10.984  56.563  0.00  0.00    -0.009 A 
ATOM      6  C8  <0> A   1      -1.390  12.369  56.513  0.00  0.00    +0.113 A 
ATOM      7  C9  <0> A   1      -1.357  13.022  55.290  0.00  0.00    -0.012 A 
ATOM      8  C10 <0> A   1      -1.357  12.297  54.117  0.00  0.00    +0.070 A 
ATOM      9  F1  <0> A   1      -1.385  13.084  57.659  0.00  0.00    -0.134 F 
ENDBRANCH   2   3
BRANCH   2  10
ATOM     10  C11 <0> A   1      -0.142   9.624  52.343  0.00  0.00    -0.071 A 
ATOM     11  C12 <0> A   1       0.594  10.422  51.462  0.00  0.00    +0.066 A 
ATOM     12  C13 <0> A   1       1.778   9.953  50.935  0.00  0.00    -0.010 A 
ATOM     13  C14 <0> A   1       2.240   8.691  51.276  0.00  0.00    +0.113 A 
ATOM     14  C15 <0> A   1       1.515   7.894  52.149  0.00  0.00    -0.008 A 
ATOM     15  C16 <0> A   1       0.333   8.354  52.687  0.00  0.00    +0.077 A 
ATOM     16  F2  <0> A   1       3.401   8.236  50.755  0.00  0.00    -0.135 F 
ENDBRANCH   2  10
BRANCH   1  19
ATOM     17  C1  <0> A   1      -4.422   8.408  54.372  0.00  0.00    +0.384 C 
ATOM     18  N1  <0> A   1      -4.658   9.713  53.750  0.00  0.00    -0.370 N 
ATOM     19  C2  <0> A   1      -3.874  10.350  52.833  0.00  0.00    +0.289 C 
ATOM     20  N2  <0> A   1      -4.465  11.494  52.551  0.00  0.00    -0.312 NA
ATOM     21  N3  <0> A   1      -5.554  11.614  53.222  0.00  0.00    -0.039 NA
ATOM     22  N4  <0> A   1      -5.745  10.579  53.965  0.00  0.00    -0.076 NA
ENDBRANCH   1  19
BRANCH   1  23
ATOM     23  C17 <0> A   1      -2.614   9.077  51.019  0.00  0.00    +0.060 C 
ATOM     24  C18 <0> A   1      -3.151   7.860  50.995  0.00  0.00    -0.013 C 
BRANCH  24  25
ATOM     25  C19 <0> A   1      -3.270   7.113  49.691  0.00  0.00    +0.247 C 
ATOM     26  C20 <0> A   1      -1.957   6.381  49.401  0.00  0.00    +0.049 C 
ATOM     27  C21 <0> A   1      -2.067   5.657  48.055  0.00  0.00    +0.187 C 
ATOM     28  C22 <0> A   1      -2.352   6.690  46.958  0.00  0.00    +0.025 C 
ATOM     29  C23 <0> A   1      -3.541   7.522  47.386  0.00  0.00    +0.497 C 
ATOM     30  O1  <0> A   1      -4.466   7.717  46.634  0.00  0.00    -0.446 OA
ATOM     31  O2  <0> A   1      -3.538   8.039  48.632  0.00  0.00    -0.368 OA
BRANCH  27  32
ATOM     32  O3  <0> A   1      -3.131   4.706  48.109  0.00  0.00    -0.563 OA
ATOM     33  H20 <0> A   1      -3.044   3.981  47.473  0.00  0.00    +0.388 HD
ENDBRANCH  27  32
ENDBRANCH  24  25
ENDBRANCH   1  23
TORSDOF 6
ENDMDL
MODEL 9
REMARK VINA RESULT:      -7.6     14.975     18.319
REMARK  Name = CHEMBL60218
REMARK  7 active torsions:
REMARK  status: ('A' for Active; 'I' for Inactive)
REMARK    1  A    between atoms: C1_1  and  N1_2
REMARK    2  A    between atoms: C2_3  and  C3_7
REMARK    3  A    between atoms: C3_7  and  C17_23
REMARK    4  A    between atoms: C4_8  and  C5_9
REMARK    5  A    between atoms: C4_8  and  C11_16
REMARK    6  A    between atoms: C18_24  and  C19_25
REMARK    7  A    between atoms: C21_27  and  O3_33
REMARK                            x       y       z     vdW  Elec       q    Type
REMARK                         _______ _______ _______ _____ _____    ______ ____
ROOT
ATOM      1  C3  <0> A   1     -15.105   7.355  45.513  0.00  0.00    -0.025 C 
ATOM      2  C4  <0> A   1     -15.516   7.975  46.681  0.00  0.00    +0.038 C 
ENDROOT
BRANCH   2   3
ATOM      3  C5  <0> A   1     -16.387   7.255  47.630  0.00  0.00    -0.087 A 
ATOM      4  C6  <0> A   1     -15.838   6.635  48.756  0.00  0.00    +0.077 A 
ATOM      5  C7  <0> A   1     -16.657   5.965  49.639  0.00  0.00    -0.009 A 
ATOM      6  C8  <0> A   1     -18.024   5.905  49.413  0.00  0.00    +0.113 A 
ATOM      7  C9  <0> A   1     -18.574   6.518  48.298  0.00  0.00    -0.012 A 
ATOM      8  C10 <0> A   1     -17.766   7.197  47.411  0.00  0.00    +0.070 A 
ATOM      9  F1  <0> A   1     -18.821   5.246  50.281  0.00  0.00    -0.134 F 
ENDBRANCH   2   3
BRANCH   2  10
ATOM     10  C11 <0> A   1     -15.084   9.354  46.975  0.00  0.00    -0.071 A 
ATOM     11  C12 <0> A   1     -13.826   9.591  47.536  0.00  0.00    +0.066 A 
ATOM     12  C13 <0> A   1     -13.428  10.883  47.809  0.00  0.00    -0.010 A 
ATOM     13  C14 <0> A   1     -14.272  11.946  47.528  0.00  0.00    +0.113 A 
ATOM     14  C15 <0> A   1     -15.521  11.717  46.972  0.00  0.00    -0.008 A 
ATOM     15  C16 <0> A   1     -15.928  10.431  46.688  0.00  0.00    +0.077 A 
ATOM     16  F2  <0> A   1     -13.877  13.209  47.799  0.00  0.00    -0.135 F 
ENDBRANCH   2  10
BRANCH   1  19
ATOM     17  C1  <0> A   1     -13.647   4.708  46.337  0.00  0.00    +0.384 C 
ATOM     18  N1  <0> A   1     -14.896   4.830  45.582  0.00  0.00    -0.370 N 
ATOM     19  C2  <0> A   1     -15.537   5.978  45.218  0.00  0.00    +0.289 C 
ATOM     20  N2  <0> A   1     -16.618   5.618  44.554  0.00  0.00    -0.312 NA
ATOM     21  N3  <0> A   1     -16.694   4.338  44.478  0.00  0.00    -0.039 NA
ATOM     22  N4  <0> A   1     -15.690   3.789  45.069  0.00  0.00    -0.076 NA
ENDBRANCH   1  19
BRANCH   1  23
ATOM     23  C17 <0> A   1     -14.238   8.072  44.565  0.00  0.00    +0.060 C 
ATOM     24  C18 <0> A   1     -14.006   7.562  43.359  0.00  0.00    -0.013 C 
BRANCH  24  25
ATOM     25  C19 <0> A   1     -13.220   8.353  42.345  0.00  0.00    +0.247 C 
ATOM     26  C20 <0> A   1     -13.596   9.833  42.449  0.00  0.00    +0.049 C 
ATOM     27  C21 <0> A   1     -12.826  10.628  41.390  0.00  0.00    +0.187 C 
ATOM     28  C22 <0> A   1     -13.187  10.084  40.001  0.00  0.00    +0.025 C 
ATOM     29  C23 <0> A   1     -12.986   8.585  40.012  0.00  0.00    +0.497 C 
ATOM     30  O1  <0> A   1     -12.362   8.035  39.136  0.00  0.00    -0.446 OA
ATOM     31  O2  <0> A   1     -13.524   7.880  41.028  0.00  0.00    -0.368 OA
BRANCH  27  32
ATOM     32  O3  <0> A   1     -11.422  10.486  41.612  0.00  0.00    -0.563 OA
ATOM     33  H20 <0> A   1     -11.051   9.661  41.269  0.00  0.00    +0.388 HD
ENDBRANCH  27  32
ENDBRANCH  24  25
ENDBRANCH   1  23
TORSDOF 6
ENDMDL
MODEL 10
REMARK VINA RESULT:      -7.5      3.245      4.698
REMARK  Name = CHEMBL60218
REMARK  7 active torsions:
REMARK  status: ('A' for Active; 'I' for Inactive)
REMARK    1  A    between atoms: C1_1  and  N1_2
REMARK    2  A    between atoms: C2_3  and  C3_7
REMARK    3  A    between atoms: C3_7  and  C17_23
REMARK    4  A    between atoms: C4_8  and  C5_9
REMARK    5  A    between atoms: C4_8  and  C11_16
REMARK    6  A    between atoms: C18_24  and  C19_25
REMARK    7  A    between atoms: C21_27  and  O3_33
REMARK                            x       y       z     vdW  Elec       q    Type
REMARK                         _______ _______ _______ _____ _____    ______ ____
ROOT
ATOM      1  C3  <0> A   1     -27.621  -4.002  51.161  0.00  0.00    -0.025 C 
ATOM      2  C4  <0> A   1     -27.334  -2.726  51.616  0.00  0.00    +0.038 C 
ENDROOT
BRANCH   2   3
ATOM      3  C5  <0> A   1     -28.403  -1.893  52.199  0.00  0.00    -0.087 A 
ATOM      4  C6  <0> A   1     -29.054  -0.936  51.415  0.00  0.00    +0.077 A 
ATOM      5  C7  <0> A   1     -30.052  -0.161  51.966  0.00  0.00    -0.009 A 
ATOM      6  C8  <0> A   1     -30.410  -0.328  53.295  0.00  0.00    +0.113 A 
ATOM      7  C9  <0> A   1     -29.767  -1.275  54.077  0.00  0.00    -0.012 A 
ATOM      8  C10 <0> A   1     -28.773  -2.061  53.536  0.00  0.00    +0.070 A 
ATOM      9  F1  <0> A   1     -31.388   0.435  53.830  0.00  0.00    -0.134 F 
ENDBRANCH   2   3
BRANCH   2  10
ATOM     10  C11 <0> A   1     -25.959  -2.200  51.516  0.00  0.00    -0.071 A 
ATOM     11  C12 <0> A   1     -25.518  -1.610  50.328  0.00  0.00    +0.066 A 
ATOM     12  C13 <0> A   1     -24.232  -1.121  50.241  0.00  0.00    -0.010 A 
ATOM     13  C14 <0> A   1     -23.376  -1.213  51.328  0.00  0.00    +0.113 A 
ATOM     14  C15 <0> A   1     -23.808  -1.798  52.509  0.00  0.00    -0.008 A 
ATOM     15  C16 <0> A   1     -25.093  -2.285  52.611  0.00  0.00    +0.077 A 
ATOM     16  F2  <0> A   1     -22.117  -0.732  51.236  0.00  0.00    -0.135 F 
ENDBRANCH   2  10
BRANCH   1  19
ATOM     17  C1  <0> A   1     -28.786  -5.808  53.441  0.00  0.00    +0.384 C 
ATOM     18  N1  <0> A   1     -29.493  -5.314  52.257  0.00  0.00    -0.370 N 
ATOM     19  C2  <0> A   1     -28.994  -4.528  51.260  0.00  0.00    +0.289 C 
ATOM     20  N2  <0> A   1     -29.976  -4.328  50.402  0.00  0.00    -0.312 NA
ATOM     21  N3  <0> A   1     -31.042  -4.930  50.791  0.00  0.00    -0.039 NA
ATOM     22  N4  <0> A   1     -30.832  -5.551  51.900  0.00  0.00    -0.076 NA
ENDBRANCH   1  19
BRANCH   1  23
ATOM     23  C17 <0> A   1     -26.556  -4.833  50.579  0.00  0.00    +0.060 C 
ATOM     24  C18 <0> A   1     -25.874  -5.677  51.348  0.00  0.00    -0.013 C 
BRANCH  24  25
ATOM     25  C19 <0> A   1     -24.869  -6.615  50.731  0.00  0.00    +0.247 C 
ATOM     26  C20 <0> A   1     -25.481  -7.278  49.494  0.00  0.00    +0.049 C 
ATOM     27  C21 <0> A   1     -24.471  -8.261  48.894  0.00  0.00    +0.187 C 
ATOM     28  C22 <0> A   1     -24.125  -9.321  49.947  0.00  0.00    +0.025 C 
ATOM     29  C23 <0> A   1     -23.715  -8.611  51.219  0.00  0.00    +0.497 C 
ATOM     30  O1  <0> A   1     -22.703  -8.917  51.802  0.00  0.00    -0.446 OA
ATOM     31  O2  <0> A   1     -24.513  -7.626  51.681  0.00  0.00    -0.368 OA
BRANCH  27  32
ATOM     32  O3  <0> A   1     -23.288  -7.558  48.511  0.00  0.00    -0.563 OA
ATOM     33  H20 <0> A   1     -23.241  -6.654  48.851  0.00  0.00    +0.388 HD
ENDBRANCH  27  32
ENDBRANCH  24  25
ENDBRANCH   1  23
TORSDOF 6
ENDMDL
