REMARK VINA RESULT:      -7.5     29.504     31.122
REMARK  Name = CHEMBL296915
REMARK  7 active torsions:
REMARK  status: ('A' for Active; 'I' for Inactive)
REMARK    1  A    between atoms: C5_5  and  C14_15
REMARK    2  A    between atoms: C6_6  and  O1_7
REMARK    3  A    between atoms: O1_7  and  C7_8
REMARK    4  A    between atoms: C7_8  and  C8_9
REMARK    5  A    between atoms: C14_15  and  C15_16
REMARK    6  A    between atoms: C15_16  and  C16_17
REMARK    7  A    between atoms: C18_19  and  O4_25
REMARK                            x       y       z     vdW  Elec       q    Type
REMARK                         _______ _______ _______ _____ _____    ______ ____
ROOT
ATOM      1  C1  <0> A   1     -25.611  -1.112  50.295  0.00  0.00    -0.053 A 
ATOM      2  C2  <0> A   1     -26.863  -0.617  50.612  0.00  0.00    +0.013 A 
ATOM      3  C3  <0> A   1     -27.755  -1.395  51.329  0.00  0.00    +0.007 A 
ATOM      4  C4  <0> A   1     -27.395  -2.670  51.731  0.00  0.00    +0.013 A 
ATOM      5  C5  <0> A   1     -26.145  -3.169  51.416  0.00  0.00    -0.102 A 
ATOM      6  C6  <0> A   1     -25.250  -2.389  50.698  0.00  0.00    +0.162 A 
ATOM      7 Cl1  <0> A   1     -28.517  -3.643  52.630  0.00  0.00    -0.038 Cl
ATOM      8 Cl2  <0> A   1     -27.316   0.981  50.109  0.00  0.00    -0.052 Cl
ENDROOT
BRANCH   6   9
ATOM      9  O1  <0> A   1     -24.020  -2.877  50.387  0.00  0.00    -0.297 OA
BRANCH   9  10
ATOM     10  C7  <0> A   1     -22.892  -2.116  50.820  0.00  0.00    +0.191 C 
BRANCH  10  11
ATOM     11  C8  <0> A   1     -22.492  -2.553  52.231  0.00  0.00    +0.000 C 
ATOM     12  C9  <0> A   1     -22.535  -1.347  53.171  0.00  0.00    +0.017 C 
ATOM     13  C10 <0> A   1     -22.136  -1.784  54.582  0.00  0.00    +0.005 C 
ATOM     14  C11 <0> A   1     -20.718  -2.359  54.555  0.00  0.00    +0.001 C 
ATOM     15  C12 <0> A   1     -20.674  -3.565  53.615  0.00  0.00    +0.010 C 
ATOM     16  C13 <0> A   1     -21.074  -3.128  52.204  0.00  0.00    +0.018 C 
ENDBRANCH  10  11
ENDBRANCH   9  10
ENDBRANCH   6   9
BRANCH   5  17
ATOM     17  C14 <0> A   1     -25.754  -4.556  51.855  0.00  0.00    +0.097 C 
BRANCH  17  18
ATOM     18  C15 <0> A   1     -26.236  -5.572  50.819  0.00  0.00    +0.061 C 
BRANCH  18  19
ATOM     19  C16 <0> A   1     -25.097  -6.537  50.481  0.00  0.00    +0.199 C 
ATOM     20  C17 <0> A   1     -25.526  -7.453  49.332  0.00  0.00    +0.041 C 
ATOM     21  C18 <0> A   1     -24.398  -8.443  49.025  0.00  0.00    +0.184 C 
ATOM     22  C19 <0> A   1     -24.109  -9.271  50.284  0.00  0.00    +0.020 C 
ATOM     23  C20 <0> A   1     -23.887  -8.318  51.438  0.00  0.00    +0.496 C 
ATOM     24  O2  <0> A   1     -22.930  -8.435  52.166  0.00  0.00    -0.453 OA
ATOM     25  O3  <0> A   1     -24.790  -7.333  51.630  0.00  0.00    -0.366 OA
BRANCH  21  26
ATOM     26  O4  <0> A   1     -23.223  -7.728  48.639  0.00  0.00    -0.563 OA
ATOM     27  H26 <0> A   1     -23.080  -7.691  47.683  0.00  0.00    +0.386 HD
ENDBRANCH  21  26
ENDBRANCH  18  19
ENDBRANCH  17  18
ENDBRANCH   5  17
TORSDOF 7
