REMARK VINA RESULT:      -7.7     21.280     24.628
REMARK  Name = CHEMBL353734
REMARK  10 active torsions:
REMARK  status: ('A' for Active; 'I' for Inactive)
REMARK    1  A    between atoms: C1_1  and  C2_2
REMARK    2  A    between atoms: C4_5  and  O4_28
REMARK    3  A    between atoms: C6_8  and  C13_17
REMARK    4  A    between atoms: C7_10  and  C12_16
REMARK    5  A    between atoms: C13_17  and  C14_18
REMARK    6  A    between atoms: C14_18  and  C15_19
REMARK    7  A    between atoms: C17_21  and  O3_27
REMARK    8  A    between atoms: O4_28  and  C20_29
REMARK    9  A    between atoms: C20_29  and  C21_31
REMARK   10  A    between atoms: C21_31  and  C22_32
REMARK                            x       y       z     vdW  Elec       q    Type
REMARK                         _______ _______ _______ _____ _____    ______ ____
ROOT
ATOM      1  C1  <0> A   1      -0.281   2.401  44.433  0.00  0.00    +0.033 C 
ATOM      2  C2  <0> A   1      -1.613   3.151  44.356  0.00  0.00    +0.025 C 
ATOM      3  C3  <0> A   1      -1.948   3.755  45.727  0.00  0.00    +0.020 C 
ATOM      4  C4  <0> A   1      -3.267   4.516  45.607  0.00  0.00    +0.176 C 
ATOM      5  C5  <0> A   1      -4.395   3.620  45.155  0.00  0.00    +0.040 C 
ATOM      6  C6  <0> A   1      -5.261   3.153  46.328  0.00  0.00    +0.013 C 
ATOM      7  C7  <0> A   1      -6.503   2.453  45.773  0.00  0.00    +0.022 C 
ATOM      8  C8  <0> A   1      -6.144   1.418  44.751  0.00  0.00    -0.032 C 
ATOM      9  C9  <0> A   1      -4.994   1.385  44.102  0.00  0.00    -0.006 C 
ATOM     10  C10 <0> A   1      -3.961   2.408  44.384  0.00  0.00    -0.086 C 
ATOM     11  C11 <0> A   1      -2.718   2.193  43.993  0.00  0.00    -0.022 C 
ATOM     12  C12 <0> A   1      -7.418   3.496  45.127  0.00  0.00    +0.029 C 
ENDROOT
BRANCH   6  13
ATOM     13  C13 <0> A   1      -5.681   4.361  47.167  0.00  0.00    +0.057 C 
BRANCH  13  14
ATOM     14  C14 <0> A   1      -6.570   3.895  48.322  0.00  0.00    +0.040 C 
BRANCH  14  15
ATOM     15  C15 <0> A   1      -5.729   3.760  49.592  0.00  0.00    +0.194 C 
ATOM     16  C16 <0> A   1      -6.183   2.527  50.378  0.00  0.00    +0.039 C 
ATOM     17  C17 <0> A   1      -5.366   2.418  51.670  0.00  0.00    +0.183 C 
ATOM     18  C18 <0> A   1      -5.582   3.689  52.502  0.00  0.00    +0.018 C 
ATOM     19  C19 <0> A   1      -5.310   4.887  51.618  0.00  0.00    +0.495 C 
ATOM     20  O1  <0> A   1      -4.588   5.782  51.989  0.00  0.00    -0.453 OA
ATOM     21  O2  <0> A   1      -5.896   4.927  50.404  0.00  0.00    -0.366 OA
BRANCH  17  22
ATOM     22  O3  <0> A   1      -3.979   2.283  51.349  0.00  0.00    -0.563 OA
ATOM     23  H27 <0> A   1      -3.492   3.119  51.354  0.00  0.00    +0.386 HD
ENDBRANCH  17  22
ENDBRANCH  14  15
ENDBRANCH  13  14
ENDBRANCH   6  13
BRANCH   4  24
ATOM     24  O4  <0> A   1      -3.600   5.073  46.880  0.00  0.00    -0.321 OA
BRANCH  24  25
ATOM     25  C20 <0> A   1      -3.106   6.290  47.160  0.00  0.00    +0.449 C 
ATOM     26  O5  <0> A   1      -2.212   6.748  46.490  0.00  0.00    -0.493 OA
BRANCH  25  27
ATOM     27  C21 <0> A   1      -3.669   7.085  48.310  0.00  0.00    +0.150 C 
BRANCH  27  28
ATOM     28  C22 <0> A   1      -2.607   7.268  49.362  0.00  0.00    -0.080 A 
ATOM     29  C23 <0> A   1      -1.934   6.171  49.864  0.00  0.00    +0.017 A 
ATOM     30  C24 <0> A   1      -0.959   6.340  50.830  0.00  0.00    +0.002 A 
ATOM     31  C25 <0> A   1      -0.656   7.607  51.293  0.00  0.00    +0.007 A 
ATOM     32  C26 <0> A   1      -1.329   8.705  50.789  0.00  0.00    +0.005 A 
ATOM     33  C27 <0> A   1      -2.301   8.536  49.820  0.00  0.00    +0.024 A 
ENDBRANCH  27  28
ENDBRANCH  25  27
ENDBRANCH  24  25
ENDBRANCH   4  24
TORSDOF 8
