REMARK VINA RESULT:      -7.2     18.341     21.622
REMARK  Name = CHEMBL301952
REMARK  4 active torsions:
REMARK  status: ('A' for Active; 'I' for Inactive)
REMARK    1  A    between atoms: C6_6  and  C7_7
REMARK    2  A    between atoms: C12_12  and  C13_13
REMARK    3  A    between atoms: C14_14  and  C15_15
REMARK    4  A    between atoms: C17_17  and  O3_23
REMARK                            x       y       z     vdW  Elec       q    Type
REMARK                         _______ _______ _______ _____ _____    ______ ____
ROOT
ATOM      1  C7  <0> A   1     -24.890  -5.037  51.061  0.00  0.00    -0.010 A 
ATOM      2  C8  <0> A   1     -23.914  -4.053  50.942  0.00  0.00    +0.054 A 
ATOM      3  C9  <0> A   1     -24.253  -2.721  51.089  0.00  0.00    -0.022 A 
ATOM      4  C10 <0> A   1     -25.563  -2.356  51.355  0.00  0.00    +0.051 A 
ATOM      5  C11 <0> A   1     -26.545  -3.319  51.476  0.00  0.00    -0.018 A 
ATOM      6  C12 <0> A   1     -26.221  -4.668  51.325  0.00  0.00    -0.030 A 
ATOM      7 Cl1  <0> A   1     -28.184  -2.852  51.809  0.00  0.00    -0.043 Cl
ATOM      8 Cl2  <0> A   1     -23.030  -1.498  50.941  0.00  0.00    -0.050 Cl
ENDROOT
BRANCH   1  14
ATOM      9  C1  <0> A   1     -24.628  -7.078  49.655  0.00  0.00    +0.067 A 
ATOM     10  C2  <0> A   1     -24.292  -8.409  49.514  0.00  0.00    -0.012 A 
ATOM     11  C3  <0> A   1     -23.856  -9.136  50.610  0.00  0.00    +0.108 A 
ATOM     12  C4  <0> A   1     -23.759  -8.533  51.853  0.00  0.00    -0.014 A 
ATOM     13  C5  <0> A   1     -24.093  -7.202  52.004  0.00  0.00    +0.072 A 
ATOM     14  C6  <0> A   1     -24.530  -6.466  50.904  0.00  0.00    -0.064 A 
ATOM     15  F1  <0> A   1     -23.529 -10.439  50.466  0.00  0.00    -0.137 F 
ENDBRANCH   1  14
BRANCH   6  16
ATOM     16  C13 <0> A   1     -27.268  -5.702  51.448  0.00  0.00    +0.042 C 
ATOM     17  C14 <0> A   1     -27.642  -6.127  52.648  0.00  0.00    -0.002 C 
BRANCH  17  18
ATOM     18  C15 <0> A   1     -28.711  -7.182  52.773  0.00  0.00    +0.243 C 
ATOM     19  C16 <0> A   1     -29.874  -6.846  51.836  0.00  0.00    +0.051 C 
ATOM     20  C17 <0> A   1     -30.976  -7.899  51.997  0.00  0.00    +0.186 C 
ATOM     21  C18 <0> A   1     -31.451  -7.901  53.455  0.00  0.00    +0.024 C 
ATOM     22  C19 <0> A   1     -30.238  -8.038  54.350  0.00  0.00    +0.497 C 
ATOM     23  O1  <0> A   1     -30.212  -8.852  55.243  0.00  0.00    -0.449 OA
ATOM     24  O2  <0> A   1     -29.187  -7.223  54.123  0.00  0.00    -0.368 OA
BRANCH  20  25
ATOM     25  O3  <0> A   1     -30.459  -9.188  51.657  0.00  0.00    -0.564 OA
ATOM     26  H15 <0> A   1     -30.114  -9.685  52.411  0.00  0.00    +0.388 HD
ENDBRANCH  20  25
ENDBRANCH  17  18
ENDBRANCH   6  16
TORSDOF 4
