REMARK VINA RESULT:      -8.1      3.136      4.999
REMARK  Name = CHEMBL350272
REMARK  4 active torsions:
REMARK  status: ('A' for Active; 'I' for Inactive)
REMARK    1  A    between atoms: C7_8  and  C11_14
REMARK    2  A    between atoms: C11_14  and  C12_15
REMARK    3  A    between atoms: C12_15  and  C13_16
REMARK    4  A    between atoms: C15_18  and  O3_24
REMARK                            x       y       z     vdW  Elec       q    Type
REMARK                         _______ _______ _______ _____ _____    ______ ____
ROOT
ATOM      1  C1  <0> A   1      -2.436   1.924  44.055  0.00  0.00    +0.042 A 
ATOM      2  C2  <0> A   1      -3.755   1.607  43.939  0.00  0.00    +0.057 A 
ATOM      3  C3  <0> A   1      -4.721   2.405  44.572  0.00  0.00    -0.043 A 
ATOM      4  C4  <0> A   1      -4.307   3.533  45.325  0.00  0.00    -0.021 A 
ATOM      5  C5  <0> A   1      -2.938   3.830  45.423  0.00  0.00    +0.059 A 
ATOM      6  C6  <0> A   1      -2.028   3.033  44.795  0.00  0.00    -0.022 A 
ATOM      7 Cl1  <0> A   1      -0.336   3.404  44.919  0.00  0.00    -0.058 Cl
ATOM      8  C7  <0> A   1      -5.275   4.330  45.959  0.00  0.00    -0.046 A 
ATOM      9  C8  <0> A   1      -6.594   4.011  45.843  0.00  0.00    -0.024 A 
ATOM     10  C9  <0> A   1      -7.002   2.903  45.103  0.00  0.00    +0.056 A 
ATOM     11  C10 <0> A   1      -6.092   2.107  44.474  0.00  0.00    -0.015 A 
ATOM     12 Cl2  <0> A   1      -6.623   0.731  43.557  0.00  0.00    -0.044 Cl
ATOM     13 Cl3  <0> A   1      -7.785   5.001  46.629  0.00  0.00    -0.047 Cl
ENDROOT
BRANCH   8  14
ATOM     14  C11 <0> A   1      -4.854   5.533  46.765  0.00  0.00    +0.090 C 
BRANCH  14  15
ATOM     15  C12 <0> A   1      -4.521   5.099  48.193  0.00  0.00    +0.065 C 
BRANCH  15  16
ATOM     16  C13 <0> A   1      -3.472   6.045  48.782  0.00  0.00    +0.200 C 
ATOM     17  C14 <0> A   1      -3.284   5.737  50.270  0.00  0.00    +0.043 C 
ATOM     18  C15 <0> A   1      -2.263   6.712  50.865  0.00  0.00    +0.185 C 
ATOM     19  C16 <0> A   1      -2.780   8.145  50.680  0.00  0.00    +0.022 C 
ATOM     20  C17 <0> A   1      -3.140   8.335  49.223  0.00  0.00    +0.497 C 
ATOM     21  O1  <0> A   1      -2.748   9.298  48.606  0.00  0.00    -0.451 OA
ATOM     22  O2  <0> A   1      -3.911   7.399  48.631  0.00  0.00    -0.369 OA
BRANCH  18  23
ATOM     23  O3  <0> A   1      -1.010   6.562  50.195  0.00  0.00    -0.564 OA
ATOM     24  H15 <0> A   1      -0.640   7.391  49.862  0.00  0.00    +0.387 HD
ENDBRANCH  18  23
ENDBRANCH  15  16
ENDBRANCH  14  15
ENDBRANCH   8  14
TORSDOF 4
