REMARK VINA RESULT:      -8.6      0.000      0.000
REMARK  Name = CHEMBL124769
REMARK  12 active torsions:
REMARK  status: ('A' for Active; 'I' for Inactive)
REMARK    1  A    between atoms: C4_4  and  C7_7
REMARK    2  A    between atoms: C8_8  and  C9_9
REMARK    3  A    between atoms: C9_9  and  C10_10
REMARK    4  A    between atoms: N2_17  and  C24_32
REMARK    5  A    between atoms: C16_18  and  C17_19
REMARK    6  A    between atoms: C18_20  and  C19_21
REMARK    7  A    between atoms: C19_21  and  C20_23
REMARK    8  A    between atoms: C19_21  and  O4_31
REMARK    9  A    between atoms: C20_23  and  C21_24
REMARK   10  A    between atoms: C21_24  and  C22_26
REMARK   11  A    between atoms: C21_24  and  O3_30
REMARK   12  A    between atoms: C22_26  and  C23_27
REMARK                            x       y       z     vdW  Elec       q    Type
REMARK                         _______ _______ _______ _____ _____    ______ ____
ROOT
ATOM      1  C10 <0> A   1     -25.513  -1.280  50.719  0.00  0.00    +0.091 C 
ATOM      2  C11 <0> A   1     -24.125  -1.135  50.083  0.00  0.00    +0.030 C 
ATOM      3  C12 <0> A   1     -23.087  -1.863  50.940  0.00  0.00    +0.017 C 
ATOM      4  C13 <0> A   1     -23.273  -3.379  50.801  0.00  0.00    +0.105 C 
ATOM      5  C14 <0> A   1     -24.728  -3.699  51.041  0.00  0.00    -0.212 C 
ATOM      6  C15 <0> A   1     -25.751  -2.743  51.006  0.00  0.00    +0.096 C 
ATOM      7  N1  <0> A   1     -26.885  -3.338  51.256  0.00  0.00    -0.279 NA
ATOM      8  N2  <0> A   1     -26.642  -4.703  51.460  0.00  0.00    -0.328 N 
ATOM      9  C16 <0> A   1     -25.295  -4.915  51.323  0.00  0.00    +0.127 C 
ENDROOT
BRANCH   8  10
ATOM     10  C24 <0> A   1     -27.604  -5.679  51.754  0.00  0.00    +0.148 A 
ATOM     11  C25 <0> A   1     -27.996  -5.895  53.068  0.00  0.00    +0.049 A 
ATOM     12  C26 <0> A   1     -28.944  -6.857  53.356  0.00  0.00    +0.018 A 
ATOM     13  C27 <0> A   1     -29.503  -7.607  52.336  0.00  0.00    +0.098 A 
ATOM     14  C28 <0> A   1     -29.113  -7.393  51.024  0.00  0.00    +0.008 A 
ATOM     15  C29 <0> A   1     -28.169  -6.429  50.731  0.00  0.00    +0.054 A 
ATOM     16  F1  <0> A   1     -30.431  -8.547  52.618  0.00  0.00    -0.134 F 
ENDBRANCH   8  10
BRANCH   9  17
ATOM     17  C17 <0> A   1     -24.591  -6.201  51.455  0.00  0.00    +0.027 C 
ATOM     18  C18 <0> A   1     -24.457  -6.997  50.400  0.00  0.00    -0.027 C 
BRANCH  18  19
ATOM     19  C19 <0> A   1     -23.737  -8.313  50.535  0.00  0.00    +0.255 C 
BRANCH  19  20
ATOM     20  O4  <0> A   1     -24.583  -9.254  51.198  0.00  0.00    -0.536 OA
ATOM     21  H26 <0> A   1     -24.728 -10.071  50.702  0.00  0.00    +0.368 HD
ENDBRANCH  19  20
BRANCH  19  22
ATOM     22  C20 <0> A   1     -23.377  -8.842  49.145  0.00  0.00    -0.040 C 
BRANCH  22  23
ATOM     23  C21 <0> A   1     -24.501  -8.502  48.163  0.00  0.00    +0.232 C 
BRANCH  23  24
ATOM     24  O3  <0> A   1     -23.944  -7.905  46.990  0.00  0.00    -0.528 OA
ATOM     25  H25 <0> A   1     -23.143  -7.390  47.153  0.00  0.00    +0.351 HD
ENDBRANCH  23  24
BRANCH  23  26
ATOM     26  C22 <0> A   1     -25.247  -9.781  47.779  0.00  0.00    -0.101 C 
BRANCH  26  27
ATOM     27  C23 <0> A   1     -26.668  -9.704  48.279  0.00  0.00    +0.491 C 
ATOM     28  O1  <0> A   1     -26.888  -9.633  49.475  0.00  0.00    -0.681 OA
ATOM     29  O2  <0> A   1     -27.594  -9.712  47.487  0.00  0.00    -0.712 OA
ENDBRANCH  26  27
ENDBRANCH  23  26
ENDBRANCH  22  23
ENDBRANCH  19  22
ENDBRANCH  18  19
ENDBRANCH   9  17
BRANCH   1  30
ATOM     30  C9  <0> A   1     -26.580  -0.764  49.751  0.00  0.00    +0.069 C 
BRANCH  30  32
ATOM     31  C7  <0> A   1     -27.690   1.289  50.513  0.00  0.00    -0.024 C 
ATOM     32  C8  <0> A   1     -27.650  -0.035  50.524  0.00  0.00    +0.004 C 
BRANCH  31  36
ATOM     33  C1  <0> A   1     -30.703   3.343  52.691  0.00  0.00    -0.006 A 
ATOM     34  C2  <0> A   1     -31.012   2.168  52.028  0.00  0.00    +0.001 A 
ATOM     35  C3  <0> A   1     -30.038   1.497  51.318  0.00  0.00    +0.006 A 
ATOM     36  C4  <0> A   1     -28.739   2.004  51.270  0.00  0.00    -0.048 A 
ATOM     37  C5  <0> A   1     -28.434   3.190  51.941  0.00  0.00    +0.010 A 
ATOM     38  C6  <0> A   1     -29.417   3.851  52.647  0.00  0.00    +0.004 A 
ENDBRANCH  31  36
ENDBRANCH  30  32
ENDBRANCH   1  30
TORSDOF 12
