REMARK VINA RESULT:      -7.2     16.724     19.908
REMARK  Name = CHEMBL358623
REMARK  15 active torsions:
REMARK  status: ('A' for Active; 'I' for Inactive)
REMARK    1  A    between atoms: C1_1  and  C2_2
REMARK    2  A    between atoms: C2_2  and  C3_3
REMARK    3  A    between atoms: C2_2  and  C4_4
REMARK    4  A    between atoms: C5_5  and  C18_20
REMARK    5  A    between atoms: C6_6  and  C12_13
REMARK    6  A    between atoms: C7_7  and  C8_9
REMARK    7  A    between atoms: C9_10  and  C10_11
REMARK    8  A    between atoms: C9_10  and  C11_12
REMARK    9  A    between atoms: C19_21  and  C20_22
REMARK   10  A    between atoms: C20_22  and  C21_24
REMARK   11  A    between atoms: C20_22  and  O4_32
REMARK   12  A    between atoms: C21_24  and  C22_25
REMARK   13  A    between atoms: C22_25  and  C23_27
REMARK   14  A    between atoms: C22_25  and  O3_31
REMARK   15  A    between atoms: C23_27  and  C24_28
REMARK                            x       y       z     vdW  Elec       q    Type
REMARK                         _______ _______ _______ _____ _____    ______ ____
ROOT
ATOM      1  C4  <0> A   1     -24.666  -1.276  53.073  0.00  0.00    -0.153 C 
ATOM      2  C5  <0> A   1     -25.565  -2.162  52.550  0.00  0.00    -0.071 C 
ATOM      3  C6  <0> A   1     -26.915  -1.705  52.333  0.00  0.00    -0.072 C 
ATOM      4  C7  <0> A   1     -27.200  -0.389  52.673  0.00  0.00    -0.108 C 
ATOM      5  S1  <0> A   1     -25.635   0.204  53.289  0.00  0.00    +0.076 S 
ENDROOT
BRANCH   3   6
ATOM      6  C12 <0> A   1     -27.952  -2.599  51.771  0.00  0.00    -0.030 A 
ATOM      7  C13 <0> A   1     -28.780  -3.332  52.621  0.00  0.00    +0.064 A 
ATOM      8  C14 <0> A   1     -29.745  -4.163  52.093  0.00  0.00    -0.013 A 
ATOM      9  C15 <0> A   1     -29.893  -4.272  50.719  0.00  0.00    +0.099 A 
ATOM     10  C16 <0> A   1     -29.073  -3.547  49.870  0.00  0.00    -0.016 A 
ATOM     11  C17 <0> A   1     -28.108  -2.707  50.388  0.00  0.00    +0.049 A 
ATOM     12  F1  <0> A   1     -30.839  -5.088  50.206  0.00  0.00    -0.140 F 
ENDBRANCH   3   6
BRANCH   4  13
ATOM     13  C8  <0> A   1     -28.474   0.334  52.560  0.00  0.00    +0.043 C 
ATOM     14  C9  <0> A   1     -28.737   1.054  51.472  0.00  0.00    -0.109 C 
ATOM     15  C10 <0> A   1     -27.726   1.130  50.356  0.00  0.00    +0.096 C 
ATOM     16  C11 <0> A   1     -30.044   1.795  51.356  0.00  0.00    +0.090 C 
ENDBRANCH   4  13
BRANCH   1  18
ATOM     17  C1  <0> A   1     -22.345  -0.736  52.386  0.00  0.00    +0.032 C 
ATOM     18  C2  <0> A   1     -23.210  -1.498  53.393  0.00  0.00    +0.081 C 
ATOM     19  C3  <0> A   1     -22.916  -0.989  54.806  0.00  0.00    +0.033 C 
ENDBRANCH   1  18
BRANCH   2  20
ATOM     20  C18 <0> A   1     -25.167  -3.546  52.219  0.00  0.00    +0.014 C 
ATOM     21  C19 <0> A   1     -24.711  -3.832  51.007  0.00  0.00    -0.046 C 
BRANCH  21  22
ATOM     22  C20 <0> A   1     -24.304  -5.244  50.670  0.00  0.00    +0.249 C 
BRANCH  22  23
ATOM     23  O4  <0> A   1     -23.552  -5.794  51.753  0.00  0.00    -0.538 OA
ATOM     24  H28 <0> A   1     -23.281  -5.142  52.414  0.00  0.00    +0.364 HD
ENDBRANCH  22  23
BRANCH  22  25
ATOM     25  C21 <0> A   1     -25.556  -6.093  50.433  0.00  0.00    -0.042 C 
BRANCH  25  26
ATOM     26  C22 <0> A   1     -25.193  -7.307  49.577  0.00  0.00    +0.230 C 
BRANCH  26  27
ATOM     27  O3  <0> A   1     -23.876  -7.141  49.048  0.00  0.00    -0.528 OA
ATOM     28  H27 <0> A   1     -23.427  -6.340  49.354  0.00  0.00    +0.350 HD
ENDBRANCH  26  27
BRANCH  26  29
ATOM     29  C23 <0> A   1     -25.241  -8.571  50.437  0.00  0.00    -0.102 C 
BRANCH  29  30
ATOM     30  C24 <0> A   1     -23.842  -9.091  50.646  0.00  0.00    +0.491 C 
ATOM     31  O1  <0> A   1     -23.149  -8.634  51.539  0.00  0.00    -0.681 OA
ATOM     32  O2  <0> A   1     -23.403  -9.967  49.921  0.00  0.00    -0.713 OA
ENDBRANCH  29  30
ENDBRANCH  26  29
ENDBRANCH  25  26
ENDBRANCH  22  25
ENDBRANCH  21  22
ENDBRANCH   2  20
TORSDOF 11
