REMARK VINA RESULT:      -7.9     15.508     21.069
REMARK  Name = CHEMBL250180
REMARK  17 active torsions:
REMARK  status: ('A' for Active; 'I' for Inactive)
REMARK    1  A    between atoms: C1_1  and  C2_2
REMARK    2  A    between atoms: C2_2  and  C3_3
REMARK    3  A    between atoms: C2_2  and  C4_4
REMARK    4  A    between atoms: C5_5  and  C19_29
REMARK    5  A    between atoms: N2_7  and  C13_22
REMARK    6  A    between atoms: C6_8  and  O1_9
REMARK    7  A    between atoms: O1_9  and  C7_10
REMARK    8  A    between atoms: C7_10  and  C8_11
REMARK    9  A    between atoms: C8_11  and  C9_13
REMARK   10  A    between atoms: C8_11  and  O5_21
REMARK   11  A    between atoms: C9_13  and  C10_14
REMARK   12  A    between atoms: C10_14  and  C11_16
REMARK   13  A    between atoms: C10_14  and  O4_20
REMARK   14  A    between atoms: C11_16  and  C12_17
REMARK   15  A    between atoms: N3_31  and  C20_32
REMARK   16  A    between atoms: C20_32  and  C21_33
REMARK   17  A    between atoms: C21_33  and  C22_34
REMARK                            x       y       z     vdW  Elec       q    Type
REMARK                         _______ _______ _______ _____ _____    ______ ____
ROOT
ATOM      1  C4  <0> A   1     -26.483  -5.370  51.230  0.00  0.00    -0.161 C 
ATOM      2  C5  <0> A   1     -25.272  -4.829  50.748  0.00  0.00    +0.044 C 
ATOM      3  N1  <0> A   1     -24.553  -5.815  50.247  0.00  0.00    -0.238 NA
ATOM      4  N2  <0> A   1     -25.279  -7.004  50.392  0.00  0.00    -0.318 N 
ATOM      5  C6  <0> A   1     -26.459  -6.706  51.003  0.00  0.00    +0.260 C 
ENDROOT
BRANCH   4   6
ATOM      6  C13 <0> A   1     -24.862  -8.279  49.986  0.00  0.00    +0.126 A 
ATOM      7  C14 <0> A   1     -24.269  -9.140  50.899  0.00  0.00    +0.064 A 
ATOM      8  C15 <0> A   1     -23.858 -10.395  50.497  0.00  0.00    +0.005 A 
ATOM      9  C16 <0> A   1     -24.035 -10.795  49.182  0.00  0.00    +0.106 A 
ATOM     10  C17 <0> A   1     -24.626  -9.936  48.269  0.00  0.00    +0.020 A 
ATOM     11  C18 <0> A   1     -25.044  -8.683  48.670  0.00  0.00    +0.073 A 
ATOM     12  F1  <0> A   1     -23.632 -12.024  48.790  0.00  0.00    -0.133 F 
ENDBRANCH   4   6
BRANCH   2  13
ATOM     13  C19 <0> A   1     -24.877  -3.406  50.797  0.00  0.00    +0.605 C 
ATOM     14  O6  <0> A   1     -23.971  -3.052  51.527  0.00  0.00    -0.514 OA
ATOM     15  N3  <0> A   1     -25.521  -2.502  50.035  0.00  0.00    -0.718 N 
ATOM     16  H22 <0> A   1     -26.244  -2.784  49.453  0.00  0.00    +0.408 HD
BRANCH  15  17
ATOM     17  C20 <0> A   1     -25.130  -1.091  50.083  0.00  0.00    +0.273 C 
BRANCH  17  18
ATOM     18  C21 <0> A   1     -26.382  -0.217  50.182  0.00  0.00    +0.070 C 
BRANCH  18  19
ATOM     19  C22 <0> A   1     -27.142  -0.566  51.435  0.00  0.00    -0.083 A 
ATOM     20  C23 <0> A   1     -28.507  -0.778  51.379  0.00  0.00    +0.009 A 
ATOM     21  C24 <0> A   1     -29.204  -1.097  52.529  0.00  0.00    +0.004 A 
ATOM     22  C25 <0> A   1     -28.536  -1.207  53.735  0.00  0.00    -0.000 A 
ATOM     23  C26 <0> A   1     -27.172  -0.996  53.791  0.00  0.00    +0.004 A 
ATOM     24  C27 <0> A   1     -26.474  -0.680  52.639  0.00  0.00    +0.009 A 
ENDBRANCH  18  19
ENDBRANCH  17  18
ENDBRANCH  15  17
ENDBRANCH   2  13
BRANCH   1  26
ATOM     25  C1  <0> A   1     -28.711  -4.346  50.862  0.00  0.00    +0.029 C 
ATOM     26  C2  <0> A   1     -27.601  -4.600  51.884  0.00  0.00    +0.077 C 
ATOM     27  C3  <0> A   1     -28.161  -5.411  53.054  0.00  0.00    +0.021 C 
ENDBRANCH   1  26
BRANCH   5  28
ATOM     28  O1  <0> A   1     -27.438  -7.590  51.325  0.00  0.00    -0.282 OA
BRANCH  28  29
ATOM     29  C7  <0> A   1     -28.351  -7.953  50.288  0.00  0.00    +0.155 C 
BRANCH  29  30
ATOM     30  C8  <0> A   1     -28.849  -9.381  50.524  0.00  0.00    +0.232 C 
BRANCH  30  31
ATOM     31  O5  <0> A   1     -27.730 -10.249  50.718  0.00  0.00    -0.529 OA
ATOM     32  H17 <0> A   1     -26.873  -9.807  50.650  0.00  0.00    +0.363 HD
ENDBRANCH  30  31
BRANCH  30  33
ATOM     33  C9  <0> A   1     -29.740  -9.411  51.767  0.00  0.00    -0.040 C 
BRANCH  33  34
ATOM     34  C10 <0> A   1     -30.686 -10.610  51.688  0.00  0.00    +0.237 C 
BRANCH  34  35
ATOM     35  O4  <0> A   1     -30.475 -11.302  50.456  0.00  0.00    -0.526 OA
ATOM     36  H16 <0> A   1     -30.314 -10.721  49.700  0.00  0.00    +0.350 HD
ENDBRANCH  34  35
BRANCH  34  37
ATOM     37  C11 <0> A   1     -30.410 -11.557  52.857  0.00  0.00    -0.101 C 
BRANCH  37  38
ATOM     38  C12 <0> A   1     -29.691 -12.781  52.353  0.00  0.00    +0.491 C 
ATOM     39  O2  <0> A   1     -30.312 -13.811  52.148  0.00  0.00    -0.680 OA
ATOM     40  O3  <0> A   1     -28.490 -12.743  52.150  0.00  0.00    -0.712 OA
ENDBRANCH  37  38
ENDBRANCH  34  37
ENDBRANCH  33  34
ENDBRANCH  30  33
ENDBRANCH  29  30
ENDBRANCH  28  29
ENDBRANCH   5  28
TORSDOF 15
