REMARK  Name = CHEMBL466547
REMARK  14 active torsions:
REMARK  status: ('A' for Active; 'I' for Inactive)
REMARK    1  A    between atoms: C1_1  and  C2_2
REMARK    2  A    between atoms: C2_2  and  C3_3
REMARK    3  A    between atoms: C2_2  and  C4_4
REMARK    4  A    between atoms: C5_5  and  C17_25
REMARK    5  A    between atoms: C6_6  and  C11_18
REMARK    6  A    between atoms: N3_10  and  C8_11
REMARK    7  A    between atoms: N7_16  and  C10_17
REMARK    8  A    between atoms: C18_26  and  C19_27
REMARK    9  A    between atoms: C19_27  and  C20_29
REMARK   10  A    between atoms: C19_27  and  O4_37
REMARK   11  A    between atoms: C20_29  and  C21_30
REMARK   12  A    between atoms: C21_30  and  C22_32
REMARK   13  A    between atoms: C21_30  and  O3_36
REMARK   14  A    between atoms: C22_32  and  C23_33
REMARK                            x       y       z     vdW  Elec       q    Type
REMARK                         _______ _______ _______ _____ _____    ______ ____
ROOT
ATOM      1  C4  <0> A   1      -1.402  -0.509   0.022  0.00  0.00    +0.238 A 
ATOM      2  C5  <0> A   1      -1.856  -1.323  -1.019  0.00  0.00    -0.176 A 
ATOM      3  C6  <0> A   1      -3.185  -1.793  -0.965  0.00  0.00    +0.270 A 
ATOM      4  N1  <0> A   1      -3.946  -1.444   0.069  0.00  0.00    -0.554 NA
ATOM      5  C7  <0> A   1      -3.469  -0.671   1.030  0.00  0.00    +0.568 A 
ATOM      6  N2  <0> A   1      -2.224  -0.215   1.014  0.00  0.00    -0.541 NA
ATOM      7  N3  <0> A   1      -4.295  -0.330   2.090  0.00  0.00    -0.516 N 
ATOM      8  C8  <0> A   1      -3.789   0.525   3.166  0.00  0.00    +0.351 C 
ATOM      9  C9  <0> A   1      -5.598  -0.799   2.131  0.00  0.00    +0.488 C 
ATOM     10  N4  <0> A   1      -6.023  -1.870   2.763  0.00  0.00    -0.313 NA
ATOM     11  N5  <0> A   1      -7.288  -2.019   2.597  0.00  0.00    -0.032 NA
ATOM     12  N6  <0> A   1      -7.757  -1.071   1.859  0.00  0.00    -0.070 NA
ATOM     13  N7  <0> A   1      -6.674  -0.236   1.532  0.00  0.00    -0.371 N 
ATOM     14  C10 <0> A   1      -6.703   0.980   0.716  0.00  0.00    +0.383 C 
ENDROOT
BRANCH   3  15
ATOM     15  C11 <0> A   1      -3.722  -2.659  -2.039  0.00  0.00    -0.077 A 
ATOM     16  C12 <0> A   1      -3.315  -2.470  -3.360  0.00  0.00    +0.099 A 
ATOM     17  C13 <0> A   1      -3.819  -3.279  -4.357  0.00  0.00    -0.014 A 
ATOM     18  C14 <0> A   1      -4.728  -4.278  -4.049  0.00  0.00    +0.123 A 
ATOM     19  C15 <0> A   1      -5.136  -4.470  -2.738  0.00  0.00    -0.023 A 
ATOM     20  C16 <0> A   1      -4.634  -3.670  -1.733  0.00  0.00    +0.091 A 
ATOM     21  F1  <0> A   1      -5.219  -5.067  -5.029  0.00  0.00    -0.134 F 
ENDBRANCH   3  15
BRANCH   1  23
ATOM     22  C1  <0> A   1      -0.021   1.551   0.022  0.00  0.00    +0.045 C 
ATOM     23  C2  <0> A   1       0.009   0.021   0.017  0.00  0.00    +0.052 C 
ATOM     24  C3  <0> A   1       0.747  -0.478   1.260  0.00  0.00    +0.045 C 
ENDBRANCH   1  23
BRANCH   2  25
ATOM     25  C17 <0> A   1      -0.971  -1.681  -2.144  0.00  0.00    +0.010 C 
ATOM     26  C18 <0> A   1      -0.847  -2.949  -2.515  0.00  0.00    -0.033 C 
BRANCH  26  27
ATOM     27  C19 <0> A   1       0.057  -3.315  -3.663  0.00  0.00    +0.252 C 
BRANCH  27  28
ATOM     28  O4  <0> A   1       0.754  -2.150  -4.110  0.00  0.00    -0.537 OA
ATOM     29  H27 <0> A   1       1.306  -1.738  -3.432  0.00  0.00    +0.366 HD
ENDBRANCH  27  28
BRANCH  27  30
ATOM     30  C20 <0> A   1       1.067  -4.367  -3.203  0.00  0.00    -0.041 C 
BRANCH  30  31
ATOM     31  C21 <0> A   1       1.903  -4.829  -4.398  0.00  0.00    +0.232 C 
BRANCH  31  32
ATOM     32  O3  <0> A   1       2.689  -3.737  -4.880  0.00  0.00    -0.528 OA
ATOM     33  H26 <0> A   1       3.302  -3.375  -4.226  0.00  0.00    +0.350 HD
ENDBRANCH  31  32
BRANCH  31  34
ATOM     34  C22 <0> A   1       2.826  -5.970  -3.964  0.00  0.00    -0.102 C 
BRANCH  34  35
ATOM     35  C23 <0> A   1       3.561  -6.506  -5.166  0.00  0.00    +0.491 C 
ATOM     36  O1  <0> A   1       3.363  -6.022  -6.267  0.00  0.00    -0.681 OA
ATOM     37  O2  <0> A   1       4.351  -7.425  -5.037  0.00  0.00    -0.713 OA
ENDBRANCH  34  35
ENDBRANCH  31  34
ENDBRANCH  30  31
ENDBRANCH  27  30
ENDBRANCH  26  27
ENDBRANCH   2  25
TORSDOF 10
