REMARK VINA RESULT:      -7.5     16.131     19.992
REMARK  Name = CHEMBL437783
REMARK  16 active torsions:
REMARK  status: ('A' for Active; 'I' for Inactive)
REMARK    1  A    between atoms: C1_1  and  C2_2
REMARK    2  A    between atoms: C2_2  and  C3_3
REMARK    3  A    between atoms: C2_2  and  C4_4
REMARK    4  A    between atoms: C5_5  and  S1_35
REMARK    5  A    between atoms: C6_6  and  C21_29
REMARK    6  A    between atoms: C7_7  and  C15_22
REMARK    7  A    between atoms: N1_8  and  C8_9
REMARK    8  A    between atoms: C8_9  and  C9_10
REMARK    9  A    between atoms: C9_10  and  C10_11
REMARK   10  A    between atoms: C10_11  and  C11_13
REMARK   11  A    between atoms: C10_11  and  O4_21
REMARK   12  A    between atoms: C11_13  and  C12_14
REMARK   13  A    between atoms: C12_14  and  C13_16
REMARK   14  A    between atoms: C12_14  and  O3_20
REMARK   15  A    between atoms: C13_16  and  C14_17
REMARK   16  A    between atoms: S1_35  and  N2_38
REMARK                            x       y       z     vdW  Elec       q    Type
REMARK                         _______ _______ _______ _____ _____    ______ ____
ROOT
ATOM      1  C4  <0> A   1     -27.096  -3.385  50.947  0.00  0.00    +0.173 C 
ATOM      2  C5  <0> A   1     -28.156  -4.214  50.924  0.00  0.00    -0.733 C 
ATOM      3  C6  <0> A   1     -27.668  -5.532  50.763  0.00  0.00    -0.021 C 
ATOM      4  C7  <0> A   1     -26.288  -5.442  50.694  0.00  0.00    +0.059 C 
ATOM      5  N1  <0> A   1     -25.954  -4.118  50.802  0.00  0.00    -0.412 N 
ENDROOT
BRANCH   4   6
ATOM      6  C15 <0> A   1     -25.347  -6.567  50.527  0.00  0.00    -0.027 A 
ATOM      7  C16 <0> A   1     -24.767  -7.169  51.647  0.00  0.00    +0.045 A 
ATOM      8  C17 <0> A   1     -23.888  -8.220  51.484  0.00  0.00    -0.008 A 
ATOM      9  C18 <0> A   1     -23.579  -8.678  50.213  0.00  0.00    +0.105 A 
ATOM     10  C19 <0> A   1     -24.151  -8.084  49.098  0.00  0.00    -0.008 A 
ATOM     11  C20 <0> A   1     -25.036  -7.037  49.249  0.00  0.00    +0.075 A 
ATOM     12  F1  <0> A   1     -22.718  -9.707  50.061  0.00  0.00    -0.137 F 
ENDBRANCH   4   6
BRANCH   3  13
ATOM     13  C21 <0> A   1     -28.477  -6.771  50.686  0.00  0.00    -0.035 A 
ATOM     14  C22 <0> A   1     -29.098  -7.128  49.489  0.00  0.00    +0.061 A 
ATOM     15  C23 <0> A   1     -29.849  -8.283  49.423  0.00  0.00    -0.000 A 
ATOM     16  C24 <0> A   1     -29.988  -9.087  50.541  0.00  0.00    +0.003 A 
ATOM     17  C25 <0> A   1     -29.376  -8.737  51.730  0.00  0.00    -0.009 A 
ATOM     18  C26 <0> A   1     -28.617  -7.588  51.807  0.00  0.00    +0.018 A 
ENDBRANCH   3  13
BRANCH   1  20
ATOM     19  C1  <0> A   1     -26.672  -1.496  52.498  0.00  0.00    +0.040 C 
ATOM     20  C2  <0> A   1     -27.159  -1.886  51.101  0.00  0.00    +0.059 C 
ATOM     21  C3  <0> A   1     -26.269  -1.227  50.047  0.00  0.00    +0.038 C 
ENDBRANCH   1  20
BRANCH   2  22
ATOM     22  S1  <0> A   1     -29.848  -3.743  51.069  0.00  0.00    +2.710 S 
ATOM     23  O5  <0> A   1     -29.868  -2.326  51.181  0.00  0.00    -0.950 OA
ATOM     24  O6  <0> A   1     -30.551  -4.436  50.047  0.00  0.00    -0.965 OA
BRANCH  22  25
ATOM     25  N2  <0> A   1     -30.401  -4.338  52.511  0.00  0.00    -0.996 NA
ATOM     26  C27 <0> A   1     -31.740  -4.938  52.610  0.00  0.00    +0.281 C 
ATOM     27  C28 <0> A   1     -31.610  -6.336  53.220  0.00  0.00    +0.006 C 
ATOM     28  C29 <0> A   1     -30.864  -6.241  54.554  0.00  0.00    +0.010 C 
ATOM     29  C30 <0> A   1     -29.458  -5.686  54.314  0.00  0.00    +0.006 C 
ATOM     30  C31 <0> A   1     -29.562  -4.284  53.715  0.00  0.00    +0.285 C 
ENDBRANCH  22  25
ENDBRANCH   2  22
BRANCH   5  31
ATOM     31  C8  <0> A   1     -24.594  -3.576  50.771  0.00  0.00    +0.294 C 
BRANCH  31  32
ATOM     32  C9  <0> A   1     -23.995  -3.620  52.178  0.00  0.00    -0.015 C 
BRANCH  32  33
ATOM     33  C10 <0> A   1     -22.917  -2.541  52.307  0.00  0.00    +0.218 C 
BRANCH  33  34
ATOM     34  O4  <0> A   1     -22.938  -2.004  53.632  0.00  0.00    -0.540 OA
ATOM     35  H19 <0> A   1     -22.096  -2.080  54.100  0.00  0.00    +0.366 HD
ENDBRANCH  33  34
BRANCH  33  36
ATOM     36  C11 <0> A   1     -21.544  -3.157  52.029  0.00  0.00    -0.047 C 
BRANCH  36  37
ATOM     37  C12 <0> A   1     -20.827  -3.423  53.354  0.00  0.00    +0.232 C 
BRANCH  37  38
ATOM     38  O3  <0> A   1     -21.167  -4.728  53.826  0.00  0.00    -0.528 OA
ATOM     39  H18 <0> A   1     -20.427  -5.209  54.221  0.00  0.00    +0.350 HD
ENDBRANCH  37  38
BRANCH  37  40
ATOM     40  C13 <0> A   1     -19.314  -3.335  53.142  0.00  0.00    -0.102 C 
BRANCH  40  41
ATOM     41  C14 <0> A   1     -18.636  -4.451  53.894  0.00  0.00    +0.491 C 
ATOM     42  O1  <0> A   1     -18.327  -5.478  53.314  0.00  0.00    -0.681 OA
ATOM     43  O2  <0> A   1     -18.397  -4.327  55.083  0.00  0.00    -0.712 OA
ENDBRANCH  40  41
ENDBRANCH  37  40
ENDBRANCH  36  37
ENDBRANCH  33  36
ENDBRANCH  32  33
ENDBRANCH  31  32
ENDBRANCH   5  31
TORSDOF 14
