MODEL 1
REMARK VINA RESULT:      -7.7      0.000      0.000
REMARK  Name = CHEMBL154868
REMARK  13 active torsions:
REMARK  status: ('A' for Active; 'I' for Inactive)
REMARK    1  A    between atoms: C1_1  and  C2_2
REMARK    2  A    between atoms: C2_2  and  C3_3
REMARK    3  A    between atoms: C2_2  and  C4_4
REMARK    4  A    between atoms: C5_5  and  C19_21
REMARK    5  A    between atoms: C6_6  and  C13_14
REMARK    6  A    between atoms: C7_7  and  C8_9
REMARK    7  A    between atoms: C20_22  and  C21_23
REMARK    8  A    between atoms: C21_23  and  C22_25
REMARK    9  A    between atoms: C21_23  and  O4_33
REMARK   10  A    between atoms: C22_25  and  C23_26
REMARK   11  A    between atoms: C23_26  and  C24_28
REMARK   12  A    between atoms: C23_26  and  O3_32
REMARK   13  A    between atoms: C24_28  and  C25_29
REMARK                            x       y       z     vdW  Elec       q    Type
REMARK                         _______ _______ _______ _____ _____    ______ ____
ROOT
ATOM      1  C4  <0> A   1     -14.919   6.472  45.202  0.00  0.00    -0.126 C 
ATOM      2  C5  <0> A   1     -14.278   7.669  45.054  0.00  0.00    -0.075 C 
ATOM      3  C6  <0> A   1     -14.228   8.549  46.200  0.00  0.00    -0.076 C 
ATOM      4  C7  <0> A   1     -14.822   8.126  47.350  0.00  0.00    -0.120 C 
ATOM      5  S1  <0> A   1     -15.468   6.528  46.897  0.00  0.00    +0.041 S 
ENDROOT
BRANCH   3   6
ATOM      6  C13 <0> A   1     -13.551   9.866  46.125  0.00  0.00    -0.031 A 
ATOM      7  C14 <0> A   1     -12.210   9.984  46.485  0.00  0.00    +0.053 A 
ATOM      8  C15 <0> A   1     -11.585  11.212  46.414  0.00  0.00    -0.015 A 
ATOM      9  C16 <0> A   1     -12.288  12.326  45.986  0.00  0.00    +0.099 A 
ATOM     10  C17 <0> A   1     -13.622  12.214  45.628  0.00  0.00    -0.011 A 
ATOM     11  C18 <0> A   1     -14.253  10.988  45.689  0.00  0.00    +0.058 A 
ATOM     12  F1  <0> A   1     -11.672  13.527  45.918  0.00  0.00    -0.140 F 
ENDBRANCH   3   6
BRANCH   4  13
ATOM     13  C8  <0> A   1     -14.916   8.837  48.676  0.00  0.00    +0.084 C 
ATOM     14  C9  <0> A   1     -15.038   7.808  49.819  0.00  0.00    +0.022 C 
ATOM     15  C10 <0> A   1     -16.015   8.469  50.823  0.00  0.00    +0.012 C 
ATOM     16  C11 <0> A   1     -17.041   9.164  49.893  0.00  0.00    +0.008 C 
ATOM     17  C12 <0> A   1     -16.189   9.699  48.723  0.00  0.00    +0.019 C 
ENDBRANCH   4  13
BRANCH   1  19
ATOM     18  C1  <0> A   1     -14.370   4.122  44.631  0.00  0.00    +0.035 C 
ATOM     19  C2  <0> A   1     -15.118   5.380  44.183  0.00  0.00    +0.081 C 
ATOM     20  C3  <0> A   1     -16.610   5.066  44.056  0.00  0.00    +0.033 C 
ENDBRANCH   1  19
BRANCH   2  21
ATOM     21  C19 <0> A   1     -13.658   8.051  43.769  0.00  0.00    +0.023 C 
ATOM     22  C20 <0> A   1     -12.412   7.685  43.500  0.00  0.00    -0.055 C 
BRANCH  22  23
ATOM     23  C21 <0> A   1     -11.778   8.073  42.190  0.00  0.00    +0.250 C 
BRANCH  23  24
ATOM     24  O4  <0> A   1     -10.772   7.119  41.846  0.00  0.00    -0.538 OA
ATOM     25  H30 <0> A   1     -11.086   6.204  41.827  0.00  0.00    +0.365 HD
ENDBRANCH  23  24
BRANCH  23  26
ATOM     26  C22 <0> A   1     -12.848   8.102  41.095  0.00  0.00    -0.043 C 
BRANCH  26  27
ATOM     27  C23 <0> A   1     -12.633   9.328  40.205  0.00  0.00    +0.231 C 
BRANCH  27  28
ATOM     28  O3  <0> A   1     -13.143   9.062  38.897  0.00  0.00    -0.528 OA
ATOM     29  H29 <0> A   1     -13.885   8.442  38.882  0.00  0.00    +0.350 HD
ENDBRANCH  27  28
BRANCH  27  30
ATOM     30  C24 <0> A   1     -13.370  10.529  40.804  0.00  0.00    -0.102 C 
BRANCH  30  31
ATOM     31  C25 <0> A   1     -14.098  11.268  39.711  0.00  0.00    +0.491 C 
ATOM     32  O1  <0> A   1     -13.475  11.963  38.927  0.00  0.00    -0.681 OA
ATOM     33  O2  <0> A   1     -15.308  11.170  39.612  0.00  0.00    -0.713 OA
ENDBRANCH  30  31
ENDBRANCH  27  30
ENDBRANCH  26  27
ENDBRANCH  23  26
ENDBRANCH  22  23
ENDBRANCH   2  21
TORSDOF 11
ENDMDL
MODEL 2
REMARK VINA RESULT:      -7.4      2.335      4.508
REMARK  Name = CHEMBL154868
REMARK  13 active torsions:
REMARK  status: ('A' for Active; 'I' for Inactive)
REMARK    1  A    between atoms: C1_1  and  C2_2
REMARK    2  A    between atoms: C2_2  and  C3_3
REMARK    3  A    between atoms: C2_2  and  C4_4
REMARK    4  A    between atoms: C5_5  and  C19_21
REMARK    5  A    between atoms: C6_6  and  C13_14
REMARK    6  A    between atoms: C7_7  and  C8_9
REMARK    7  A    between atoms: C20_22  and  C21_23
REMARK    8  A    between atoms: C21_23  and  C22_25
REMARK    9  A    between atoms: C21_23  and  O4_33
REMARK   10  A    between atoms: C22_25  and  C23_26
REMARK   11  A    between atoms: C23_26  and  C24_28
REMARK   12  A    between atoms: C23_26  and  O3_32
REMARK   13  A    between atoms: C24_28  and  C25_29
REMARK                            x       y       z     vdW  Elec       q    Type
REMARK                         _______ _______ _______ _____ _____    ______ ____
ROOT
ATOM      1  C4  <0> A   1     -13.228  10.080  45.956  0.00  0.00    -0.126 C 
ATOM      2  C5  <0> A   1     -13.681   8.913  45.410  0.00  0.00    -0.075 C 
ATOM      3  C6  <0> A   1     -14.434   8.022  46.262  0.00  0.00    -0.076 C 
ATOM      4  C7  <0> A   1     -14.642   8.404  47.553  0.00  0.00    -0.120 C 
ATOM      5  S1  <0> A   1     -13.812   9.980  47.637  0.00  0.00    +0.041 S 
ENDROOT
BRANCH   3   6
ATOM      6  C13 <0> A   1     -14.964   6.736  45.749  0.00  0.00    -0.031 A 
ATOM      7  C14 <0> A   1     -14.204   5.573  45.860  0.00  0.00    +0.053 A 
ATOM      8  C15 <0> A   1     -14.701   4.379  45.380  0.00  0.00    -0.015 A 
ATOM      9  C16 <0> A   1     -15.953   4.334  44.790  0.00  0.00    +0.099 A 
ATOM     10  C17 <0> A   1     -16.712   5.488  44.677  0.00  0.00    -0.011 A 
ATOM     11  C18 <0> A   1     -16.226   6.685  45.160  0.00  0.00    +0.058 A 
ATOM     12  F1  <0> A   1     -16.436   3.162  44.322  0.00  0.00    -0.140 F 
ENDBRANCH   3   6
BRANCH   4  13
ATOM     13  C8  <0> A   1     -15.384   7.673  48.642  0.00  0.00    +0.084 C 
ATOM     14  C9  <0> A   1     -16.873   8.078  48.631  0.00  0.00    +0.022 C 
ATOM     15  C10 <0> A   1     -17.267   8.120  50.128  0.00  0.00    +0.012 C 
ATOM     16  C11 <0> A   1     -16.001   8.710  50.797  0.00  0.00    +0.008 C 
ATOM     17  C12 <0> A   1     -14.830   8.075  50.019  0.00  0.00    +0.019 C 
ENDBRANCH   4  13
BRANCH   1  19
ATOM     18  C1  <0> A   1     -13.361  12.077  44.492  0.00  0.00    +0.035 C 
ATOM     19  C2  <0> A   1     -12.427  11.176  45.302  0.00  0.00    +0.081 C 
ATOM     20  C3  <0> A   1     -11.725  12.007  46.377  0.00  0.00    +0.033 C 
ENDBRANCH   1  19
BRANCH   2  21
ATOM     21  C19 <0> A   1     -13.413   8.575  43.998  0.00  0.00    +0.023 C 
ATOM     22  C20 <0> A   1     -12.272   7.987  43.662  0.00  0.00    -0.055 C 
BRANCH  22  23
ATOM     23  C21 <0> A   1     -11.998   7.640  42.221  0.00  0.00    +0.250 C 
BRANCH  23  24
ATOM     24  O4  <0> A   1     -11.853   6.225  42.092  0.00  0.00    -0.538 OA
ATOM     25  H30 <0> A   1     -11.332   5.951  41.323  0.00  0.00    +0.365 HD
ENDBRANCH  23  24
BRANCH  23  26
ATOM     26  C22 <0> A   1     -13.165   8.114  41.352  0.00  0.00    -0.043 C 
BRANCH  26  27
ATOM     27  C23 <0> A   1     -12.690   9.238  40.429  0.00  0.00    +0.231 C 
BRANCH  27  28
ATOM     28  O3  <0> A   1     -13.123   8.974  39.093  0.00  0.00    -0.528 OA
ATOM     29  H29 <0> A   1     -13.921   8.430  39.039  0.00  0.00    +0.350 HD
ENDBRANCH  27  28
BRANCH  27  30
ATOM     30  C24 <0> A   1     -13.278  10.570  40.901  0.00  0.00    -0.102 C 
BRANCH  30  31
ATOM     31  C25 <0> A   1     -13.984  11.243  39.752  0.00  0.00    +0.491 C 
ATOM     32  O1  <0> A   1     -15.191  11.125  39.626  0.00  0.00    -0.681 OA
ATOM     33  O2  <0> A   1     -13.349  11.904  38.949  0.00  0.00    -0.713 OA
ENDBRANCH  30  31
ENDBRANCH  27  30
ENDBRANCH  26  27
ENDBRANCH  23  26
ENDBRANCH  22  23
ENDBRANCH   2  21
TORSDOF 11
ENDMDL
MODEL 3
REMARK VINA RESULT:      -7.3      4.017      7.008
REMARK  Name = CHEMBL154868
REMARK  13 active torsions:
REMARK  status: ('A' for Active; 'I' for Inactive)
REMARK    1  A    between atoms: C1_1  and  C2_2
REMARK    2  A    between atoms: C2_2  and  C3_3
REMARK    3  A    between atoms: C2_2  and  C4_4
REMARK    4  A    between atoms: C5_5  and  C19_21
REMARK    5  A    between atoms: C6_6  and  C13_14
REMARK    6  A    between atoms: C7_7  and  C8_9
REMARK    7  A    between atoms: C20_22  and  C21_23
REMARK    8  A    between atoms: C21_23  and  C22_25
REMARK    9  A    between atoms: C21_23  and  O4_33
REMARK   10  A    between atoms: C22_25  and  C23_26
REMARK   11  A    between atoms: C23_26  and  C24_28
REMARK   12  A    between atoms: C23_26  and  O3_32
REMARK   13  A    between atoms: C24_28  and  C25_29
REMARK                            x       y       z     vdW  Elec       q    Type
REMARK                         _______ _______ _______ _____ _____    ______ ____
ROOT
ATOM      1  C4  <0> A   1     -14.547   6.568  44.534  0.00  0.00    -0.126 C 
ATOM      2  C5  <0> A   1     -14.198   7.682  45.243  0.00  0.00    -0.075 C 
ATOM      3  C6  <0> A   1     -13.582   8.771  44.519  0.00  0.00    -0.076 C 
ATOM      4  C7  <0> A   1     -13.392   8.614  43.179  0.00  0.00    -0.120 C 
ATOM      5  S1  <0> A   1     -14.038   6.980  42.876  0.00  0.00    +0.041 S 
ENDROOT
BRANCH   3   6
ATOM      6  C13 <0> A   1     -13.174  10.017  45.211  0.00  0.00    -0.031 A 
ATOM      7  C14 <0> A   1     -14.097  11.043  45.406  0.00  0.00    +0.053 A 
ATOM      8  C15 <0> A   1     -13.711  12.200  46.050  0.00  0.00    -0.015 A 
ATOM      9  C16 <0> A   1     -12.410  12.343  46.503  0.00  0.00    +0.099 A 
ATOM     10  C17 <0> A   1     -11.489  11.326  46.310  0.00  0.00    -0.011 A 
ATOM     11  C18 <0> A   1     -11.867  10.162  45.673  0.00  0.00    +0.058 A 
ATOM     12  F1  <0> A   1     -12.037  13.479  47.133  0.00  0.00    -0.140 F 
ENDBRANCH   3   6
BRANCH   4  13
ATOM     13  C8  <0> A   1     -12.779   9.580  42.197  0.00  0.00    +0.084 C 
ATOM     14  C9  <0> A   1     -13.808  10.663  41.811  0.00  0.00    +0.022 C 
ATOM     15  C10 <0> A   1     -13.538  10.924  40.309  0.00  0.00    +0.012 C 
ATOM     16  C11 <0> A   1     -13.219   9.508  39.768  0.00  0.00    +0.008 C 
ATOM     17  C12 <0> A   1     -12.406   8.846  40.899  0.00  0.00    +0.019 C 
ENDBRANCH   4  13
BRANCH   1  19
ATOM     18  C1  <0> A   1     -16.533   5.097  44.317  0.00  0.00    +0.035 C 
ATOM     19  C2  <0> A   1     -15.195   5.301  45.032  0.00  0.00    +0.081 C 
ATOM     20  C3  <0> A   1     -14.278   4.111  44.744  0.00  0.00    +0.033 C 
ENDBRANCH   1  19
BRANCH   2  21
ATOM     21  C19 <0> A   1     -14.441   7.771  46.696  0.00  0.00    +0.023 C 
ATOM     22  C20 <0> A   1     -15.610   8.208  47.147  0.00  0.00    -0.055 C 
BRANCH  22  23
ATOM     23  C21 <0> A   1     -15.859   8.299  48.630  0.00  0.00    +0.250 C 
BRANCH  23  24
ATOM     24  O4  <0> A   1     -16.699   9.423  48.904  0.00  0.00    -0.538 OA
ATOM     25  H30 <0> A   1     -17.172   9.365  49.745  0.00  0.00    +0.365 HD
ENDBRANCH  23  24
BRANCH  23  26
ATOM     26  C22 <0> A   1     -16.548   7.019  49.111  0.00  0.00    -0.043 C 
BRANCH  26  27
ATOM     27  C23 <0> A   1     -17.742   6.713  48.205  0.00  0.00    +0.231 C 
BRANCH  27  28
ATOM     28  O3  <0> A   1     -17.562   5.433  47.595  0.00  0.00    -0.528 OA
ATOM     29  H29 <0> A   1     -17.788   5.410  46.655  0.00  0.00    +0.350 HD
ENDBRANCH  27  28
BRANCH  27  30
ATOM     30  C24 <0> A   1     -19.026   6.702  49.039  0.00  0.00    -0.102 C 
BRANCH  30  31
ATOM     31  C25 <0> A   1     -20.168   6.194  48.197  0.00  0.00    +0.491 C 
ATOM     32  O1  <0> A   1     -20.298   6.583  47.049  0.00  0.00    -0.681 OA
ATOM     33  O2  <0> A   1     -20.961   5.395  48.664  0.00  0.00    -0.713 OA
ENDBRANCH  30  31
ENDBRANCH  27  30
ENDBRANCH  26  27
ENDBRANCH  23  26
ENDBRANCH  22  23
ENDBRANCH   2  21
TORSDOF 11
ENDMDL
MODEL 4
REMARK VINA RESULT:      -7.2     17.013     19.990
REMARK  Name = CHEMBL154868
REMARK  13 active torsions:
REMARK  status: ('A' for Active; 'I' for Inactive)
REMARK    1  A    between atoms: C1_1  and  C2_2
REMARK    2  A    between atoms: C2_2  and  C3_3
REMARK    3  A    between atoms: C2_2  and  C4_4
REMARK    4  A    between atoms: C5_5  and  C19_21
REMARK    5  A    between atoms: C6_6  and  C13_14
REMARK    6  A    between atoms: C7_7  and  C8_9
REMARK    7  A    between atoms: C20_22  and  C21_23
REMARK    8  A    between atoms: C21_23  and  C22_25
REMARK    9  A    between atoms: C21_23  and  O4_33
REMARK   10  A    between atoms: C22_25  and  C23_26
REMARK   11  A    between atoms: C23_26  and  C24_28
REMARK   12  A    between atoms: C23_26  and  O3_32
REMARK   13  A    between atoms: C24_28  and  C25_29
REMARK                            x       y       z     vdW  Elec       q    Type
REMARK                         _______ _______ _______ _____ _____    ______ ____
ROOT
ATOM      1  C4  <0> A   1     -25.239  -1.465  52.782  0.00  0.00    -0.126 C 
ATOM      2  C5  <0> A   1     -25.993  -2.377  52.100  0.00  0.00    -0.075 C 
ATOM      3  C6  <0> A   1     -27.264  -1.935  51.572  0.00  0.00    -0.076 C 
ATOM      4  C7  <0> A   1     -27.625  -0.639  51.789  0.00  0.00    -0.120 C 
ATOM      5  S1  <0> A   1     -26.248   0.003  52.722  0.00  0.00    +0.041 S 
ENDROOT
BRANCH   3   6
ATOM      6  C13 <0> A   1     -28.144  -2.860  50.818  0.00  0.00    -0.031 A 
ATOM      7  C14 <0> A   1     -29.156  -3.556  51.478  0.00  0.00    +0.053 A 
ATOM      8  C15 <0> A   1     -29.972  -4.415  50.773  0.00  0.00    -0.015 A 
ATOM      9  C16 <0> A   1     -29.788  -4.587  49.411  0.00  0.00    +0.099 A 
ATOM     10  C17 <0> A   1     -28.783  -3.899  48.750  0.00  0.00    -0.011 A 
ATOM     11  C18 <0> A   1     -27.966  -3.031  49.447  0.00  0.00    +0.058 A 
ATOM     12  F1  <0> A   1     -30.589  -5.431  48.724  0.00  0.00    -0.140 F 
ENDBRANCH   3   6
BRANCH   4  13
ATOM     13  C8  <0> A   1     -28.880   0.072  51.355  0.00  0.00    +0.084 C 
ATOM     14  C9  <0> A   1     -28.593   1.575  51.155  0.00  0.00    +0.022 C 
ATOM     15  C10 <0> A   1     -29.877   2.278  51.662  0.00  0.00    +0.012 C 
ATOM     16  C11 <0> A   1     -30.277   1.417  52.885  0.00  0.00    +0.008 C 
ATOM     17  C12 <0> A   1     -29.951  -0.028  52.454  0.00  0.00    +0.019 C 
ENDBRANCH   4  13
BRANCH   1  19
ATOM     18  C1  <0> A   1     -22.791  -1.248  52.448  0.00  0.00    +0.035 C 
ATOM     19  C2  <0> A   1     -23.892  -1.656  53.430  0.00  0.00    +0.081 C 
ATOM     20  C3  <0> A   1     -23.802  -0.786  54.685  0.00  0.00    +0.033 C 
ENDBRANCH   1  19
BRANCH   2  21
ATOM     21  C19 <0> A   1     -25.527  -3.765  51.907  0.00  0.00    +0.023 C 
ATOM     22  C20 <0> A   1     -24.797  -4.078  50.845  0.00  0.00    -0.055 C 
BRANCH  22  23
ATOM     23  C21 <0> A   1     -24.320  -5.493  50.649  0.00  0.00    +0.250 C 
BRANCH  23  24
ATOM     24  O4  <0> A   1     -23.628  -5.930  51.821  0.00  0.00    -0.538 OA
ATOM     25  H30 <0> A   1     -23.258  -6.821  51.751  0.00  0.00    +0.365 HD
ENDBRANCH  23  24
BRANCH  23  26
ATOM     26  C22 <0> A   1     -25.522  -6.406  50.397  0.00  0.00    -0.043 C 
BRANCH  26  27
ATOM     27  C23 <0> A   1     -25.099  -7.571  49.500  0.00  0.00    +0.231 C 
BRANCH  27  28
ATOM     28  O3  <0> A   1     -23.794  -7.318  48.975  0.00  0.00    -0.528 OA
ATOM     29  H29 <0> A   1     -23.777  -7.166  48.020  0.00  0.00    +0.350 HD
ENDBRANCH  27  28
BRANCH  27  30
ATOM     30  C24 <0> A   1     -25.075  -8.863  50.320  0.00  0.00    -0.102 C 
BRANCH  30  31
ATOM     31  C25 <0> A   1     -23.647  -9.289  50.546  0.00  0.00    +0.491 C 
ATOM     32  O1  <0> A   1     -23.008  -8.812  51.468  0.00  0.00    -0.681 OA
ATOM     33  O2  <0> A   1     -23.132 -10.110  49.807  0.00  0.00    -0.713 OA
ENDBRANCH  30  31
ENDBRANCH  27  30
ENDBRANCH  26  27
ENDBRANCH  23  26
ENDBRANCH  22  23
ENDBRANCH   2  21
TORSDOF 11
ENDMDL
MODEL 5
REMARK VINA RESULT:      -7.1      2.796      4.765
REMARK  Name = CHEMBL154868
REMARK  13 active torsions:
REMARK  status: ('A' for Active; 'I' for Inactive)
REMARK    1  A    between atoms: C1_1  and  C2_2
REMARK    2  A    between atoms: C2_2  and  C3_3
REMARK    3  A    between atoms: C2_2  and  C4_4
REMARK    4  A    between atoms: C5_5  and  C19_21
REMARK    5  A    between atoms: C6_6  and  C13_14
REMARK    6  A    between atoms: C7_7  and  C8_9
REMARK    7  A    between atoms: C20_22  and  C21_23
REMARK    8  A    between atoms: C21_23  and  C22_25
REMARK    9  A    between atoms: C21_23  and  O4_33
REMARK   10  A    between atoms: C22_25  and  C23_26
REMARK   11  A    between atoms: C23_26  and  C24_28
REMARK   12  A    between atoms: C23_26  and  O3_32
REMARK   13  A    between atoms: C24_28  and  C25_29
REMARK                            x       y       z     vdW  Elec       q    Type
REMARK                         _______ _______ _______ _____ _____    ______ ____
ROOT
ATOM      1  C4  <0> A   1     -15.216  10.590  47.553  0.00  0.00    -0.126 C 
ATOM      2  C5  <0> A   1     -14.804   9.508  46.829  0.00  0.00    -0.075 C 
ATOM      3  C6  <0> A   1     -15.471   8.248  47.068  0.00  0.00    -0.076 C 
ATOM      4  C7  <0> A   1     -16.466   8.223  47.998  0.00  0.00    -0.120 C 
ATOM      5  S1  <0> A   1     -16.511   9.910  48.573  0.00  0.00    +0.041 S 
ENDROOT
BRANCH   3   6
ATOM      6  C13 <0> A   1     -15.086   7.024  46.325  0.00  0.00    -0.031 A 
ATOM      7  C14 <0> A   1     -14.108   6.173  46.837  0.00  0.00    +0.053 A 
ATOM      8  C15 <0> A   1     -13.753   5.036  46.142  0.00  0.00    -0.015 A 
ATOM      9  C16 <0> A   1     -14.367   4.739  44.936  0.00  0.00    +0.099 A 
ATOM     10  C17 <0> A   1     -15.339   5.582  44.421  0.00  0.00    -0.011 A 
ATOM     11  C18 <0> A   1     -15.705   6.718  45.114  0.00  0.00    +0.058 A 
ATOM     12  F1  <0> A   1     -14.016   3.624  44.257  0.00  0.00    -0.140 F 
ENDBRANCH   3   6
BRANCH   4  13
ATOM     13  C8  <0> A   1     -17.313   7.057  48.438  0.00  0.00    +0.084 C 
ATOM     14  C9  <0> A   1     -18.516   6.890  47.486  0.00  0.00    +0.022 C 
ATOM     15  C10 <0> A   1     -19.679   6.463  48.416  0.00  0.00    +0.012 C 
ATOM     16  C11 <0> A   1     -19.428   7.310  49.688  0.00  0.00    +0.008 C 
ATOM     17  C12 <0> A   1     -17.892   7.323  49.837  0.00  0.00    +0.019 C 
ENDBRANCH   4  13
BRANCH   1  19
ATOM     18  C1  <0> A   1     -15.846  12.976  47.802  0.00  0.00    +0.035 C 
ATOM     19  C2  <0> A   1     -14.701  12.005  47.506  0.00  0.00    +0.081 C 
ATOM     20  C3  <0> A   1     -13.599  12.182  48.553  0.00  0.00    +0.033 C 
ENDBRANCH   1  19
BRANCH   2  21
ATOM     21  C19 <0> A   1     -13.716   9.621  45.837  0.00  0.00    +0.023 C 
ATOM     22  C20 <0> A   1     -13.942  10.208  44.669  0.00  0.00    -0.055 C 
BRANCH  22  23
ATOM     23  C21 <0> A   1     -12.833  10.325  43.657  0.00  0.00    +0.250 C 
BRANCH  23  24
ATOM     24  O4  <0> A   1     -11.572  10.168  44.312  0.00  0.00    -0.538 OA
ATOM     25  H30 <0> A   1     -11.479   9.333  44.791  0.00  0.00    +0.365 HD
ENDBRANCH  23  24
BRANCH  23  26
ATOM     26  C22 <0> A   1     -12.995   9.234  42.596  0.00  0.00    -0.043 C 
BRANCH  26  27
ATOM     27  C23 <0> A   1     -12.745   9.831  41.209  0.00  0.00    +0.231 C 
BRANCH  27  28
ATOM     28  O3  <0> A   1     -13.331   8.988  40.215  0.00  0.00    -0.528 OA
ATOM     29  H29 <0> A   1     -13.493   9.431  39.370  0.00  0.00    +0.350 HD
ENDBRANCH  27  28
BRANCH  27  30
ATOM     30  C24 <0> A   1     -13.374  11.224  41.132  0.00  0.00    -0.102 C 
BRANCH  30  31
ATOM     31  C25 <0> A   1     -14.049  11.397  39.796  0.00  0.00    +0.491 C 
ATOM     32  O1  <0> A   1     -13.408  11.791  38.836  0.00  0.00    -0.681 OA
ATOM     33  O2  <0> A   1     -15.235  11.144  39.675  0.00  0.00    -0.713 OA
ENDBRANCH  30  31
ENDBRANCH  27  30
ENDBRANCH  26  27
ENDBRANCH  23  26
ENDBRANCH  22  23
ENDBRANCH   2  21
TORSDOF 11
ENDMDL
MODEL 6
REMARK VINA RESULT:      -7.0      1.362      1.649
REMARK  Name = CHEMBL154868
REMARK  13 active torsions:
REMARK  status: ('A' for Active; 'I' for Inactive)
REMARK    1  A    between atoms: C1_1  and  C2_2
REMARK    2  A    between atoms: C2_2  and  C3_3
REMARK    3  A    between atoms: C2_2  and  C4_4
REMARK    4  A    between atoms: C5_5  and  C19_21
REMARK    5  A    between atoms: C6_6  and  C13_14
REMARK    6  A    between atoms: C7_7  and  C8_9
REMARK    7  A    between atoms: C20_22  and  C21_23
REMARK    8  A    between atoms: C21_23  and  C22_25
REMARK    9  A    between atoms: C21_23  and  O4_33
REMARK   10  A    between atoms: C22_25  and  C23_26
REMARK   11  A    between atoms: C23_26  and  C24_28
REMARK   12  A    between atoms: C23_26  and  O3_32
REMARK   13  A    between atoms: C24_28  and  C25_29
REMARK                            x       y       z     vdW  Elec       q    Type
REMARK                         _______ _______ _______ _____ _____    ______ ____
ROOT
ATOM      1  C4  <0> A   1     -15.120   6.457  45.857  0.00  0.00    -0.126 C 
ATOM      2  C5  <0> A   1     -14.613   7.724  45.913  0.00  0.00    -0.075 C 
ATOM      3  C6  <0> A   1     -14.691   8.423  47.176  0.00  0.00    -0.076 C 
ATOM      4  C7  <0> A   1     -15.265   7.772  48.226  0.00  0.00    -0.120 C 
ATOM      5  S1  <0> A   1     -15.717   6.200  47.517  0.00  0.00    +0.041 S 
ENDROOT
BRANCH   3   6
ATOM      6  C13 <0> A   1     -14.163   9.800  47.324  0.00  0.00    -0.031 A 
ATOM      7  C14 <0> A   1     -12.858  10.005  47.771  0.00  0.00    +0.053 A 
ATOM      8  C15 <0> A   1     -12.372  11.288  47.907  0.00  0.00    -0.015 A 
ATOM      9  C16 <0> A   1     -13.177  12.373  47.599  0.00  0.00    +0.099 A 
ATOM     10  C17 <0> A   1     -14.474  12.175  47.155  0.00  0.00    -0.011 A 
ATOM     11  C18 <0> A   1     -14.967  10.894  47.009  0.00  0.00    +0.058 A 
ATOM     12  F1  <0> A   1     -12.696  13.629  47.734  0.00  0.00    -0.140 F 
ENDBRANCH   3   6
BRANCH   4  13
ATOM     13  C8  <0> A   1     -15.473   8.262  49.636  0.00  0.00    +0.084 C 
ATOM     14  C9  <0> A   1     -14.383   7.683  50.562  0.00  0.00    +0.022 C 
ATOM     15  C10 <0> A   1     -15.125   7.403  51.892  0.00  0.00    +0.012 C 
ATOM     16  C11 <0> A   1     -16.506   6.892  51.412  0.00  0.00    +0.008 C 
ATOM     17  C12 <0> A   1     -16.822   7.759  50.176  0.00  0.00    +0.019 C 
ENDBRANCH   4  13
BRANCH   1  19
ATOM     18  C1  <0> A   1     -14.601   4.155  45.094  0.00  0.00    +0.035 C 
ATOM     19  C2  <0> A   1     -15.170   5.515  44.682  0.00  0.00    +0.081 C 
ATOM     20  C3  <0> A   1     -16.620   5.343  44.226  0.00  0.00    +0.033 C 
ENDBRANCH   1  19
BRANCH   2  21
ATOM     21  C19 <0> A   1     -14.004   8.357  44.726  0.00  0.00    +0.023 C 
ATOM     22  C20 <0> A   1     -12.729   8.135  44.436  0.00  0.00    -0.055 C 
BRANCH  22  23
ATOM     23  C21 <0> A   1     -12.108   8.780  43.224  0.00  0.00    +0.250 C 
BRANCH  23  24
ATOM     24  O4  <0> A   1     -11.324   7.815  42.520  0.00  0.00    -0.538 OA
ATOM     25  H30 <0> A   1     -11.659   6.910  42.588  0.00  0.00    +0.365 HD
ENDBRANCH  23  24
BRANCH  23  26
ATOM     26  C22 <0> A   1     -13.213   9.308  42.305  0.00  0.00    -0.043 C 
BRANCH  26  27
ATOM     27  C23 <0> A   1     -12.782  10.650  41.710  0.00  0.00    +0.231 C 
BRANCH  27  28
ATOM     28  O3  <0> A   1     -11.422  10.566  41.278  0.00  0.00    -0.528 OA
ATOM     29  H29 <0> A   1     -11.114  11.344  40.794  0.00  0.00    +0.350 HD
ENDBRANCH  27  28
BRANCH  27  30
ATOM     30  C24 <0> A   1     -13.675  10.989  40.515  0.00  0.00    -0.102 C 
BRANCH  30  31
ATOM     31  C25 <0> A   1     -12.844  11.015  39.258  0.00  0.00    +0.491 C 
ATOM     32  O1  <0> A   1     -12.590   9.975  38.674  0.00  0.00    -0.681 OA
ATOM     33  O2  <0> A   1     -12.427  12.075  38.825  0.00  0.00    -0.713 OA
ENDBRANCH  30  31
ENDBRANCH  27  30
ENDBRANCH  26  27
ENDBRANCH  23  26
ENDBRANCH  22  23
ENDBRANCH   2  21
TORSDOF 11
ENDMDL
MODEL 7
REMARK VINA RESULT:      -7.0     18.141     21.423
REMARK  Name = CHEMBL154868
REMARK  13 active torsions:
REMARK  status: ('A' for Active; 'I' for Inactive)
REMARK    1  A    between atoms: C1_1  and  C2_2
REMARK    2  A    between atoms: C2_2  and  C3_3
REMARK    3  A    between atoms: C2_2  and  C4_4
REMARK    4  A    between atoms: C5_5  and  C19_21
REMARK    5  A    between atoms: C6_6  and  C13_14
REMARK    6  A    between atoms: C7_7  and  C8_9
REMARK    7  A    between atoms: C20_22  and  C21_23
REMARK    8  A    between atoms: C21_23  and  C22_25
REMARK    9  A    between atoms: C21_23  and  O4_33
REMARK   10  A    between atoms: C22_25  and  C23_26
REMARK   11  A    between atoms: C23_26  and  C24_28
REMARK   12  A    between atoms: C23_26  and  O3_32
REMARK   13  A    between atoms: C24_28  and  C25_29
REMARK                            x       y       z     vdW  Elec       q    Type
REMARK                         _______ _______ _______ _____ _____    ______ ____
ROOT
ATOM      1  C4  <0> A   1     -24.475  -3.289  51.506  0.00  0.00    -0.126 C 
ATOM      2  C5  <0> A   1     -25.311  -4.367  51.443  0.00  0.00    -0.075 C 
ATOM      3  C6  <0> A   1     -26.685  -4.174  51.846  0.00  0.00    -0.076 C 
ATOM      4  C7  <0> A   1     -27.056  -2.931  52.263  0.00  0.00    -0.120 C 
ATOM      5  S1  <0> A   1     -25.542  -2.000  52.122  0.00  0.00    +0.041 S 
ENDROOT
BRANCH   3   6
ATOM      6  C13 <0> A   1     -27.659  -5.291  51.807  0.00  0.00    -0.031 A 
ATOM      7  C14 <0> A   1     -28.338  -5.587  50.626  0.00  0.00    +0.053 A 
ATOM      8  C15 <0> A   1     -29.243  -6.627  50.595  0.00  0.00    -0.015 A 
ATOM      9  C16 <0> A   1     -29.478  -7.378  51.735  0.00  0.00    +0.099 A 
ATOM     10  C17 <0> A   1     -28.808  -7.087  52.912  0.00  0.00    -0.011 A 
ATOM     11  C18 <0> A   1     -27.895  -6.053  52.950  0.00  0.00    +0.058 A 
ATOM     12  F1  <0> A   1     -30.366  -8.396  51.700  0.00  0.00    -0.140 F 
ENDBRANCH   3   6
BRANCH   4  13
ATOM     13  C8  <0> A   1     -28.408  -2.462  52.734  0.00  0.00    +0.084 C 
ATOM     14  C9  <0> A   1     -29.249  -1.983  51.531  0.00  0.00    +0.022 C 
ATOM     15  C10 <0> A   1     -30.034  -0.766  52.078  0.00  0.00    +0.012 C 
ATOM     16  C11 <0> A   1     -29.000  -0.079  53.003  0.00  0.00    +0.008 C 
ATOM     17  C12 <0> A   1     -28.250  -1.251  53.669  0.00  0.00    +0.019 C 
ENDBRANCH   4  13
BRANCH   1  19
ATOM     18  C1  <0> A   1     -22.686  -1.806  50.638  0.00  0.00    +0.035 C 
ATOM     19  C2  <0> A   1     -23.013  -3.211  51.151  0.00  0.00    +0.081 C 
ATOM     20  C3  <0> A   1     -22.169  -3.508  52.392  0.00  0.00    +0.033 C 
ENDBRANCH   1  19
BRANCH   2  21
ATOM     21  C19 <0> A   1     -24.829  -5.683  50.977  0.00  0.00    +0.023 C 
ATOM     22  C20 <0> A   1     -24.374  -6.570  51.852  0.00  0.00    -0.055 C 
BRANCH  22  23
ATOM     23  C21 <0> A   1     -23.883  -7.913  51.377  0.00  0.00    +0.250 C 
BRANCH  23  24
ATOM     24  O4  <0> A   1     -23.251  -8.599  52.461  0.00  0.00    -0.538 OA
ATOM     25  H30 <0> A   1     -23.823  -8.730  53.230  0.00  0.00    +0.365 HD
ENDBRANCH  23  24
BRANCH  23  26
ATOM     26  C22 <0> A   1     -25.067  -8.740  50.871  0.00  0.00    -0.043 C 
BRANCH  26  27
ATOM     27  C23 <0> A   1     -24.673 -10.217  50.822  0.00  0.00    +0.231 C 
BRANCH  27  28
ATOM     28  O3  <0> A   1     -25.851 -11.026  50.836  0.00  0.00    -0.528 OA
ATOM     29  H29 <0> A   1     -25.900 -11.636  51.585  0.00  0.00    +0.350 HD
ENDBRANCH  27  28
BRANCH  27  30
ATOM     30  C24 <0> A   1     -23.883 -10.492  49.540  0.00  0.00    -0.102 C 
BRANCH  30  31
ATOM     31  C25 <0> A   1     -24.513 -11.643  48.798  0.00  0.00    +0.491 C 
ATOM     32  O1  <0> A   1     -25.362 -11.428  47.950  0.00  0.00    -0.681 OA
ATOM     33  O2  <0> A   1     -24.173 -12.787  49.046  0.00  0.00    -0.713 OA
ENDBRANCH  30  31
ENDBRANCH  27  30
ENDBRANCH  26  27
ENDBRANCH  23  26
ENDBRANCH  22  23
ENDBRANCH   2  21
TORSDOF 11
ENDMDL
MODEL 8
REMARK VINA RESULT:      -6.9      3.311      6.430
REMARK  Name = CHEMBL154868
REMARK  13 active torsions:
REMARK  status: ('A' for Active; 'I' for Inactive)
REMARK    1  A    between atoms: C1_1  and  C2_2
REMARK    2  A    between atoms: C2_2  and  C3_3
REMARK    3  A    between atoms: C2_2  and  C4_4
REMARK    4  A    between atoms: C5_5  and  C19_21
REMARK    5  A    between atoms: C6_6  and  C13_14
REMARK    6  A    between atoms: C7_7  and  C8_9
REMARK    7  A    between atoms: C20_22  and  C21_23
REMARK    8  A    between atoms: C21_23  and  C22_25
REMARK    9  A    between atoms: C21_23  and  O4_33
REMARK   10  A    between atoms: C22_25  and  C23_26
REMARK   11  A    between atoms: C23_26  and  C24_28
REMARK   12  A    between atoms: C23_26  and  O3_32
REMARK   13  A    between atoms: C24_28  and  C25_29
REMARK                            x       y       z     vdW  Elec       q    Type
REMARK                         _______ _______ _______ _____ _____    ______ ____
ROOT
ATOM      1  C4  <0> A   1     -14.639   6.495  44.681  0.00  0.00    -0.126 C 
ATOM      2  C5  <0> A   1     -14.247   7.670  45.256  0.00  0.00    -0.075 C 
ATOM      3  C6  <0> A   1     -13.528   8.613  44.431  0.00  0.00    -0.076 C 
ATOM      4  C7  <0> A   1     -13.288   8.268  43.135  0.00  0.00    -0.120 C 
ATOM      5  S1  <0> A   1     -14.029   6.651  43.013  0.00  0.00    +0.041 S 
ENDROOT
BRANCH   3   6
ATOM      6  C13 <0> A   1     -13.067   9.913  44.976  0.00  0.00    -0.031 A 
ATOM      7  C14 <0> A   1     -13.883  11.039  44.882  0.00  0.00    +0.053 A 
ATOM      8  C15 <0> A   1     -13.450  12.246  45.390  0.00  0.00    -0.015 A 
ATOM      9  C16 <0> A   1     -12.207  12.340  45.994  0.00  0.00    +0.099 A 
ATOM     10  C17 <0> A   1     -11.391  11.224  46.088  0.00  0.00    -0.011 A 
ATOM     11  C18 <0> A   1     -11.820  10.011  45.589  0.00  0.00    +0.058 A 
ATOM     12  F1  <0> A   1     -11.786  13.524  46.490  0.00  0.00    -0.140 F 
ENDBRANCH   3   6
BRANCH   4  13
ATOM     13  C8  <0> A   1     -12.568   9.055  42.070  0.00  0.00    +0.084 C 
ATOM     14  C9  <0> A   1     -13.519  10.103  41.454  0.00  0.00    +0.022 C 
ATOM     15  C10 <0> A   1     -13.136  10.127  39.954  0.00  0.00    +0.012 C 
ATOM     16  C11 <0> A   1     -12.844   8.636  39.652  0.00  0.00    +0.008 C 
ATOM     17  C12 <0> A   1     -12.139   8.123  40.925  0.00  0.00    +0.019 C 
ENDBRANCH   4  13
BRANCH   1  19
ATOM     18  C1  <0> A   1     -16.506   4.895  44.356  0.00  0.00    +0.035 C 
ATOM     19  C2  <0> A   1     -15.393   5.348  45.304  0.00  0.00    +0.081 C 
ATOM     20  C3  <0> A   1     -14.433   4.184  45.557  0.00  0.00    +0.033 C 
ENDBRANCH   1  19
BRANCH   2  21
ATOM     21  C19 <0> A   1     -14.550   7.967  46.671  0.00  0.00    +0.023 C 
ATOM     22  C20 <0> A   1     -15.739   8.447  47.008  0.00  0.00    -0.055 C 
BRANCH  22  23
ATOM     23  C21 <0> A   1     -16.048   8.750  48.451  0.00  0.00    +0.250 C 
BRANCH  23  24
ATOM     24  O4  <0> A   1     -16.275   7.527  49.156  0.00  0.00    -0.538 OA
ATOM     25  H30 <0> A   1     -17.192   7.219  49.125  0.00  0.00    +0.365 HD
ENDBRANCH  23  24
BRANCH  23  26
ATOM     26  C22 <0> A   1     -14.866   9.489  49.081  0.00  0.00    -0.043 C 
BRANCH  26  27
ATOM     27  C23 <0> A   1     -15.263  10.941  49.357  0.00  0.00    +0.231 C 
BRANCH  27  28
ATOM     28  O3  <0> A   1     -14.414  11.817  48.611  0.00  0.00    -0.528 OA
ATOM     29  H29 <0> A   1     -14.246  11.524  47.705  0.00  0.00    +0.350 HD
ENDBRANCH  27  28
BRANCH  27  30
ATOM     30  C24 <0> A   1     -16.717  11.162  48.936  0.00  0.00    -0.102 C 
BRANCH  30  31
ATOM     31  C25 <0> A   1     -16.767  12.141  47.792  0.00  0.00    +0.491 C 
ATOM     32  O1  <0> A   1     -16.791  11.734  46.643  0.00  0.00    -0.681 OA
ATOM     33  O2  <0> A   1     -16.783  13.339  48.015  0.00  0.00    -0.713 OA
ENDBRANCH  30  31
ENDBRANCH  27  30
ENDBRANCH  26  27
ENDBRANCH  23  26
ENDBRANCH  22  23
ENDBRANCH   2  21
TORSDOF 11
ENDMDL
MODEL 9
REMARK VINA RESULT:      -6.9     16.961     19.795
REMARK  Name = CHEMBL154868
REMARK  13 active torsions:
REMARK  status: ('A' for Active; 'I' for Inactive)
REMARK    1  A    between atoms: C1_1  and  C2_2
REMARK    2  A    between atoms: C2_2  and  C3_3
REMARK    3  A    between atoms: C2_2  and  C4_4
REMARK    4  A    between atoms: C5_5  and  C19_21
REMARK    5  A    between atoms: C6_6  and  C13_14
REMARK    6  A    between atoms: C7_7  and  C8_9
REMARK    7  A    between atoms: C20_22  and  C21_23
REMARK    8  A    between atoms: C21_23  and  C22_25
REMARK    9  A    between atoms: C21_23  and  O4_33
REMARK   10  A    between atoms: C22_25  and  C23_26
REMARK   11  A    between atoms: C23_26  and  C24_28
REMARK   12  A    between atoms: C23_26  and  O3_32
REMARK   13  A    between atoms: C24_28  and  C25_29
REMARK                            x       y       z     vdW  Elec       q    Type
REMARK                         _______ _______ _______ _____ _____    ______ ____
ROOT
ATOM      1  C4  <0> A   1     -27.609  -4.330  50.863  0.00  0.00    -0.126 C 
ATOM      2  C5  <0> A   1     -26.297  -4.220  51.225  0.00  0.00    -0.075 C 
ATOM      3  C6  <0> A   1     -25.724  -2.894  51.277  0.00  0.00    -0.076 C 
ATOM      4  C7  <0> A   1     -26.531  -1.842  50.962  0.00  0.00    -0.120 C 
ATOM      5  S1  <0> A   1     -28.082  -2.635  50.581  0.00  0.00    +0.041 S 
ENDROOT
BRANCH   3   6
ATOM      6  C13 <0> A   1     -24.308  -2.686  51.662  0.00  0.00    -0.031 A 
ATOM      7  C14 <0> A   1     -23.290  -2.920  50.738  0.00  0.00    +0.053 A 
ATOM      8  C15 <0> A   1     -21.974  -2.724  51.101  0.00  0.00    -0.015 A 
ATOM      9  C16 <0> A   1     -21.662  -2.296  52.381  0.00  0.00    +0.099 A 
ATOM     10  C17 <0> A   1     -22.670  -2.063  53.303  0.00  0.00    -0.011 A 
ATOM     11  C18 <0> A   1     -23.990  -2.248  52.946  0.00  0.00    +0.058 A 
ATOM     12  F1  <0> A   1     -20.371  -2.106  52.732  0.00  0.00    -0.140 F 
ENDBRANCH   3   6
BRANCH   4  13
ATOM     13  C8  <0> A   1     -26.193  -0.374  50.935  0.00  0.00    +0.084 C 
ATOM     14  C9  <0> A   1     -26.599   0.285  52.270  0.00  0.00    +0.022 C 
ATOM     15  C10 <0> A   1     -27.118   1.685  51.860  0.00  0.00    +0.012 C 
ATOM     16  C11 <0> A   1     -27.868   1.397  50.536  0.00  0.00    +0.008 C 
ATOM     17  C12 <0> A   1     -27.000   0.332  49.833  0.00  0.00    +0.019 C 
ENDBRANCH   4  13
BRANCH   1  19
ATOM     18  C1  <0> A   1     -29.851  -5.307  51.270  0.00  0.00    +0.035 C 
ATOM     19  C2  <0> A   1     -28.446  -5.576  50.728  0.00  0.00    +0.081 C 
ATOM     20  C3  <0> A   1     -28.537  -5.973  49.253  0.00  0.00    +0.033 C 
ENDBRANCH   1  19
BRANCH   2  21
ATOM     21  C19 <0> A   1     -25.491  -5.414  51.552  0.00  0.00    +0.023 C 
ATOM     22  C20 <0> A   1     -25.049  -6.202  50.582  0.00  0.00    -0.055 C 
BRANCH  22  23
ATOM     23  C21 <0> A   1     -24.226  -7.420  50.916  0.00  0.00    +0.250 C 
BRANCH  23  24
ATOM     24  O4  <0> A   1     -23.755  -7.321  52.262  0.00  0.00    -0.538 OA
ATOM     25  H30 <0> A   1     -23.867  -6.444  52.655  0.00  0.00    +0.365 HD
ENDBRANCH  23  24
BRANCH  23  26
ATOM     26  C22 <0> A   1     -25.089  -8.674  50.769  0.00  0.00    -0.043 C 
BRANCH  26  27
ATOM     27  C23 <0> A   1     -24.316  -9.735  49.982  0.00  0.00    +0.231 C 
BRANCH  27  28
ATOM     28  O3  <0> A   1     -22.928  -9.393  49.958  0.00  0.00    -0.528 OA
ATOM     29  H29 <0> A   1     -22.742  -8.533  49.559  0.00  0.00    +0.350 HD
ENDBRANCH  27  28
BRANCH  27  30
ATOM     30  C24 <0> A   1     -24.493 -11.099  50.654  0.00  0.00    -0.102 C 
BRANCH  30  31
ATOM     31  C25 <0> A   1     -24.327 -12.190  49.628  0.00  0.00    +0.491 C 
ATOM     32  O1  <0> A   1     -25.026 -13.188  49.682  0.00  0.00    -0.681 OA
ATOM     33  O2  <0> A   1     -23.495 -12.075  48.745  0.00  0.00    -0.713 OA
ENDBRANCH  30  31
ENDBRANCH  27  30
ENDBRANCH  26  27
ENDBRANCH  23  26
ENDBRANCH  22  23
ENDBRANCH   2  21
TORSDOF 11
ENDMDL
MODEL 10
REMARK VINA RESULT:      -6.9     19.468     22.840
REMARK  Name = CHEMBL154868
REMARK  13 active torsions:
REMARK  status: ('A' for Active; 'I' for Inactive)
REMARK    1  A    between atoms: C1_1  and  C2_2
REMARK    2  A    between atoms: C2_2  and  C3_3
REMARK    3  A    between atoms: C2_2  and  C4_4
REMARK    4  A    between atoms: C5_5  and  C19_21
REMARK    5  A    between atoms: C6_6  and  C13_14
REMARK    6  A    between atoms: C7_7  and  C8_9
REMARK    7  A    between atoms: C20_22  and  C21_23
REMARK    8  A    between atoms: C21_23  and  C22_25
REMARK    9  A    between atoms: C21_23  and  O4_33
REMARK   10  A    between atoms: C22_25  and  C23_26
REMARK   11  A    between atoms: C23_26  and  C24_28
REMARK   12  A    between atoms: C23_26  and  O3_32
REMARK   13  A    between atoms: C24_28  and  C25_29
REMARK                            x       y       z     vdW  Elec       q    Type
REMARK                         _______ _______ _______ _____ _____    ______ ____
ROOT
ATOM      1  C4  <0> A   1     -28.037  -4.741  52.108  0.00  0.00    -0.126 C 
ATOM      2  C5  <0> A   1     -27.305  -5.831  51.732  0.00  0.00    -0.075 C 
ATOM      3  C6  <0> A   1     -25.944  -5.608  51.299  0.00  0.00    -0.076 C 
ATOM      4  C7  <0> A   1     -25.482  -4.326  51.294  0.00  0.00    -0.120 C 
ATOM      5  S1  <0> A   1     -26.890  -3.397  51.871  0.00  0.00    +0.041 S 
ENDROOT
BRANCH   3   6
ATOM      6  C13 <0> A   1     -25.081  -6.736  50.876  0.00  0.00    -0.031 A 
ATOM      7  C14 <0> A   1     -24.934  -7.035  49.522  0.00  0.00    +0.053 A 
ATOM      8  C15 <0> A   1     -24.129  -8.085  49.134  0.00  0.00    -0.015 A 
ATOM      9  C16 <0> A   1     -23.467  -8.843  50.085  0.00  0.00    +0.099 A 
ATOM     10  C17 <0> A   1     -23.610  -8.550  51.432  0.00  0.00    -0.011 A 
ATOM     11  C18 <0> A   1     -24.407  -7.497  51.830  0.00  0.00    +0.058 A 
ATOM     12  F1  <0> A   1     -22.680  -9.871  49.700  0.00  0.00    -0.140 F 
ENDBRANCH   3   6
BRANCH   4  13
ATOM     13  C8  <0> A   1     -24.121  -3.820  50.893  0.00  0.00    +0.084 C 
ATOM     14  C9  <0> A   1     -23.133  -3.973  52.069  0.00  0.00    +0.022 C 
ATOM     15  C10 <0> A   1     -22.239  -2.712  51.981  0.00  0.00    +0.012 C 
ATOM     16  C11 <0> A   1     -23.244  -1.610  51.563  0.00  0.00    +0.008 C 
ATOM     17  C12 <0> A   1     -24.191  -2.317  50.572  0.00  0.00    +0.019 C 
ENDBRANCH   4  13
BRANCH   1  19
ATOM     18  C1  <0> A   1     -29.618  -3.537  53.592  0.00  0.00    +0.035 C 
ATOM     19  C2  <0> A   1     -29.463  -4.687  52.594  0.00  0.00    +0.081 C 
ATOM     20  C3  <0> A   1     -30.399  -4.461  51.406  0.00  0.00    +0.033 C 
ENDBRANCH   1  19
BRANCH   2  21
ATOM     21  C19 <0> A   1     -27.883  -7.190  51.769  0.00  0.00    +0.023 C 
ATOM     22  C20 <0> A   1     -28.390  -7.725  50.666  0.00  0.00    -0.055 C 
BRANCH  22  23
ATOM     23  C21 <0> A   1     -28.978  -9.111  50.702  0.00  0.00    +0.250 C 
BRANCH  23  24
ATOM     24  O4  <0> A   1     -27.924 -10.074  50.757  0.00  0.00    -0.538 OA
ATOM     25  H30 <0> A   1     -27.049  -9.692  50.911  0.00  0.00    +0.365 HD
ENDBRANCH  23  24
BRANCH  23  26
ATOM     26  C22 <0> A   1     -29.866  -9.255  51.940  0.00  0.00    -0.043 C 
BRANCH  26  27
ATOM     27  C23 <0> A   1     -30.738 -10.505  51.799  0.00  0.00    +0.231 C 
BRANCH  27  28
ATOM     28  O3  <0> A   1     -30.468 -11.135  50.544  0.00  0.00    -0.528 OA
ATOM     29  H29 <0> A   1     -30.704 -12.072  50.516  0.00  0.00    +0.350 HD
ENDBRANCH  27  28
BRANCH  27  30
ATOM     30  C24 <0> A   1     -30.422 -11.479  52.936  0.00  0.00    -0.102 C 
BRANCH  30  31
ATOM     31  C25 <0> A   1     -29.713 -12.687  52.380  0.00  0.00    +0.491 C 
ATOM     32  O1  <0> A   1     -30.334 -13.716  52.173  0.00  0.00    -0.681 OA
ATOM     33  O2  <0> A   1     -28.520 -12.636  52.138  0.00  0.00    -0.713 OA
ENDBRANCH  30  31
ENDBRANCH  27  30
ENDBRANCH  26  27
ENDBRANCH  23  26
ENDBRANCH  22  23
ENDBRANCH   2  21
TORSDOF 11
ENDMDL
