REMARK VINA RESULT:      -7.4     15.342     19.747
REMARK  Name = CHEMBL317576
REMARK  15 active torsions:
REMARK  status: ('A' for Active; 'I' for Inactive)
REMARK    1  A    between atoms: C6_6  and  C7_7
REMARK    2  A    between atoms: C7_7  and  C8_8
REMARK    3  A    between atoms: C7_7  and  C16_18
REMARK    4  A    between atoms: C8_8  and  C9_9
REMARK    5  A    between atoms: C9_9  and  O1_10
REMARK    6  A    between atoms: O1_10  and  C10_11
REMARK    7  A    between atoms: C21_23  and  O2_24
REMARK    8  A    between atoms: O2_24  and  C22_25
REMARK    9  A    between atoms: C22_25  and  C23_26
REMARK   10  A    between atoms: C23_26  and  C24_27
REMARK   11  A    between atoms: C23_26  and  O6_35
REMARK   12  A    between atoms: C24_27  and  C25_28
REMARK   13  A    between atoms: C25_28  and  C26_30
REMARK   14  A    between atoms: C25_28  and  O5_34
REMARK   15  A    between atoms: C26_30  and  C27_31
REMARK                            x       y       z     vdW  Elec       q    Type
REMARK                         _______ _______ _______ _____ _____    ______ ____
ROOT
ATOM      1  C16 <0> A   1     -27.213  -4.375  51.361  0.00  0.00    -0.069 A 
ATOM      2  C17 <0> A   1     -28.079  -4.067  52.391  0.00  0.00    +0.055 A 
ATOM      3  C18 <0> A   1     -28.837  -5.061  52.982  0.00  0.00    -0.029 A 
ATOM      4  C19 <0> A   1     -28.729  -6.369  52.542  0.00  0.00    +0.057 A 
ATOM      5  C20 <0> A   1     -27.864  -6.683  51.511  0.00  0.00    -0.045 A 
ATOM      6  C21 <0> A   1     -27.107  -5.684  50.913  0.00  0.00    +0.123 A 
ATOM      7 Cl1  <0> A   1     -27.729  -8.323  50.959  0.00  0.00    -0.036 Cl
ATOM      8 Cl2  <0> A   1     -29.925  -4.669  54.277  0.00  0.00    -0.054 Cl
ENDROOT
BRANCH   1   9
ATOM      9  C7  <0> A   1     -26.387  -3.291  50.719  0.00  0.00    +0.109 C 
BRANCH   9  15
ATOM     10  C1  <0> A   1     -24.041  -3.065  51.562  0.00  0.00    +0.047 A 
ATOM     11  C2  <0> A   1     -23.120  -2.585  52.474  0.00  0.00    -0.012 A 
ATOM     12  C3  <0> A   1     -23.541  -1.807  53.539  0.00  0.00    +0.100 A 
ATOM     13  C4  <0> A   1     -24.885  -1.510  53.689  0.00  0.00    -0.007 A 
ATOM     14  C5  <0> A   1     -25.805  -1.991  52.777  0.00  0.00    +0.049 A 
ATOM     15  C6  <0> A   1     -25.384  -2.768  51.714  0.00  0.00    -0.091 A 
ATOM     16  F2  <0> A   1     -22.641  -1.338  54.431  0.00  0.00    -0.139 F 
ENDBRANCH   9  15
BRANCH   9  17
ATOM     17  C8  <0> A   1     -27.303  -2.150  50.270  0.00  0.00    +0.059 C 
BRANCH  17  18
ATOM     18  C9  <0> A   1     -26.487  -1.115  49.494  0.00  0.00    +0.196 C 
BRANCH  18  19
ATOM     19  O1  <0> A   1     -26.718   0.184  50.044  0.00  0.00    -0.310 OA
BRANCH  19  20
ATOM     20  C10 <0> A   1     -25.701   0.745  50.750  0.00  0.00    +0.125 A 
ATOM     21  C11 <0> A   1     -24.386   0.429  50.442  0.00  0.00    -0.039 A 
ATOM     22  C12 <0> A   1     -23.353   1.001  51.161  0.00  0.00    +0.029 A 
ATOM     23  C13 <0> A   1     -23.631   1.888  52.186  0.00  0.00    +0.057 A 
ATOM     24  C14 <0> A   1     -24.943   2.203  52.494  0.00  0.00    +0.028 A 
ATOM     25  C15 <0> A   1     -25.978   1.639  51.774  0.00  0.00    +0.015 A 
ATOM     26  F1  <0> A   1     -22.620   2.445  52.889  0.00  0.00    -0.141 F 
ENDBRANCH  19  20
ENDBRANCH  18  19
ENDBRANCH  17  18
ENDBRANCH   9  17
ENDBRANCH   1   9
BRANCH   6  27
ATOM     27  O2  <0> A   1     -26.259  -5.989  49.895  0.00  0.00    -0.309 OA
BRANCH  27  28
ATOM     28  C22 <0> A   1     -24.955  -6.451  50.254  0.00  0.00    +0.154 C 
BRANCH  28  29
ATOM     29  C23 <0> A   1     -24.626  -7.716  49.460  0.00  0.00    +0.229 C 
BRANCH  29  30
ATOM     30  O6  <0> A   1     -23.541  -7.451  48.568  0.00  0.00    -0.528 OA
ATOM     31  H25 <0> A   1     -23.717  -6.742  47.934  0.00  0.00    +0.359 HD
ENDBRANCH  29  30
BRANCH  29  32
ATOM     32  C24 <0> A   1     -24.232  -8.836  50.424  0.00  0.00    -0.041 C 
BRANCH  32  33
ATOM     33  C25 <0> A   1     -24.994 -10.112  50.063  0.00  0.00    +0.235 C 
BRANCH  33  34
ATOM     34  O5  <0> A   1     -25.181 -10.172  48.647  0.00  0.00    -0.526 OA
ATOM     35  H24 <0> A   1     -25.005 -11.042  48.263  0.00  0.00    +0.350 HD
ENDBRANCH  33  34
BRANCH  33  36
ATOM     36  C26 <0> A   1     -24.193 -11.332  50.523  0.00  0.00    -0.101 C 
BRANCH  36  37
ATOM     37  C27 <0> A   1     -24.222 -12.387  49.447  0.00  0.00    +0.490 C 
ATOM     38  O3  <0> A   1     -25.138 -13.191  49.405  0.00  0.00    -0.680 OA
ATOM     39  O4  <0> A   1     -23.330 -12.436  48.617  0.00  0.00    -0.712 OA
ENDBRANCH  36  37
ENDBRANCH  33  36
ENDBRANCH  32  33
ENDBRANCH  29  32
ENDBRANCH  28  29
ENDBRANCH  27  28
ENDBRANCH   6  27
TORSDOF 15
