REMARK VINA RESULT:      -7.0     20.794     24.294
REMARK  Name = CHEMBL85673
REMARK  13 active torsions:
REMARK  status: ('A' for Active; 'I' for Inactive)
REMARK    1  A    between atoms: C1_1  and  C2_2
REMARK    2  A    between atoms: C2_2  and  C3_3
REMARK    3  A    between atoms: C3_3  and  C4_4
REMARK    4  A    between atoms: C3_3  and  C5_5
REMARK    5  A    between atoms: C3_3  and  C6_6
REMARK    6  A    between atoms: C6_6  and  O2_8
REMARK    7  A    between atoms: O2_8  and  C7_9
REMARK    8  A    between atoms: C9_12  and  C25_35
REMARK    9  A    between atoms: C13_17  and  C18_24
REMARK   10  A    between atoms: C14_19  and  C17_23
REMARK   11  A    between atoms: C18_24  and  C19_25
REMARK   12  A    between atoms: C19_25  and  C20_26
REMARK   13  A    between atoms: C22_28  and  O5_34
REMARK                            x       y       z     vdW  Elec       q    Type
REMARK                         _______ _______ _______ _____ _____    ______ ____
ROOT
ATOM      1  C7  <0> A   1      -4.870   4.498  49.527  0.00  0.00    +0.177 C 
ATOM      2  C8  <0> A   1      -5.090   3.975  50.948  0.00  0.00    +0.007 C 
ATOM      3  C9  <0> A   1      -5.566   2.522  50.888  0.00  0.00    -0.016 C 
ATOM      4  C10 <0> A   1      -6.880   2.448  50.108  0.00  0.00    +0.019 C 
ATOM      5  C11 <0> A   1      -6.661   2.971  48.687  0.00  0.00    -0.005 C 
ATOM      6  C12 <0> A   1      -6.184   4.424  48.747  0.00  0.00    +0.013 C 
ATOM      7  C13 <0> A   1      -5.966   4.947  47.327  0.00  0.00    +0.001 C 
ATOM      8  C14 <0> A   1      -7.280   4.873  46.547  0.00  0.00    -0.013 C 
ATOM      9  C15 <0> A   1      -7.756   3.420  46.487  0.00  0.00    +0.011 C 
ATOM     10  C16 <0> A   1      -7.975   2.897  47.908  0.00  0.00    +0.016 C 
ATOM     11  C17 <0> A   1      -7.061   5.396  45.126  0.00  0.00    +0.019 C 
ATOM     12  C25 <0> A   1      -5.784   1.999  52.308  0.00  0.00    +0.021 C 
ENDROOT
BRANCH   1  13
ATOM     13  O2  <0> A   1      -4.425   5.855  49.582  0.00  0.00    -0.339 OA
BRANCH  13  14
ATOM     14  C6  <0> A   1      -3.127   6.061  49.852  0.00  0.00    +0.468 C 
ATOM     15  O1  <0> A   1      -2.278   5.582  49.137  0.00  0.00    -0.503 OA
BRANCH  14  16
ATOM     16  C3  <0> A   1      -2.727   6.886  51.048  0.00  0.00    -0.052 C 
ATOM     17  C4  <0> A   1      -2.054   5.987  52.087  0.00  0.00    +0.060 C 
ATOM     18  C5  <0> A   1      -3.972   7.531  51.662  0.00  0.00    +0.061 C 
BRANCH  16  20
ATOM     19  C1  <0> A   1      -2.489   9.009  49.752  0.00  0.00    +0.024 C 
ATOM     20  C2  <0> A   1      -1.751   7.980  50.610  0.00  0.00    +0.036 C 
ENDBRANCH  16  20
ENDBRANCH  14  16
ENDBRANCH  13  14
ENDBRANCH   1  13
BRANCH   7  21
ATOM     21  C18 <0> A   1      -4.908   4.093  46.626  0.00  0.00    +0.018 C 
BRANCH  21  22
ATOM     22  C19 <0> A   1      -3.729   4.977  46.213  0.00  0.00    +0.046 C 
BRANCH  22  23
ATOM     23  C20 <0> A   1      -2.906   4.262  45.140  0.00  0.00    +0.191 C 
ATOM     24  C21 <0> A   1      -3.638   2.994  44.695  0.00  0.00    +0.039 C 
ATOM     25  C22 <0> A   1      -2.792   2.259  43.650  0.00  0.00    +0.183 C 
ATOM     26  C23 <0> A   1      -1.436   1.900  44.272  0.00  0.00    +0.020 C 
ATOM     27  C24 <0> A   1      -0.844   3.156  44.874  0.00  0.00    +0.495 C 
ATOM     28  O3  <0> A   1       0.299   3.475  44.645  0.00  0.00    -0.454 OA
ATOM     29  O4  <0> A   1      -1.626   3.907  45.676  0.00  0.00    -0.366 OA
BRANCH  25  30
ATOM     30  O5  <0> A   1      -2.592   3.105  42.515  0.00  0.00    -0.563 OA
ATOM     31  H39 <0> A   1      -2.349   2.631  41.709  0.00  0.00    +0.386 HD
ENDBRANCH  25  30
ENDBRANCH  22  23
ENDBRANCH  21  22
ENDBRANCH   7  21
TORSDOF 8
