REMARK VINA RESULT:      -6.5     19.564     22.991
REMARK  Name = CHEMBL331610
REMARK  16 active torsions:
REMARK  status: ('A' for Active; 'I' for Inactive)
REMARK    1  A    between atoms: C1_1  and  C2_2
REMARK    2  A    between atoms: C2_2  and  C3_3
REMARK    3  A    between atoms: C3_3  and  C4_4
REMARK    4  A    between atoms: C3_3  and  C5_5
REMARK    5  A    between atoms: C3_3  and  C6_6
REMARK    6  A    between atoms: C6_6  and  O2_8
REMARK    7  A    between atoms: O2_8  and  C7_9
REMARK    8  A    between atoms: C8_11  and  C26_37
REMARK    9  A    between atoms: C9_13  and  C25_36
REMARK   10  A    between atoms: C13_18  and  C18_25
REMARK   11  A    between atoms: C14_20  and  C17_24
REMARK   12  A    between atoms: C18_25  and  C19_26
REMARK   13  A    between atoms: C19_26  and  C20_27
REMARK   14  A    between atoms: C22_29  and  O5_35
REMARK   15  A    between atoms: C26_37  and  C27_39
REMARK   16  A    between atoms: C26_37  and  O6_45
REMARK                            x       y       z     vdW  Elec       q    Type
REMARK                         _______ _______ _______ _____ _____    ______ ____
ROOT
ATOM      1  C7  <0> A   1     -29.878  -6.604  52.363  0.00  0.00    +0.201 C 
ATOM      2  C8  <0> A   1     -30.216  -7.643  51.297  0.00  0.00    -0.048 C 
ATOM      3  C9  <0> A   1     -31.114  -6.982  50.243  0.00  0.00    +0.033 C 
ATOM      4  C10 <0> A   1     -30.329  -5.861  49.612  0.00  0.00    -0.039 C 
ATOM      5  C11 <0> A   1     -29.448  -5.174  50.315  0.00  0.00    -0.069 C 
ATOM      6  C12 <0> A   1     -29.191  -5.395  51.774  0.00  0.00    +0.044 C 
ATOM      7  C13 <0> A   1     -27.676  -5.429  51.989  0.00  0.00    +0.011 C 
ATOM      8  C14 <0> A   1     -27.095  -4.071  51.590  0.00  0.00    +0.022 C 
ATOM      9  C15 <0> A   1     -27.578  -3.636  50.240  0.00  0.00    -0.017 C 
ATOM     10  C16 <0> A   1     -28.651  -4.119  49.648  0.00  0.00    -0.011 C 
ATOM     11  C17 <0> A   1     -25.569  -4.171  51.563  0.00  0.00    +0.029 C 
ATOM     12  C25 <0> A   1     -32.373  -6.424  50.911  0.00  0.00    +0.041 C 
ENDROOT
BRANCH   1  13
ATOM     13  O2  <0> A   1     -31.085  -6.185  53.003  0.00  0.00    -0.333 OA
BRANCH  13  14
ATOM     14  C6  <0> A   1     -31.098  -6.199  54.346  0.00  0.00    +0.464 C 
ATOM     15  O1  <0> A   1     -30.500  -5.352  54.965  0.00  0.00    -0.502 OA
BRANCH  14  16
ATOM     16  C3  <0> A   1     -31.860  -7.272  55.080  0.00  0.00    -0.052 C 
ATOM     17  C4  <0> A   1     -30.977  -8.512  55.232  0.00  0.00    +0.060 C 
ATOM     18  C5  <0> A   1     -33.118  -7.636  54.289  0.00  0.00    +0.060 C 
BRANCH  16  20
ATOM     19  C1  <0> A   1     -32.286  -7.924  57.454  0.00  0.00    +0.024 C 
ATOM     20  C2  <0> A   1     -32.259  -6.758  56.465  0.00  0.00    +0.036 C 
ENDBRANCH  16  20
ENDBRANCH  14  16
ENDBRANCH  13  14
ENDBRANCH   1  13
BRANCH   7  21
ATOM     21  C18 <0> A   1     -27.059  -6.529  51.124  0.00  0.00    +0.034 C 
BRANCH  21  22
ATOM     22  C19 <0> A   1     -25.783  -7.046  51.790  0.00  0.00    +0.053 C 
BRANCH  22  23
ATOM     23  C20 <0> A   1     -24.941  -7.805  50.761  0.00  0.00    +0.178 C 
ATOM     24  C21 <0> A   1     -25.327  -7.352  49.351  0.00  0.00    +0.033 C 
ATOM     25  C22 <0> A   1     -24.512  -8.144  48.323  0.00  0.00    +0.181 C 
ATOM     26  C23 <0> A   1     -24.807  -9.638  48.500  0.00  0.00    +0.007 C 
ATOM     27  C24 <0> A   1     -24.601  -9.993  49.957  0.00  0.00    +0.498 C 
ATOM     28  O3  <0> A   1     -23.936 -10.949  50.275  0.00  0.00    -0.454 OA
ATOM     29  O4  <0> A   1     -25.183  -9.210  50.889  0.00  0.00    -0.341 OA
BRANCH  25  30
ATOM     30  O5  <0> A   1     -23.118  -7.901  48.527  0.00  0.00    -0.563 OA
ATOM     31  H35 <0> A   1     -22.821  -7.033  48.220  0.00  0.00    +0.385 HD
ENDBRANCH  25  30
ENDBRANCH  22  23
ENDBRANCH  21  22
ENDBRANCH   7  21
BRANCH   2  32
ATOM     32  C26 <0> A   1     -28.929  -8.144  50.637  0.00  0.00    +0.279 C 
BRANCH  32  33
ATOM     33  C27 <0> A   1     -29.272  -8.937  49.404  0.00  0.00    -0.067 A 
ATOM     34  C28 <0> A   1     -28.380  -8.995  48.349  0.00  0.00    -0.003 A 
ATOM     35  C29 <0> A   1     -28.694  -9.723  47.216  0.00  0.00    +0.005 A 
ATOM     36  C30 <0> A   1     -29.901 -10.395  47.140  0.00  0.00    -0.009 A 
ATOM     37  C31 <0> A   1     -30.791 -10.338  48.195  0.00  0.00    -0.014 A 
ATOM     38  C32 <0> A   1     -30.476  -9.613  49.328  0.00  0.00    +0.014 A 
ENDBRANCH  32  33
BRANCH  32  39
ATOM     39  O6  <0> A   1     -28.215  -8.975  51.556  0.00  0.00    -0.535 OA
ATOM     40  H44 <0> A   1     -28.419  -9.916  51.474  0.00  0.00    +0.364 HD
ENDBRANCH  32  39
ENDBRANCH   2  32
TORSDOF 11
