REMARK VINA RESULT:      -8.0      6.052     11.098
REMARK  Name = CHEMBL481660
REMARK  17 active torsions:
REMARK  status: ('A' for Active; 'I' for Inactive)
REMARK    1  A    between atoms: C1_1  and  C2_2
REMARK    2  A    between atoms: C2_2  and  C3_3
REMARK    3  A    between atoms: C4_4  and  C18_25
REMARK    4  A    between atoms: N1_7  and  C7_8
REMARK    5  A    between atoms: C7_8  and  C8_9
REMARK    6  A    between atoms: C8_9  and  C9_10
REMARK    7  A    between atoms: C9_10  and  C10_12
REMARK    8  A    between atoms: C9_10  and  O4_20
REMARK    9  A    between atoms: C10_12  and  C11_13
REMARK   10  A    between atoms: C11_13  and  C12_15
REMARK   11  A    between atoms: C11_13  and  O3_19
REMARK   12  A    between atoms: C12_15  and  C13_16
REMARK   13  A    between atoms: N2_27  and  C19_28
REMARK   14  A    between atoms: C19_28  and  C20_30
REMARK   15  A    between atoms: C19_28  and  C21_32
REMARK   16  A    between atoms: C20_30  and  O6_31
REMARK   17  A    between atoms: C24_35  and  C27_38
REMARK                            x       y       z     vdW  Elec       q    Type
REMARK                         _______ _______ _______ _____ _____    ______ ____
ROOT
ATOM      1  C3  <0> A   1     -14.912   6.528  46.722  0.00  0.00    +0.080 C 
ATOM      2  C4  <0> A   1     -15.776   7.214  47.535  0.00  0.00    -0.221 C 
ATOM      3  C5  <0> A   1     -15.561   8.626  47.245  0.00  0.00    -0.129 C 
ATOM      4  C6  <0> A   1     -14.604   8.688  46.297  0.00  0.00    +0.020 C 
ATOM      5  N1  <0> A   1     -14.213   7.422  45.992  0.00  0.00    -0.424 N 
ATOM      6  C14 <0> A   1     -14.086   9.980  45.712  0.00  0.00    +0.100 C 
ATOM      7  C15 <0> A   1     -15.084  11.096  46.042  0.00  0.00    +0.024 C 
ATOM      8  C16 <0> A   1     -15.409  11.069  47.538  0.00  0.00    +0.012 C 
ATOM      9  C17 <0> A   1     -16.244   9.822  47.856  0.00  0.00    +0.089 C 
ENDROOT
BRANCH   2  10
ATOM     10  C18 <0> A   1     -16.727   6.640  48.503  0.00  0.00    +0.606 C 
ATOM     11  O5  <0> A   1     -16.319   5.974  49.435  0.00  0.00    -0.542 OA
ATOM     12  N2  <0> A   1     -18.050   6.855  48.357  0.00  0.00    -0.713 N 
ATOM     13  H27 <0> A   1     -18.376   7.387  47.614  0.00  0.00    +0.404 HD
BRANCH  12  14
ATOM     14  C19 <0> A   1     -18.995   6.285  49.320  0.00  0.00    +0.297 C 
BRANCH  14  15
ATOM     15  C21 <0> A   1     -19.625   7.394  50.122  0.00  0.00    -0.085 A 
ATOM     16  C22 <0> A   1     -20.847   7.191  50.739  0.00  0.00    +0.044 A 
ATOM     17  C23 <0> A   1     -21.427   8.202  51.476  0.00  0.00    +0.016 A 
ATOM     18  C24 <0> A   1     -20.781   9.431  51.597  0.00  0.00    -0.044 A 
ATOM     19  C25 <0> A   1     -19.551   9.631  50.974  0.00  0.00    +0.015 A 
ATOM     20  C26 <0> A   1     -18.977   8.610  50.244  0.00  0.00    +0.019 A 
BRANCH  18  21
ATOM     21  C27 <0> A   1     -21.402  10.524  52.387  0.00  0.00    -0.044 A 
ATOM     22  C28 <0> A   1     -22.595  11.103  51.960  0.00  0.00    +0.015 A 
ATOM     23  C29 <0> A   1     -23.169  12.119  52.698  0.00  0.00    +0.007 A 
ATOM     24  C30 <0> A   1     -22.561  12.561  53.860  0.00  0.00    +0.002 A 
ATOM     25  C31 <0> A   1     -21.377  11.989  54.288  0.00  0.00    +0.005 A 
ATOM     26  C32 <0> A   1     -20.797  10.969  53.561  0.00  0.00    +0.013 A 
ENDBRANCH  18  21
ENDBRANCH  14  15
BRANCH  14  27
ATOM     27  C20 <0> A   1     -20.085   5.516  48.570  0.00  0.00    +0.179 C 
BRANCH  27  28
ATOM     28  O6  <0> A   1     -20.468   6.248  47.405  0.00  0.00    -0.564 OA
ATOM     29  H30 <0> A   1     -21.060   5.764  46.813  0.00  0.00    +0.379 HD
ENDBRANCH  27  28
ENDBRANCH  14  27
ENDBRANCH  12  14
ENDBRANCH   2  10
BRANCH   1  31
ATOM     30  C1  <0> A   1     -15.752   4.462  45.637  0.00  0.00    +0.030 C 
ATOM     31  C2  <0> A   1     -14.764   5.030  46.658  0.00  0.00    +0.097 C 
ENDBRANCH   1  31
BRANCH   5  32
ATOM     32  C7  <0> A   1     -13.184   7.077  45.009  0.00  0.00    +0.290 C 
BRANCH  32  33
ATOM     33  C8  <0> A   1     -13.810   7.022  43.613  0.00  0.00    -0.018 C 
BRANCH  33  34
ATOM     34  C9  <0> A   1     -12.742   7.334  42.563  0.00  0.00    +0.216 C 
BRANCH  34  35
ATOM     35  O4  <0> A   1     -12.009   6.145  42.262  0.00  0.00    -0.541 OA
ATOM     36  H18 <0> A   1     -12.202   5.403  42.852  0.00  0.00    +0.366 HD
ENDBRANCH  34  35
BRANCH  34  37
ATOM     37  C10 <0> A   1     -13.414   7.854  41.291  0.00  0.00    -0.048 C 
BRANCH  37  38
ATOM     38  C11 <0> A   1     -12.650   9.074  40.772  0.00  0.00    +0.231 C 
BRANCH  38  39
ATOM     39  O3  <0> A   1     -12.420   8.932  39.369  0.00  0.00    -0.528 OA
ATOM     40  H17 <0> A   1     -13.226   8.959  38.834  0.00  0.00    +0.350 HD
ENDBRANCH  38  39
BRANCH  38  41
ATOM     41  C12 <0> A   1     -13.473  10.338  41.030  0.00  0.00    -0.102 C 
BRANCH  41  42
ATOM     42  C13 <0> A   1     -13.441  11.215  39.805  0.00  0.00    +0.490 C 
ATOM     43  O1  <0> A   1     -14.414  11.279  39.075  0.00  0.00    -0.681 OA
ATOM     44  O2  <0> A   1     -12.439  11.862  39.544  0.00  0.00    -0.713 OA
ENDBRANCH  41  42
ENDBRANCH  38  41
ENDBRANCH  37  38
ENDBRANCH  34  37
ENDBRANCH  33  34
ENDBRANCH  32  33
ENDBRANCH   5  32
TORSDOF 16
