REMARK VINA RESULT:      -6.0     21.563     22.541
REMARK  Name = CHEMBL60053
REMARK  8 active torsions:
REMARK  status: ('A' for Active; 'I' for Inactive)
REMARK    1  A    between atoms: C4_4  and  C7_7
REMARK    2  A    between atoms: C7_7  and  C8_8
REMARK    3  A    between atoms: C8_8  and  C9_9
REMARK    4  A    between atoms: C9_9  and  C10_11
REMARK    5  A    between atoms: C10_11  and  C11_12
REMARK    6  A    between atoms: C11_12  and  C12_14
REMARK    7  A    between atoms: C11_12  and  O4_18
REMARK    8  A    between atoms: C12_14  and  C13_15
REMARK                            x       y       z     vdW  Elec       q    Type
REMARK                         _______ _______ _______ _____ _____    ______ ____
ROOT
ATOM      1  C9  <0> A   1     -27.656  23.800  35.701  0.00  0.00    +0.349 C 
ATOM      2  O1  <0> A   1     -27.225  24.765  36.284  0.00  0.00    -0.429 OA
ENDROOT
BRANCH   1   3
ATOM      3  C8  <0> A   1     -28.043  22.563  36.473  0.00  0.00    +0.026 C 
BRANCH   3   4
ATOM      4  C7  <0> A   1     -29.145  22.913  37.475  0.00  0.00    +0.083 C 
BRANCH   4   8
ATOM      5  C1  <0> A   1     -32.632  20.601  36.614  0.00  0.00    -0.010 A 
ATOM      6  C2  <0> A   1     -32.021  21.330  35.611  0.00  0.00    +0.001 A 
ATOM      7  C3  <0> A   1     -30.893  22.078  35.890  0.00  0.00    +0.004 A 
ATOM      8  C4  <0> A   1     -30.376  22.098  37.171  0.00  0.00    -0.077 A 
ATOM      9  C5  <0> A   1     -30.988  21.369  38.175  0.00  0.00    +0.004 A 
ATOM     10  C6  <0> A   1     -32.115  20.620  37.896  0.00  0.00    +0.001 A 
ENDBRANCH   4   8
ENDBRANCH   3   4
ENDBRANCH   1   3
BRANCH   1  11
ATOM     11  C10 <0> A   1     -27.806  23.828  34.202  0.00  0.00    -0.015 C 
BRANCH  11  12
ATOM     12  C11 <0> A   1     -26.510  24.342  33.570  0.00  0.00    +0.240 C 
BRANCH  12  13
ATOM     13  O4  <0> A   1     -25.400  23.961  34.384  0.00  0.00    -0.532 OA
ATOM     14  H15 <0> A   1     -24.555  24.333  34.097  0.00  0.00    +0.351 HD
ENDBRANCH  12  13
BRANCH  12  15
ATOM     15  C12 <0> A   1     -26.350  23.738  32.173  0.00  0.00    -0.096 C 
BRANCH  15  16
ATOM     16  C13 <0> A   1     -25.291  24.498  31.416  0.00  0.00    +0.490 C 
ATOM     17  O2  <0> A   1     -25.445  24.744  30.232  0.00  0.00    -0.679 OA
ATOM     18  O3  <0> A   1     -24.281  24.868  31.990  0.00  0.00    -0.712 OA
ENDBRANCH  15  16
ENDBRANCH  12  15
ENDBRANCH  11  12
ENDBRANCH   1  11
TORSDOF 8
