REMARK VINA RESULT:      -7.2     16.784     20.553
REMARK  Name = CHEMBL562679
REMARK  15 active torsions:
REMARK  status: ('A' for Active; 'I' for Inactive)
REMARK    1  A    between atoms: C1_1  and  C2_2
REMARK    2  A    between atoms: C2_2  and  C3_3
REMARK    3  A    between atoms: C3_3  and  C4_4
REMARK    4  A    between atoms: C3_3  and  C6_6
REMARK    5  A    between atoms: C3_3  and  C12_12
REMARK    6  A    between atoms: C4_4  and  C5_5
REMARK    7  A    between atoms: C15_15  and  C24_25
REMARK    8  A    between atoms: C16_16  and  C18_18
REMARK    9  A    between atoms: C25_26  and  C26_27
REMARK   10  A    between atoms: C26_27  and  C27_29
REMARK   11  A    between atoms: C26_27  and  O4_37
REMARK   12  A    between atoms: C27_29  and  C28_30
REMARK   13  A    between atoms: C28_30  and  C29_32
REMARK   14  A    between atoms: C28_30  and  O3_36
REMARK   15  A    between atoms: C29_32  and  C30_33
REMARK                            x       y       z     vdW  Elec       q    Type
REMARK                         _______ _______ _______ _____ _____    ______ ____
ROOT
ATOM      1  C12 <0> A   1     -12.783   9.997  47.533  0.00  0.00    -0.073 A 
ATOM      2  C13 <0> A   1     -11.742  10.440  46.735  0.00  0.00    +0.022 A 
ATOM      3  C14 <0> A   1     -11.393   9.747  45.594  0.00  0.00    +0.010 A 
ATOM      4  C15 <0> A   1     -12.092   8.592  45.241  0.00  0.00    -0.030 A 
ATOM      5  C16 <0> A   1     -13.148   8.143  46.052  0.00  0.00    -0.047 A 
ATOM      6  C17 <0> A   1     -13.482   8.854  47.202  0.00  0.00    +0.035 A 
ENDROOT
BRANCH   5   7
ATOM      7  C18 <0> A   1     -13.899   6.919  45.689  0.00  0.00    -0.051 A 
ATOM      8  C19 <0> A   1     -14.968   6.993  44.796  0.00  0.00    +0.060 A 
ATOM      9  C20 <0> A   1     -15.664   5.850  44.460  0.00  0.00    -0.009 A 
ATOM     10  C21 <0> A   1     -15.303   4.631  45.009  0.00  0.00    +0.100 A 
ATOM     11  C22 <0> A   1     -14.241   4.551  45.896  0.00  0.00    -0.016 A 
ATOM     12  C23 <0> A   1     -13.535   5.687  46.233  0.00  0.00    +0.052 A 
ATOM     13  F1  <0> A   1     -15.988   3.513  44.677  0.00  0.00    -0.140 F 
ENDBRANCH   5   7
BRANCH   4  14
ATOM     14  C24 <0> A   1     -11.723   7.846  44.021  0.00  0.00    -0.002 C 
ATOM     15  C25 <0> A   1     -12.098   8.295  42.830  0.00  0.00    -0.047 C 
BRANCH  15  16
ATOM     16  C26 <0> A   1     -11.722   7.533  41.585  0.00  0.00    +0.249 C 
BRANCH  16  17
ATOM     17  O4  <0> A   1     -11.579   6.147  41.900  0.00  0.00    -0.536 OA
ATOM     18  H32 <0> A   1     -11.845   5.918  42.801  0.00  0.00    +0.364 HD
ENDBRANCH  16  17
BRANCH  16  19
ATOM     19  C27 <0> A   1     -12.815   7.707  40.530  0.00  0.00    -0.041 C 
BRANCH  19  20
ATOM     20  C28 <0> A   1     -12.669   9.078  39.866  0.00  0.00    +0.231 C 
BRANCH  20  21
ATOM     21  O3  <0> A   1     -12.273   8.908  38.505  0.00  0.00    -0.528 OA
ATOM     22  H31 <0> A   1     -11.600   8.226  38.373  0.00  0.00    +0.350 HD
ENDBRANCH  20  21
BRANCH  20  23
ATOM     23  C29 <0> A   1     -14.010   9.815  39.920  0.00  0.00    -0.101 C 
BRANCH  23  24
ATOM     24  C30 <0> A   1     -13.784  11.284  39.673  0.00  0.00    +0.490 C 
ATOM     25  O1  <0> A   1     -12.936  11.646  38.876  0.00  0.00    -0.681 OA
ATOM     26  O2  <0> A   1     -14.449  12.113  40.272  0.00  0.00    -0.713 OA
ENDBRANCH  23  24
ENDBRANCH  20  23
ENDBRANCH  19  20
ENDBRANCH  16  19
ENDBRANCH  15  16
ENDBRANCH   4  14
BRANCH   1  27
ATOM     27  C3  <0> A   1     -13.153  10.765  48.777  0.00  0.00    +0.023 C 
BRANCH  27  28
ATOM     28  C6  <0> A   1     -11.928  10.957  49.633  0.00  0.00    -0.055 A 
ATOM     29  C7  <0> A   1     -11.403  12.222  49.816  0.00  0.00    +0.009 A 
ATOM     30  C8  <0> A   1     -10.279  12.398  50.601  0.00  0.00    +0.002 A 
ATOM     31  C9  <0> A   1      -9.681  11.307  51.204  0.00  0.00    -0.009 A 
ATOM     32  C10 <0> A   1     -10.206  10.042  51.022  0.00  0.00    -0.001 A 
ATOM     33  C11 <0> A   1     -11.332   9.867  50.240  0.00  0.00    +0.003 A 
ENDBRANCH  27  28
BRANCH  27  35
ATOM     34  C1  <0> A   1     -14.620  10.787  50.799  0.00  0.00    +0.013 C 
ATOM     35  C2  <0> A   1     -14.208   9.984  49.563  0.00  0.00    +0.025 C 
ENDBRANCH  27  35
BRANCH  27  36
ATOM     36  C4  <0> A   1     -13.720  12.131  48.383  0.00  0.00    +0.029 C 
ATOM     37  C5  <0> A   1     -14.866  11.940  47.388  0.00  0.00    +0.012 C 
ENDBRANCH  27  36
ENDBRANCH   1  27
TORSDOF 13
