REMARK VINA RESULT:      -7.4      3.643      9.793
REMARK  Name = CHEMBL398551
REMARK  19 active torsions:
REMARK  status: ('A' for Active; 'I' for Inactive)
REMARK    1  A    between atoms: C1_1  and  C2_2
REMARK    2  A    between atoms: C4_4  and  C6_8
REMARK    3  A    between atoms: N2_6  and  C5_7
REMARK    4  A    between atoms: C6_8  and  N3_9
REMARK    5  A    between atoms: C7_10  and  C8_12
REMARK    6  A    between atoms: C9_13  and  C28_40
REMARK    7  A    between atoms: C10_14  and  C22_33
REMARK    8  A    between atoms: C11_15  and  C15_20
REMARK    9  A    between atoms: N4_16  and  C12_17
REMARK   10  A    between atoms: C12_17  and  C13_18
REMARK   11  A    between atoms: C12_17  and  C14_19
REMARK   12  A    between atoms: C15_20  and  C16_21
REMARK   13  A    between atoms: C16_21  and  C17_22
REMARK   14  A    between atoms: C17_22  and  C18_24
REMARK   15  A    between atoms: C17_22  and  O5_32
REMARK   16  A    between atoms: C18_24  and  C19_25
REMARK   17  A    between atoms: C19_25  and  C20_27
REMARK   18  A    between atoms: C19_25  and  O4_31
REMARK   19  A    between atoms: C20_27  and  C21_28
REMARK                            x       y       z     vdW  Elec       q    Type
REMARK                         _______ _______ _______ _____ _____    ______ ____
ROOT
ATOM      1  C8  <0> A   1     -14.817   8.616  47.070  0.00  0.00    -0.029 C 
ATOM      2  C9  <0> A   1     -15.655   7.507  47.066  0.00  0.00    -0.059 C 
ATOM      3  C10 <0> A   1     -16.665   7.757  48.031  0.00  0.00    -0.123 C 
ATOM      4  C11 <0> A   1     -16.414   8.980  48.578  0.00  0.00    +0.072 C 
ATOM      5  N4  <0> A   1     -15.301   9.500  48.008  0.00  0.00    -0.403 N 
ENDROOT
BRANCH   3   6
ATOM      6  C22 <0> A   1     -17.787   6.853  48.381  0.00  0.00    -0.009 A 
ATOM      7  C23 <0> A   1     -19.060   7.085  47.863  0.00  0.00    +0.053 A 
ATOM      8  C24 <0> A   1     -20.101   6.241  48.192  0.00  0.00    -0.013 A 
ATOM      9  C25 <0> A   1     -19.883   5.163  49.034  0.00  0.00    +0.094 A 
ATOM     10  C26 <0> A   1     -18.619   4.927  49.551  0.00  0.00    -0.020 A 
ATOM     11  C27 <0> A   1     -17.570   5.763  49.224  0.00  0.00    +0.054 A 
ATOM     12  F1  <0> A   1     -20.905   4.340  49.353  0.00  0.00    -0.142 F 
ENDBRANCH   3   6
BRANCH   2  13
ATOM     13  C28 <0> A   1     -15.520   6.300  46.221  0.00  0.00    -0.009 A 
ATOM     14  C29 <0> A   1     -14.566   5.331  46.531  0.00  0.00    +0.027 A 
ATOM     15  C30 <0> A   1     -14.445   4.207  45.739  0.00  0.00    +0.003 A 
ATOM     16  C31 <0> A   1     -15.267   4.041  44.640  0.00  0.00    -0.003 A 
ATOM     17  C32 <0> A   1     -16.215   4.997  44.326  0.00  0.00    -0.001 A 
ATOM     18  C33 <0> A   1     -16.350   6.122  45.114  0.00  0.00    +0.009 A 
ENDBRANCH   2  13
BRANCH   1  20
ATOM     19  N3  <0> A   1     -13.713   9.543  45.107  0.00  0.00    -0.715 N 
ATOM     20  C7  <0> A   1     -13.631   8.806  46.233  0.00  0.00    +0.605 C 
ATOM     21  O1  <0> A   1     -12.573   8.300  46.554  0.00  0.00    -0.517 OA
ATOM     22  H12 <0> A   1     -14.571   9.888  44.815  0.00  0.00    +0.404 HD
BRANCH  19  23
ATOM     23  C6  <0> A   1     -12.506   9.821  44.326  0.00  0.00    +0.381 C 
BRANCH  23  27
ATOM     24  C1  <0> A   1     -14.650  11.246  39.931  0.00  0.00    +0.146 C 
ATOM     25  C2  <0> A   1     -13.806  10.526  40.950  0.00  0.00    +0.083 C 
ATOM     26  C3  <0> A   1     -13.768  10.781  42.279  0.00  0.00    -0.107 C 
ATOM     27  C4  <0> A   1     -12.860   9.891  42.862  0.00  0.00    +0.055 C 
ATOM     28  N1  <0> A   1     -12.372   9.128  41.917  0.00  0.00    -0.276 NA
ATOM     29  N2  <0> A   1     -12.957   9.506  40.702  0.00  0.00    -0.368 N 
ATOM     30  C5  <0> A   1     -12.693   8.904  39.394  0.00  0.00    +0.354 C 
ENDBRANCH  23  27
ENDBRANCH  19  23
ENDBRANCH   1  20
BRANCH   5  31
ATOM     31  C12 <0> A   1     -14.707  10.798  48.335  0.00  0.00    +0.229 C 
ATOM     32  C13 <0> A   1     -15.795  11.875  48.321  0.00  0.00    +0.042 C 
ATOM     33  C14 <0> A   1     -14.070  10.734  49.724  0.00  0.00    +0.046 C 
ENDBRANCH   5  31
BRANCH   4  34
ATOM     34  C15 <0> A   1     -17.240   9.645  49.648  0.00  0.00    +0.118 C 
BRANCH  34  35
ATOM     35  C16 <0> A   1     -17.072   8.886  50.967  0.00  0.00    -0.009 C 
BRANCH  35  36
ATOM     36  C17 <0> A   1     -18.421   8.810  51.687  0.00  0.00    +0.212 C 
BRANCH  36  37
ATOM     37  O5  <0> A   1     -18.360   9.576  52.892  0.00  0.00    -0.542 OA
ATOM     38  H29 <0> A   1     -19.171  10.064  53.089  0.00  0.00    +0.363 HD
ENDBRANCH  36  37
BRANCH  36  39
ATOM     39  C18 <0> A   1     -19.516   9.372  50.780  0.00  0.00    -0.051 C 
BRANCH  39  40
ATOM     40  C19 <0> A   1     -20.880   8.867  51.255  0.00  0.00    +0.230 C 
BRANCH  40  41
ATOM     41  O4  <0> A   1     -21.819   8.953  50.182  0.00  0.00    -0.528 OA
ATOM     42  H28 <0> A   1     -22.085   9.857  49.963  0.00  0.00    +0.349 HD
ENDBRANCH  40  41
BRANCH  40  43
ATOM     43  C20 <0> A   1     -20.755   7.411  51.708  0.00  0.00    -0.103 C 
BRANCH  43  44
ATOM     44  C21 <0> A   1     -22.129   6.845  51.962  0.00  0.00    +0.490 C 
ATOM     45  O2  <0> A   1     -22.380   5.692  51.654  0.00  0.00    -0.681 OA
ATOM     46  O3  <0> A   1     -22.990   7.540  52.475  0.00  0.00    -0.713 OA
ENDBRANCH  43  44
ENDBRANCH  40  43
ENDBRANCH  39  40
ENDBRANCH  36  39
ENDBRANCH  35  36
ENDBRANCH  34  35
ENDBRANCH   4  34
TORSDOF 15
