REMARK VINA RESULT:      -7.6     14.333     18.853
REMARK  Name = CHEMBL249273
REMARK  18 active torsions:
REMARK  status: ('A' for Active; 'I' for Inactive)
REMARK    1  A    between atoms: C1_1  and  C2_2
REMARK    2  A    between atoms: C4_5  and  C5_8
REMARK    3  A    between atoms: C5_8  and  N3_9
REMARK    4  A    between atoms: C6_10  and  C7_12
REMARK    5  A    between atoms: C8_13  and  C27_40
REMARK    6  A    between atoms: C9_14  and  C21_33
REMARK    7  A    between atoms: C10_15  and  C14_20
REMARK    8  A    between atoms: N4_16  and  C11_17
REMARK    9  A    between atoms: C11_17  and  C12_18
REMARK   10  A    between atoms: C11_17  and  C13_19
REMARK   11  A    between atoms: C14_20  and  C15_21
REMARK   12  A    between atoms: C15_21  and  C16_22
REMARK   13  A    between atoms: C16_22  and  C17_24
REMARK   14  A    between atoms: C16_22  and  O5_32
REMARK   15  A    between atoms: C17_24  and  C18_25
REMARK   16  A    between atoms: C18_25  and  C19_27
REMARK   17  A    between atoms: C18_25  and  O4_31
REMARK   18  A    between atoms: C19_27  and  C20_28
REMARK                            x       y       z     vdW  Elec       q    Type
REMARK                         _______ _______ _______ _____ _____    ______ ____
ROOT
ATOM      1  C7  <0> A   1     -25.089  -2.511  51.959  0.00  0.00    -0.057 C 
ATOM      2  C8  <0> A   1     -26.391  -2.976  52.095  0.00  0.00    -0.041 C 
ATOM      3  C9  <0> A   1     -26.340  -4.383  51.924  0.00  0.00    -0.116 C 
ATOM      4  C10 <0> A   1     -25.039  -4.721  51.695  0.00  0.00    +0.087 C 
ATOM      5  N4  <0> A   1     -24.282  -3.598  51.709  0.00  0.00    -0.404 N 
ENDROOT
BRANCH   3   6
ATOM      6  C21 <0> A   1     -27.491  -5.318  51.984  0.00  0.00    -0.022 A 
ATOM      7  C22 <0> A   1     -27.805  -5.964  53.177  0.00  0.00    +0.056 A 
ATOM      8  C23 <0> A   1     -28.877  -6.831  53.228  0.00  0.00    -0.009 A 
ATOM      9  C24 <0> A   1     -29.641  -7.060  52.094  0.00  0.00    +0.102 A 
ATOM     10  C25 <0> A   1     -29.332  -6.419  50.905  0.00  0.00    -0.019 A 
ATOM     11  C26 <0> A   1     -28.266  -5.546  50.847  0.00  0.00    +0.053 A 
ATOM     12  F1  <0> A   1     -30.689  -7.911  52.148  0.00  0.00    -0.138 F 
ENDBRANCH   3   6
BRANCH   2  13
ATOM     13  C27 <0> A   1     -27.597  -2.162  52.366  0.00  0.00    -0.017 A 
ATOM     14  C28 <0> A   1     -28.471  -1.837  51.328  0.00  0.00    +0.034 A 
ATOM     15  C29 <0> A   1     -29.593  -1.077  51.587  0.00  0.00    +0.014 A 
ATOM     16  C30 <0> A   1     -29.853  -0.637  52.874  0.00  0.00    +0.006 A 
ATOM     17  C31 <0> A   1     -28.990  -0.956  53.906  0.00  0.00    -0.004 A 
ATOM     18  C32 <0> A   1     -27.867  -1.719  53.661  0.00  0.00    -0.005 A 
ENDBRANCH   2  13
BRANCH   1  20
ATOM     19  N3  <0> A   1     -24.816  -0.285  51.009  0.00  0.00    -0.742 N 
ATOM     20  C6  <0> A   1     -24.655  -1.117  52.058  0.00  0.00    +0.622 C 
ATOM     21  O1  <0> A   1     -24.148  -0.708  53.086  0.00  0.00    -0.488 OA
ATOM     22  H10 <0> A   1     -25.153  -0.627  50.167  0.00  0.00    +0.400 HD
BRANCH  19  23
ATOM     23  C5  <0> A   1     -24.482   1.136  51.144  0.00  0.00    +0.439 C 
BRANCH  23  28
ATOM     24  C1  <0> A   1     -29.270   2.692  51.691  0.00  0.00    +0.208 C 
ATOM     25  C2  <0> A   1     -27.774   2.568  51.825  0.00  0.00    +0.074 C 
ATOM     26  C3  <0> A   1     -26.971   3.327  52.594  0.00  0.00    +0.233 C 
ATOM     27  N1  <0> A   1     -25.711   2.896  52.431  0.00  0.00    -0.470 N 
ATOM     28  C4  <0> A   1     -25.703   1.898  51.591  0.00  0.00    +0.311 C 
ATOM     29  N2  <0> A   1     -26.971   1.657  51.194  0.00  0.00    -0.499 N 
ATOM     30  H1  <0> A   1     -27.258   0.969  50.573  0.00  0.00    +0.466 HD
ATOM     31  H37 <0> A   1     -24.930   3.268  52.869  0.00  0.00    +0.461 HD
ENDBRANCH  23  28
ENDBRANCH  19  23
ENDBRANCH   1  20
BRANCH   5  32
ATOM     32  C11 <0> A   1     -22.834  -3.548  51.496  0.00  0.00    +0.233 C 
ATOM     33  C12 <0> A   1     -22.508  -2.475  50.455  0.00  0.00    +0.036 C 
ATOM     34  C13 <0> A   1     -22.135  -3.210  52.814  0.00  0.00    +0.048 C 
ENDBRANCH   5  32
BRANCH   4  35
ATOM     35  C14 <0> A   1     -24.527  -6.118  51.458  0.00  0.00    +0.120 C 
BRANCH  35  36
ATOM     36  C15 <0> A   1     -24.734  -6.493  49.989  0.00  0.00    -0.009 C 
BRANCH  36  37
ATOM     37  C16 <0> A   1     -25.022  -7.993  49.881  0.00  0.00    +0.214 C 
BRANCH  37  38
ATOM     38  O5  <0> A   1     -25.613  -8.274  48.610  0.00  0.00    -0.541 OA
ATOM     39  H27 <0> A   1     -26.504  -7.915  48.502  0.00  0.00    +0.362 HD
ENDBRANCH  37  38
BRANCH  37  40
ATOM     40  C17 <0> A   1     -23.715  -8.774  50.020  0.00  0.00    -0.051 C 
BRANCH  40  41
ATOM     41  C18 <0> A   1     -24.023 -10.216  50.428  0.00  0.00    +0.231 C 
BRANCH  41  42
ATOM     42  O4  <0> A   1     -25.430 -10.364  50.627  0.00  0.00    -0.528 OA
ATOM     43  H26 <0> A   1     -25.667 -11.063  51.253  0.00  0.00    +0.349 HD
ENDBRANCH  41  42
BRANCH  41  44
ATOM     44  C19 <0> A   1     -23.561 -11.169  49.324  0.00  0.00    -0.103 C 
BRANCH  44  45
ATOM     45  C20 <0> A   1     -24.757 -11.870  48.733  0.00  0.00    +0.490 C 
ATOM     46  O2  <0> A   1     -25.025 -13.011  49.073  0.00  0.00    -0.681 OA
ATOM     47  O3  <0> A   1     -25.457 -11.297  47.916  0.00  0.00    -0.711 OA
ENDBRANCH  44  45
ENDBRANCH  41  44
ENDBRANCH  40  41
ENDBRANCH  37  40
ENDBRANCH  36  37
ENDBRANCH  35  36
ENDBRANCH   4  35
TORSDOF 15
