REMARK VINA RESULT:      -8.2      0.676      1.127
REMARK  Name = CHEMBL471744
REMARK  17 active torsions:
REMARK  status: ('A' for Active; 'I' for Inactive)
REMARK    1  A    between atoms: C1_1  and  C2_2
REMARK    2  A    between atoms: C2_2  and  C3_3
REMARK    3  A    between atoms: C4_4  and  C23_31
REMARK    4  A    between atoms: C5_5  and  C20_28
REMARK    5  A    between atoms: C6_6  and  C14_21
REMARK    6  A    between atoms: N1_7  and  C7_8
REMARK    7  A    between atoms: C7_8  and  C8_9
REMARK    8  A    between atoms: C8_9  and  C9_10
REMARK    9  A    between atoms: C9_10  and  C10_12
REMARK   10  A    between atoms: C9_10  and  O4_20
REMARK   11  A    between atoms: C10_12  and  C11_13
REMARK   12  A    between atoms: C11_13  and  C12_15
REMARK   13  A    between atoms: C11_13  and  O3_19
REMARK   14  A    between atoms: C12_15  and  C13_16
REMARK   15  A    between atoms: C20_28  and  C21_29
REMARK   16  A    between atoms: C20_28  and  C22_30
REMARK   17  A    between atoms: N2_33  and  C24_34
REMARK                            x       y       z     vdW  Elec       q    Type
REMARK                         _______ _______ _______ _____ _____    ______ ____
ROOT
ATOM      1  C3  <0> A   1     -15.219   6.756  45.796  0.00  0.00    +0.089 C 
ATOM      2  C4  <0> A   1     -16.084   7.307  46.717  0.00  0.00    -0.221 C 
ATOM      3  C5  <0> A   1     -15.652   8.640  46.944  0.00  0.00    -0.086 C 
ATOM      4  C6  <0> A   1     -14.559   8.842  46.164  0.00  0.00    +0.043 C 
ATOM      5  N1  <0> A   1     -14.298   7.686  45.471  0.00  0.00    -0.413 N 
ENDROOT
BRANCH   4   6
ATOM      6  C14 <0> A   1     -13.777  10.095  46.080  0.00  0.00    -0.023 A 
ATOM      7  C15 <0> A   1     -14.055  11.027  45.079  0.00  0.00    +0.065 A 
ATOM      8  C16 <0> A   1     -13.323  12.194  45.004  0.00  0.00    -0.009 A 
ATOM      9  C17 <0> A   1     -12.313  12.441  45.921  0.00  0.00    +0.102 A 
ATOM     10  C18 <0> A   1     -12.033  11.518  46.915  0.00  0.00    -0.006 A 
ATOM     11  C19 <0> A   1     -12.763  10.351  47.003  0.00  0.00    +0.046 A 
ATOM     12  F1  <0> A   1     -11.599  13.585  45.843  0.00  0.00    -0.138 F 
ENDBRANCH   4   6
BRANCH   2  13
ATOM     13  C23 <0> A   1     -17.237   6.641  47.345  0.00  0.00    +0.606 C 
ATOM     14  O5  <0> A   1     -18.275   6.507  46.725  0.00  0.00    -0.512 OA
ATOM     15  N2  <0> A   1     -17.142   6.179  48.607  0.00  0.00    -0.671 N 
ATOM     16  H29 <0> A   1     -16.293   6.217  49.076  0.00  0.00    +0.411 HD
BRANCH  15  17
ATOM     17  C24 <0> A   1     -18.268   5.646  49.244  0.00  0.00    +0.151 A 
ATOM     18  C25 <0> A   1     -19.274   6.488  49.702  0.00  0.00    -0.024 A 
ATOM     19  C26 <0> A   1     -20.383   5.957  50.330  0.00  0.00    +0.024 A 
ATOM     20  C27 <0> A   1     -20.493   4.590  50.505  0.00  0.00    -0.018 A 
ATOM     21  C28 <0> A   1     -19.493   3.749  50.052  0.00  0.00    +0.024 A 
ATOM     22  C29 <0> A   1     -18.384   4.272  49.416  0.00  0.00    +0.011 A 
ENDBRANCH  15  17
ENDBRANCH   2  13
BRANCH   3  23
ATOM     23  C20 <0> A   1     -16.286   9.642  47.873  0.00  0.00    +0.048 C 
ATOM     24  C21 <0> A   1     -15.396   9.829  49.104  0.00  0.00    +0.021 C 
ATOM     25  C22 <0> A   1     -16.443  10.981  47.150  0.00  0.00    +0.024 C 
ENDBRANCH   3  23
BRANCH   1  27
ATOM     26  C1  <0> A   1     -16.273   5.305  44.083  0.00  0.00    +0.035 C 
ATOM     27  C2  <0> A   1     -15.287   5.352  45.252  0.00  0.00    +0.099 C 
ENDBRANCH   1  27
BRANCH   5  28
ATOM     28  C7  <0> A   1     -13.195   7.494  44.526  0.00  0.00    +0.293 C 
BRANCH  28  29
ATOM     29  C8  <0> A   1     -13.703   7.713  43.100  0.00  0.00    -0.014 C 
BRANCH  29  30
ATOM     30  C9  <0> A   1     -12.531   7.618  42.121  0.00  0.00    +0.217 C 
BRANCH  30  31
ATOM     31  O4  <0> A   1     -11.932   6.324  42.219  0.00  0.00    -0.541 OA
ATOM     32  H17 <0> A   1     -11.803   5.885  41.367  0.00  0.00    +0.366 HD
ENDBRANCH  30  31
BRANCH  30  33
ATOM     33  C10 <0> A   1     -13.037   7.838  40.695  0.00  0.00    -0.048 C 
BRANCH  33  34
ATOM     34  C11 <0> A   1     -12.318   9.039  40.078  0.00  0.00    +0.231 C 
BRANCH  34  35
ATOM     35  O3  <0> A   1     -12.445   8.992  38.656  0.00  0.00    -0.528 OA
ATOM     36  H16 <0> A   1     -12.888   9.762  38.274  0.00  0.00    +0.350 HD
ENDBRANCH  34  35
BRANCH  34  37
ATOM     37  C12 <0> A   1     -12.944  10.334  40.603  0.00  0.00    -0.102 C 
BRANCH  37  38
ATOM     38  C13 <0> A   1     -13.303  11.224  39.441  0.00  0.00    +0.490 C 
ATOM     39  O1  <0> A   1     -12.438  11.878  38.884  0.00  0.00    -0.681 OA
ATOM     40  O2  <0> A   1     -14.459  11.289  39.058  0.00  0.00    -0.712 OA
ENDBRANCH  37  38
ENDBRANCH  34  37
ENDBRANCH  33  34
ENDBRANCH  30  33
ENDBRANCH  29  30
ENDBRANCH  28  29
ENDBRANCH   5  28
TORSDOF 14
