REMARK VINA RESULT:      -7.5      3.090      5.491
REMARK  Name = CHEMBL429487
REMARK  16 active torsions:
REMARK  status: ('A' for Active; 'I' for Inactive)
REMARK    1  A    between atoms: C1_1  and  C2_2
REMARK    2  A    between atoms: C2_2  and  C3_3
REMARK    3  A    between atoms: C2_2  and  C4_4
REMARK    4  A    between atoms: C5_5  and  S1_35
REMARK    5  A    between atoms: C6_6  and  C21_29
REMARK    6  A    between atoms: C7_7  and  C15_22
REMARK    7  A    between atoms: N1_8  and  C8_9
REMARK    8  A    between atoms: C8_9  and  C9_10
REMARK    9  A    between atoms: C9_10  and  C10_11
REMARK   10  A    between atoms: C10_11  and  C11_13
REMARK   11  A    between atoms: C10_11  and  O4_21
REMARK   12  A    between atoms: C11_13  and  C12_14
REMARK   13  A    between atoms: C12_14  and  C13_16
REMARK   14  A    between atoms: C12_14  and  O3_20
REMARK   15  A    between atoms: C13_16  and  C14_17
REMARK   16  A    between atoms: S1_35  and  N2_38
REMARK                            x       y       z     vdW  Elec       q    Type
REMARK                         _______ _______ _______ _____ _____    ______ ____
ROOT
ATOM      1  C4  <0> A   1     -12.874   9.886  46.765  0.00  0.00    +0.174 C 
ATOM      2  C5  <0> A   1     -13.688   9.865  47.838  0.00  0.00    -0.735 C 
ATOM      3  C6  <0> A   1     -14.481   8.697  47.753  0.00  0.00    -0.022 C 
ATOM      4  C7  <0> A   1     -14.102   8.039  46.596  0.00  0.00    +0.059 C 
ATOM      5  N1  <0> A   1     -13.121   8.786  45.999  0.00  0.00    -0.412 N 
ENDROOT
BRANCH   4   6
ATOM      6  C15 <0> A   1     -14.659   6.767  46.093  0.00  0.00    -0.027 A 
ATOM      7  C16 <0> A   1     -13.909   5.592  46.177  0.00  0.00    +0.045 A 
ATOM      8  C17 <0> A   1     -14.434   4.407  45.705  0.00  0.00    -0.008 A 
ATOM      9  C18 <0> A   1     -15.702   4.380  45.149  0.00  0.00    +0.105 A 
ATOM     10  C19 <0> A   1     -16.451   5.544  45.062  0.00  0.00    -0.008 A 
ATOM     11  C20 <0> A   1     -15.939   6.734  45.536  0.00  0.00    +0.075 A 
ATOM     12  F1  <0> A   1     -16.211   3.218  44.687  0.00  0.00    -0.137 F 
ENDBRANCH   4   6
BRANCH   3  13
ATOM     13  C21 <0> A   1     -15.518   8.261  48.718  0.00  0.00    -0.034 A 
ATOM     14  C22 <0> A   1     -15.213   7.312  49.693  0.00  0.00    +0.061 A 
ATOM     15  C23 <0> A   1     -16.182   6.910  50.589  0.00  0.00    -0.000 A 
ATOM     16  C24 <0> A   1     -17.456   7.448  50.521  0.00  0.00    +0.003 A 
ATOM     17  C25 <0> A   1     -17.764   8.389  49.556  0.00  0.00    -0.009 A 
ATOM     18  C26 <0> A   1     -16.801   8.803  48.659  0.00  0.00    +0.018 A 
ENDBRANCH   3  13
BRANCH   1  20
ATOM     19  C1  <0> A   1     -10.566  10.308  45.961  0.00  0.00    +0.040 C 
ATOM     20  C2  <0> A   1     -11.860  10.958  46.457  0.00  0.00    +0.059 C 
ATOM     21  C3  <0> A   1     -12.412  11.886  45.373  0.00  0.00    +0.039 C 
ENDBRANCH   1  20
BRANCH   2  22
ATOM     22  S1  <0> A   1     -13.752  11.076  49.118  0.00  0.00    +2.727 S 
ATOM     23  O5  <0> A   1     -14.297  12.252  48.536  0.00  0.00    -0.947 OA
ATOM     24  O6  <0> A   1     -14.340  10.442  50.247  0.00  0.00    -0.962 OA
BRANCH  22  25
ATOM     25  N2  <0> A   1     -12.191  11.433  49.534  0.00  0.00    -1.011 NA
ATOM     26  C27 <0> A   1     -11.197  10.473  50.036  0.00  0.00    +0.254 C 
ATOM     27  C28 <0> A   1      -9.899  11.260  50.312  0.00  0.00    +0.028 C 
ATOM     28  C29 <0> A   1     -10.404  12.716  50.486  0.00  0.00    +0.029 C 
ATOM     29  C30 <0> A   1     -11.564  12.766  49.457  0.00  0.00    +0.268 C 
ENDBRANCH  22  25
ENDBRANCH   2  22
BRANCH   5  30
ATOM     30  C8  <0> A   1     -12.442   8.453  44.743  0.00  0.00    +0.294 C 
BRANCH  30  31
ATOM     31  C9  <0> A   1     -13.449   8.498  43.593  0.00  0.00    -0.015 C 
BRANCH  31  32
ATOM     32  C10 <0> A   1     -13.092   7.426  42.561  0.00  0.00    +0.218 C 
BRANCH  32  33
ATOM     33  O4  <0> A   1     -14.266   6.686  42.215  0.00  0.00    -0.540 OA
ATOM     34  H19 <0> A   1     -14.328   6.465  41.276  0.00  0.00    +0.366 HD
ENDBRANCH  32  33
BRANCH  32  35
ATOM     35  C11 <0> A   1     -12.522   8.093  41.307  0.00  0.00    -0.047 C 
BRANCH  35  36
ATOM     36  C12 <0> A   1     -12.977   9.553  41.254  0.00  0.00    +0.232 C 
BRANCH  36  37
ATOM     37  O3  <0> A   1     -11.833  10.409  41.250  0.00  0.00    -0.528 OA
ATOM     38  H18 <0> A   1     -11.380  10.457  40.397  0.00  0.00    +0.350 HD
ENDBRANCH  36  37
BRANCH  36  39
ATOM     39  C13 <0> A   1     -13.794   9.786  39.982  0.00  0.00    -0.102 C 
BRANCH  39  40
ATOM     40  C14 <0> A   1     -13.925  11.267  39.735  0.00  0.00    +0.491 C 
ATOM     41  O1  <0> A   1     -13.321  11.787  38.812  0.00  0.00    -0.681 OA
ATOM     42  O2  <0> A   1     -14.635  11.945  40.458  0.00  0.00    -0.712 OA
ENDBRANCH  39  40
ENDBRANCH  36  39
ENDBRANCH  35  36
ENDBRANCH  32  35
ENDBRANCH  31  32
ENDBRANCH  30  31
ENDBRANCH   5  30
TORSDOF 14
