REMARK VINA RESULT:      -7.7      1.462      1.927
REMARK  Name = CHEMBL63265
REMARK  13 active torsions:
REMARK  status: ('A' for Active; 'I' for Inactive)
REMARK    1  A    between atoms: C1_1  and  C2_2
REMARK    2  A    between atoms: C2_2  and  C3_3
REMARK    3  A    between atoms: C2_2  and  C4_4
REMARK    4  A    between atoms: C5_5  and  C19_22
REMARK    5  A    between atoms: C6_6  and  C13_15
REMARK    6  A    between atoms: N1_7  and  C7_9
REMARK    7  A    between atoms: C20_23  and  C21_24
REMARK    8  A    between atoms: C21_24  and  C22_25
REMARK    9  A    between atoms: C21_24  and  O4_33
REMARK   10  A    between atoms: C22_25  and  C23_26
REMARK   11  A    between atoms: C23_26  and  C24_28
REMARK   12  A    between atoms: C23_26  and  O3_32
REMARK   13  A    between atoms: C24_28  and  C25_29
REMARK                            x       y       z     vdW  Elec       q    Type
REMARK                         _______ _______ _______ _____ _____    ______ ____
ROOT
ATOM      1  C4  <0> A   1     -15.139   6.209  45.537  0.00  0.00    +0.105 C 
ATOM      2  C5  <0> A   1     -14.539   7.477  45.416  0.00  0.00    -0.165 C 
ATOM      3  C6  <0> A   1     -14.818   8.178  46.585  0.00  0.00    +0.126 C 
ATOM      4  N1  <0> A   1     -15.562   7.350  47.376  0.00  0.00    -0.319 N 
ATOM      5  N2  <0> A   1     -15.744   6.142  46.693  0.00  0.00    -0.276 NA
ENDROOT
BRANCH   3   6
ATOM      6  C13 <0> A   1     -14.392   9.554  46.908  0.00  0.00    -0.049 A 
ATOM      7  C14 <0> A   1     -13.202   9.773  47.606  0.00  0.00    +0.090 A 
ATOM      8  C15 <0> A   1     -12.809  11.060  47.904  0.00  0.00    -0.006 A 
ATOM      9  C16 <0> A   1     -13.592  12.135  47.516  0.00  0.00    +0.113 A 
ATOM     10  C17 <0> A   1     -14.774  11.924  46.824  0.00  0.00    -0.013 A 
ATOM     11  C18 <0> A   1     -15.175  10.641  46.513  0.00  0.00    +0.062 A 
ATOM     12  F1  <0> A   1     -13.203  13.394  47.812  0.00  0.00    -0.135 F 
ENDBRANCH   3   6
BRANCH   4  13
ATOM     13  C7  <0> A   1     -16.059   7.657  48.649  0.00  0.00    +0.155 A 
ATOM     14  C8  <0> A   1     -15.347   7.284  49.782  0.00  0.00    +0.005 A 
ATOM     15  C9  <0> A   1     -15.840   7.589  51.036  0.00  0.00    +0.034 A 
ATOM     16  C10 <0> A   1     -17.040   8.263  51.164  0.00  0.00    +0.007 A 
ATOM     17  C11 <0> A   1     -17.751   8.635  50.038  0.00  0.00    +0.030 A 
ATOM     18  C12 <0> A   1     -17.261   8.339  48.781  0.00  0.00    +0.021 A 
ENDBRANCH   4  13
BRANCH   1  20
ATOM     19  C1  <0> A   1     -14.276   3.937  45.041  0.00  0.00    +0.036 C 
ATOM     20  C2  <0> A   1     -15.095   5.113  44.503  0.00  0.00    +0.079 C 
ATOM     21  C3  <0> A   1     -16.519   4.645  44.195  0.00  0.00    +0.036 C 
ENDBRANCH   1  20
BRANCH   2  22
ATOM     22  C19 <0> A   1     -13.759   7.971  44.264  0.00  0.00    +0.040 C 
ATOM     23  C20 <0> A   1     -12.567   7.452  43.997  0.00  0.00    -0.056 C 
BRANCH  23  24
ATOM     24  C21 <0> A   1     -11.772   7.957  42.822  0.00  0.00    +0.250 C 
BRANCH  24  25
ATOM     25  O4  <0> A   1     -10.964   6.898  42.303  0.00  0.00    -0.539 OA
ATOM     26  H26 <0> A   1     -10.140   6.757  42.789  0.00  0.00    +0.366 HD
ENDBRANCH  24  25
BRANCH  24  27
ATOM     27  C22 <0> A   1     -12.727   8.450  41.734  0.00  0.00    -0.042 C 
BRANCH  27  28
ATOM     28  C23 <0> A   1     -12.715   9.980  41.700  0.00  0.00    +0.230 C 
BRANCH  28  29
ATOM     29  O3  <0> A   1     -11.393  10.441  41.417  0.00  0.00    -0.528 OA
ATOM     30  H25 <0> A   1     -10.698   9.811  41.654  0.00  0.00    +0.350 HD
ENDBRANCH  28  29
BRANCH  28  31
ATOM     31  C24 <0> A   1     -13.671  10.473  40.612  0.00  0.00    -0.102 C 
BRANCH  31  32
ATOM     32  C25 <0> A   1     -12.881  10.872  39.392  0.00  0.00    +0.491 C 
ATOM     33  O1  <0> A   1     -12.537  12.032  39.241  0.00  0.00    -0.681 OA
ATOM     34  O2  <0> A   1     -12.586  10.035  38.556  0.00  0.00    -0.714 OA
ENDBRANCH  31  32
ENDBRANCH  28  31
ENDBRANCH  27  28
ENDBRANCH  24  27
ENDBRANCH  23  24
ENDBRANCH   2  22
TORSDOF 11
