REMARK VINA RESULT:      -8.3      0.000      0.000
REMARK  Name = CHEMBL121309
REMARK  13 active torsions:
REMARK  status: ('A' for Active; 'I' for Inactive)
REMARK    1  A    between atoms: C1_1  and  C2_2
REMARK    2  A    between atoms: C2_2  and  C3_3
REMARK    3  A    between atoms: C2_2  and  C4_4
REMARK    4  A    between atoms: C5_5  and  C19_22
REMARK    5  A    between atoms: N1_6  and  C13_15
REMARK    6  A    between atoms: C6_7  and  C7_9
REMARK    7  A    between atoms: C20_23  and  C21_24
REMARK    8  A    between atoms: C21_24  and  C22_26
REMARK    9  A    between atoms: C21_24  and  O4_34
REMARK   10  A    between atoms: C22_26  and  C23_27
REMARK   11  A    between atoms: C23_27  and  C24_29
REMARK   12  A    between atoms: C23_27  and  O3_33
REMARK   13  A    between atoms: C24_29  and  C25_30
REMARK                            x       y       z     vdW  Elec       q    Type
REMARK                         _______ _______ _______ _____ _____    ______ ____
ROOT
ATOM      1  C4  <0> A   1     -14.696   6.467  45.279  0.00  0.00    +0.037 C 
ATOM      2  C5  <0> A   1     -13.854   7.493  44.958  0.00  0.00    +0.029 C 
ATOM      3  N1  <0> A   1     -14.118   8.514  45.848  0.00  0.00    -0.406 N 
ATOM      4  C6  <0> A   1     -15.109   8.068  46.677  0.00  0.00    +0.248 C 
ATOM      5  N2  <0> A   1     -15.443   6.847  46.316  0.00  0.00    -0.456 NA
ENDROOT
BRANCH   3   6
ATOM      6  C13 <0> A   1     -13.490   9.766  45.894  0.00  0.00    +0.104 A 
ATOM      7  C14 <0> A   1     -12.461   9.995  46.798  0.00  0.00    +0.069 A 
ATOM      8  C15 <0> A   1     -11.843  11.229  46.842  0.00  0.00    +0.010 A 
ATOM      9  C16 <0> A   1     -12.250  12.238  45.985  0.00  0.00    +0.115 A 
ATOM     10  C17 <0> A   1     -13.276  12.012  45.083  0.00  0.00    +0.007 A 
ATOM     11  C18 <0> A   1     -13.892  10.777  45.033  0.00  0.00    +0.063 A 
ATOM     12  F1  <0> A   1     -11.645  13.446  46.030  0.00  0.00    -0.130 F 
ENDBRANCH   3   6
BRANCH   4  13
ATOM     13  C7  <0> A   1     -15.712   8.833  47.789  0.00  0.00    -0.012 A 
ATOM     14  C8  <0> A   1     -15.765   8.280  49.070  0.00  0.00    +0.010 A 
ATOM     15  C9  <0> A   1     -16.329   8.999  50.104  0.00  0.00    +0.008 A 
ATOM     16  C10 <0> A   1     -16.842  10.263  49.874  0.00  0.00    +0.013 A 
ATOM     17  C11 <0> A   1     -16.793  10.816  48.606  0.00  0.00    +0.008 A 
ATOM     18  C12 <0> A   1     -16.226  10.112  47.564  0.00  0.00    +0.057 A 
ENDBRANCH   4  13
BRANCH   1  20
ATOM     19  C1  <0> A   1     -14.182   4.049  45.482  0.00  0.00    +0.030 C 
ATOM     20  C2  <0> A   1     -14.771   5.135  44.579  0.00  0.00    +0.074 C 
ATOM     21  C3  <0> A   1     -16.232   4.804  44.269  0.00  0.00    +0.030 C 
ENDBRANCH   1  20
BRANCH   2  22
ATOM     22  C19 <0> A   1     -12.860   7.508  43.873  0.00  0.00    +0.043 C 
ATOM     23  C20 <0> A   1     -13.241   7.759  42.624  0.00  0.00    -0.043 C 
BRANCH  23  24
ATOM     24  C21 <0> A   1     -12.223   7.775  41.514  0.00  0.00    +0.252 C 
BRANCH  24  25
ATOM     25  O4  <0> A   1     -11.563   6.508  41.456  0.00  0.00    -0.537 OA
ATOM     26  H26 <0> A   1     -11.267   6.180  42.316  0.00  0.00    +0.367 HD
ENDBRANCH  24  25
BRANCH  24  27
ATOM     27  C22 <0> A   1     -12.925   8.046  40.182  0.00  0.00    -0.041 C 
BRANCH  27  28
ATOM     28  C23 <0> A   1     -12.351   9.317  39.552  0.00  0.00    +0.231 C 
BRANCH  28  29
ATOM     29  O3  <0> A   1     -12.796   9.421  38.198  0.00  0.00    -0.528 OA
ATOM     30  H25 <0> A   1     -13.755   9.496  38.105  0.00  0.00    +0.351 HD
ENDBRANCH  28  29
BRANCH  28  31
ATOM     31  C24 <0> A   1     -12.828  10.537  40.342  0.00  0.00    -0.102 C 
BRANCH  31  32
ATOM     32  C25 <0> A   1     -13.774  11.346  39.491  0.00  0.00    +0.491 C 
ATOM     33  O1  <0> A   1     -13.335  12.136  38.673  0.00  0.00    -0.681 OA
ATOM     34  O2  <0> A   1     -14.979  11.210  39.622  0.00  0.00    -0.713 OA
ENDBRANCH  31  32
ENDBRANCH  28  31
ENDBRANCH  27  28
ENDBRANCH  24  27
ENDBRANCH  23  24
ENDBRANCH   2  22
TORSDOF 11
