REMARK VINA RESULT:      -7.9     19.636     23.999
REMARK  Name = CHEMBL340139
REMARK  9 active torsions:
REMARK  status: ('A' for Active; 'I' for Inactive)
REMARK    1  A    between atoms: C1_1  and  C2_2
REMARK    2  A    between atoms: C2_2  and  C3_3
REMARK    3  A    between atoms: C2_2  and  C4_4
REMARK    4  A    between atoms: C5_5  and  C23_26
REMARK    5  A    between atoms: C6_6  and  C17_19
REMARK    6  A    between atoms: N1_7  and  C7_9
REMARK    7  A    between atoms: C23_26  and  C24_27
REMARK    8  A    between atoms: C24_27  and  C25_28
REMARK    9  A    between atoms: C27_31  and  O3_37
REMARK                            x       y       z     vdW  Elec       q    Type
REMARK                         _______ _______ _______ _____ _____    ______ ____
ROOT
ATOM      1  C4  <0> A   1     -25.832  -6.196  51.049  0.00  0.00    +0.094 C 
ATOM      2  C5  <0> A   1     -27.130  -6.698  51.120  0.00  0.00    -0.200 C 
ATOM      3  C6  <0> A   1     -27.151  -7.903  50.475  0.00  0.00    +0.131 C 
ATOM      4  N1  <0> A   1     -25.887  -8.136  50.013  0.00  0.00    -0.319 N 
ATOM      5  N2  <0> A   1     -25.089  -7.047  50.386  0.00  0.00    -0.269 NA
ENDROOT
BRANCH   4   6
ATOM      6  C7  <0> A   1     -25.465  -9.259  49.295  0.00  0.00    +0.160 A 
ATOM      7  C8  <0> A   1     -25.430  -9.231  47.918  0.00  0.00    +0.020 A 
ATOM      8  C9  <0> A   1     -25.013 -10.344  47.193  0.00  0.00    +0.031 A 
ATOM      9  C10 <0> A   1     -24.628 -11.488  47.822  0.00  0.00    +0.036 A 
ATOM     10  C11 <0> A   1     -24.647 -11.557  49.226  0.00  0.00    -0.040 A 
ATOM     11  C12 <0> A   1     -25.065 -10.429  49.974  0.00  0.00    -0.044 A 
ATOM     12  C13 <0> A   1     -25.079 -10.499  51.376  0.00  0.00    +0.039 A 
ATOM     13  C14 <0> A   1     -24.687 -11.645  51.998  0.00  0.00    +0.010 A 
ATOM     14  C15 <0> A   1     -24.270 -12.753  51.264  0.00  0.00    +0.018 A 
ATOM     15  C16 <0> A   1     -24.254 -12.726  49.903  0.00  0.00    +0.023 A 
ENDBRANCH   4   6
BRANCH   3  16
ATOM     16  C17 <0> A   1     -28.323  -8.788  50.306  0.00  0.00    -0.047 A 
ATOM     17  C18 <0> A   1     -29.090  -8.721  49.141  0.00  0.00    +0.082 A 
ATOM     18  C19 <0> A   1     -30.182  -9.548  48.988  0.00  0.00    -0.006 A 
ATOM     19  C20 <0> A   1     -30.519 -10.446  49.989  0.00  0.00    +0.113 A 
ATOM     20  C21 <0> A   1     -29.762 -10.516  51.148  0.00  0.00    -0.011 A 
ATOM     21  C22 <0> A   1     -28.664  -9.697  51.308  0.00  0.00    +0.065 A 
ATOM     22  F1  <0> A   1     -31.590 -11.255  49.835  0.00  0.00    -0.136 F 
ENDBRANCH   3  16
BRANCH   1  24
ATOM     23  C1  <0> A   1     -23.833  -4.827  51.579  0.00  0.00    +0.035 C 
ATOM     24  C2  <0> A   1     -25.361  -4.887  51.632  0.00  0.00    +0.075 C 
ATOM     25  C3  <0> A   1     -25.946  -3.729  50.822  0.00  0.00    +0.035 C 
ENDBRANCH   1  24
BRANCH   2  26
ATOM     26  C23 <0> A   1     -28.303  -6.032  51.792  0.00  0.00    +0.112 C 
BRANCH  26  27
ATOM     27  C24 <0> A   1     -28.287  -6.356  53.287  0.00  0.00    +0.055 C 
BRANCH  27  28
ATOM     28  C25 <0> A   1     -29.687  -6.785  53.732  0.00  0.00    +0.197 C 
ATOM     29  C26 <0> A   1     -30.616  -6.834  52.516  0.00  0.00    +0.040 C 
ATOM     30  C27 <0> A   1     -32.006  -7.303  52.958  0.00  0.00    +0.183 C 
ATOM     31  C28 <0> A   1     -31.882  -8.696  53.588  0.00  0.00    +0.020 C 
ATOM     32  C29 <0> A   1     -30.807  -8.642  54.653  0.00  0.00    +0.496 C 
ATOM     33  O1  <0> A   1     -31.005  -9.084  55.759  0.00  0.00    -0.453 OA
ATOM     34  O2  <0> A   1     -29.622  -8.084  54.331  0.00  0.00    -0.365 OA
BRANCH  30  35
ATOM     35  O3  <0> A   1     -32.538  -6.386  53.918  0.00  0.00    -0.563 OA
ATOM     36  H29 <0> A   1     -32.372  -6.638  54.836  0.00  0.00    +0.386 HD
ENDBRANCH  30  35
ENDBRANCH  27  28
ENDBRANCH  26  27
ENDBRANCH   2  26
TORSDOF 7
