REMARK VINA RESULT:      -7.7     13.696     19.684
REMARK  Name = CHEMBL398906
REMARK  18 active torsions:
REMARK  status: ('A' for Active; 'I' for Inactive)
REMARK    1  A    between atoms: C1_1  and  C2_2
REMARK    2  A    between atoms: C2_2  and  C3_4
REMARK    3  A    between atoms: C2_2  and  N1_10
REMARK    4  A    between atoms: N1_10  and  C9_11
REMARK    5  A    between atoms: C10_12  and  C11_14
REMARK    6  A    between atoms: C12_15  and  C27_39
REMARK    7  A    between atoms: C13_16  and  C20_26
REMARK    8  A    between atoms: N2_17  and  C14_19
REMARK    9  A    between atoms: C20_26  and  C21_27
REMARK   10  A    between atoms: C21_27  and  C22_28
REMARK   11  A    between atoms: C22_28  and  C23_30
REMARK   12  A    between atoms: C22_28  and  O5_38
REMARK   13  A    between atoms: C23_30  and  C24_31
REMARK   14  A    between atoms: C24_31  and  C25_33
REMARK   15  A    between atoms: C24_31  and  O4_37
REMARK   16  A    between atoms: C25_33  and  C26_34
REMARK   17  A    between atoms: C27_39  and  C28_40
REMARK   18  A    between atoms: C27_39  and  C29_41
REMARK                            x       y       z     vdW  Elec       q    Type
REMARK                         _______ _______ _______ _____ _____    ______ ____
ROOT
ATOM      1  C11 <0> A   1     -24.985  -2.939  50.779  0.00  0.00    +0.011 C 
ATOM      2  C12 <0> A   1     -26.332  -3.313  51.001  0.00  0.00    -0.147 C 
ATOM      3  C13 <0> A   1     -26.333  -4.666  51.026  0.00  0.00    +0.037 C 
ATOM      4  N2  <0> A   1     -25.051  -5.072  50.831  0.00  0.00    -0.241 N 
ATOM      5  N3  <0> A   1     -24.283  -4.052  50.683  0.00  0.00    -0.258 NA
ENDROOT
BRANCH   4   6
ATOM      6  C14 <0> A   1     -24.628  -6.407  50.790  0.00  0.00    +0.121 A 
ATOM      7  C15 <0> A   1     -24.640  -7.104  49.588  0.00  0.00    +0.067 A 
ATOM      8  C16 <0> A   1     -24.223  -8.420  49.550  0.00  0.00    +0.020 A 
ATOM      9  C17 <0> A   1     -23.794  -9.045  50.708  0.00  0.00    +0.111 A 
ATOM     10  C18 <0> A   1     -23.780  -8.352  51.907  0.00  0.00    +0.008 A 
ATOM     11  C19 <0> A   1     -24.191  -7.035  51.949  0.00  0.00    +0.071 A 
ATOM     12  F1  <0> A   1     -23.387 -10.333  50.668  0.00  0.00    -0.131 F 
ENDBRANCH   4   6
BRANCH   1  15
ATOM     13  N1  <0> A   1     -24.108  -0.886  51.780  0.00  0.00    -0.596 N 
ATOM     14  C9  <0> A   1     -24.340  -1.474  53.101  0.00  0.00    +0.285 C 
ATOM     15  C10 <0> A   1     -24.463  -1.563  50.670  0.00  0.00    +0.618 C 
ATOM     16  O1  <0> A   1     -24.353  -1.038  49.577  0.00  0.00    -0.518 OA
BRANCH  13  18
ATOM     17  C1  <0> A   1     -22.372   0.571  52.699  0.00  0.00    +0.044 C 
ATOM     18  C2  <0> A   1     -23.493   0.438  51.665  0.00  0.00    +0.288 C 
BRANCH  18  19
ATOM     19  C3  <0> A   1     -24.534   1.500  51.913  0.00  0.00    -0.095 A 
ATOM     20  C4  <0> A   1     -25.836   1.302  51.491  0.00  0.00    +0.013 A 
ATOM     21  C5  <0> A   1     -26.791   2.276  51.719  0.00  0.00    -0.000 A 
ATOM     22  C6  <0> A   1     -26.445   3.445  52.369  0.00  0.00    +0.002 A 
ATOM     23  C7  <0> A   1     -25.144   3.642  52.792  0.00  0.00    +0.003 A 
ATOM     24  C8  <0> A   1     -24.189   2.668  52.568  0.00  0.00    +0.020 A 
ENDBRANCH  18  19
ENDBRANCH  13  18
ENDBRANCH   1  15
BRANCH   2  25
ATOM     25  C27 <0> A   1     -27.515  -2.397  51.171  0.00  0.00    +0.061 C 
ATOM     26  C28 <0> A   1     -28.702  -2.943  50.375  0.00  0.00    +0.029 C 
ATOM     27  C29 <0> A   1     -27.889  -2.316  52.652  0.00  0.00    +0.025 C 
ENDBRANCH   2  25
BRANCH   3  28
ATOM     28  C20 <0> A   1     -27.531  -5.557  51.235  0.00  0.00    +0.126 C 
BRANCH  28  29
ATOM     29  C21 <0> A   1     -27.675  -5.879  52.723  0.00  0.00    -0.006 C 
BRANCH  29  30
ATOM     30  C22 <0> A   1     -29.126  -5.656  53.155  0.00  0.00    +0.214 C 
BRANCH  30  31
ATOM     31  O5  <0> A   1     -29.979  -5.721  52.010  0.00  0.00    -0.541 OA
ATOM     32  H28 <0> A   1     -30.271  -6.617  51.788  0.00  0.00    +0.364 HD
ENDBRANCH  30  31
BRANCH  30  33
ATOM     33  C23 <0> A   1     -29.533  -6.740  54.156  0.00  0.00    -0.051 C 
BRANCH  33  34
ATOM     34  C24 <0> A   1     -30.582  -7.653  53.520  0.00  0.00    +0.231 C 
BRANCH  34  35
ATOM     35  O4  <0> A   1     -29.932  -8.625  52.698  0.00  0.00    -0.528 OA
ATOM     36  H27 <0> A   1     -30.520  -9.317  52.367  0.00  0.00    +0.350 HD
ENDBRANCH  34  35
BRANCH  34  37
ATOM     37  C25 <0> A   1     -31.372  -8.364  54.621  0.00  0.00    -0.103 C 
BRANCH  37  38
ATOM     38  C26 <0> A   1     -30.903  -9.792  54.735  0.00  0.00    +0.491 C 
ATOM     39  O2  <0> A   1     -29.881 -10.050  55.347  0.00  0.00    -0.681 OA
ATOM     40  O3  <0> A   1     -31.545 -10.688  54.214  0.00  0.00    -0.713 OA
ENDBRANCH  37  38
ENDBRANCH  34  37
ENDBRANCH  33  34
ENDBRANCH  30  33
ENDBRANCH  29  30
ENDBRANCH  28  29
ENDBRANCH   3  28
TORSDOF 14
