REMARK VINA RESULT:      -7.9     15.212     20.798
REMARK  Name = CHEMBL488297
REMARK  16 active torsions:
REMARK  status: ('A' for Active; 'I' for Inactive)
REMARK    1  A    between atoms: C1_1  and  C2_2
REMARK    2  A    between atoms: C2_2  and  C3_3
REMARK    3  A    between atoms: C2_2  and  C4_4
REMARK    4  A    between atoms: C5_5  and  C20_30
REMARK    5  A    between atoms: C6_7  and  C14_22
REMARK    6  A    between atoms: N2_8  and  C7_9
REMARK    7  A    between atoms: C7_9  and  C8_10
REMARK    8  A    between atoms: C8_10  and  C9_11
REMARK    9  A    between atoms: C9_11  and  C10_13
REMARK   10  A    between atoms: C9_11  and  O4_21
REMARK   11  A    between atoms: C10_13  and  C11_14
REMARK   12  A    between atoms: C11_14  and  C12_16
REMARK   13  A    between atoms: C11_14  and  O3_20
REMARK   14  A    between atoms: C12_16  and  C13_17
REMARK   15  A    between atoms: N3_32  and  C21_33
REMARK   16  A    between atoms: C21_33  and  C22_34
REMARK                            x       y       z     vdW  Elec       q    Type
REMARK                         _______ _______ _______ _____ _____    ______ ____
ROOT
ATOM      1  C4  <0> A   1     -26.341  -4.613  51.232  0.00  0.00    +0.096 C 
ATOM      2  C5  <0> A   1     -25.073  -4.198  50.945  0.00  0.00    -0.063 C 
ATOM      3  N1  <0> A   1     -24.343  -5.285  50.619  0.00  0.00    -0.441 NA
ATOM      4  C6  <0> A   1     -25.105  -6.349  50.693  0.00  0.00    +0.240 C 
ATOM      5  N2  <0> A   1     -26.359  -5.965  51.080  0.00  0.00    -0.433 N 
ENDROOT
BRANCH   4   6
ATOM      6  C14 <0> A   1     -24.678  -7.737  50.411  0.00  0.00    +0.011 A 
ATOM      7  C15 <0> A   1     -24.562  -8.179  49.092  0.00  0.00    +0.042 A 
ATOM      8  C16 <0> A   1     -24.162  -9.474  48.833  0.00  0.00    +0.042 A 
ATOM      9  C17 <0> A   1     -23.878 -10.337  49.880  0.00  0.00    +0.077 A 
ATOM     10  C18 <0> A   1     -23.991  -9.902  51.193  0.00  0.00    +0.073 A 
ATOM     11  C19 <0> A   1     -24.384  -8.606  51.462  0.00  0.00    +0.069 A 
ATOM     12  F1  <0> A   1     -23.712 -10.748  52.209  0.00  0.00    -0.124 F 
ATOM     13  F2  <0> A   1     -23.488 -11.604  49.620  0.00  0.00    -0.123 F 
ENDBRANCH   4   6
BRANCH   2  14
ATOM     14  C20 <0> A   1     -24.587  -2.807  50.983  0.00  0.00    +0.610 C 
ATOM     15  O5  <0> A   1     -23.791  -2.464  51.837  0.00  0.00    -0.540 OA
ATOM     16  N3  <0> A   1     -25.024  -1.914  50.072  0.00  0.00    -0.714 N 
ATOM     17  H23 <0> A   1     -25.659  -2.188  49.392  0.00  0.00    +0.410 HD
BRANCH  16  18
ATOM     18  C21 <0> A   1     -24.541  -0.533  50.110  0.00  0.00    +0.318 C 
BRANCH  18  19
ATOM     19  C22 <0> A   1     -25.651   0.376  50.568  0.00  0.00    -0.109 A 
ATOM     20  C23 <0> A   1     -25.377   1.427  51.422  0.00  0.00    +0.024 A 
ATOM     21  C24 <0> A   1     -26.396   2.262  51.842  0.00  0.00    +0.001 A 
ATOM     22  C25 <0> A   1     -27.690   2.044  51.407  0.00  0.00    +0.010 A 
ATOM     23  C26 <0> A   1     -27.965   0.993  50.553  0.00  0.00    +0.002 A 
ATOM     24  C27 <0> A   1     -26.945   0.162  50.130  0.00  0.00    +0.025 A 
ENDBRANCH  18  19
ENDBRANCH  16  18
ENDBRANCH   2  14
BRANCH   1  26
ATOM     25  C1  <0> A   1     -28.375  -3.446  50.427  0.00  0.00    +0.033 C 
ATOM     26  C2  <0> A   1     -27.499  -3.742  51.645  0.00  0.00    +0.086 C 
ATOM     27  C3  <0> A   1     -28.329  -4.467  52.706  0.00  0.00    +0.035 C 
ENDBRANCH   1  26
BRANCH   5  28
ATOM     28  C7  <0> A   1     -27.511  -6.846  51.287  0.00  0.00    +0.305 C 
BRANCH  28  29
ATOM     29  C8  <0> A   1     -27.974  -7.406  49.942  0.00  0.00    -0.015 C 
BRANCH  29  30
ATOM     30  C9  <0> A   1     -28.595  -8.788  50.150  0.00  0.00    +0.219 C 
BRANCH  30  31
ATOM     31  O4  <0> A   1     -27.559  -9.770  50.225  0.00  0.00    -0.538 OA
ATOM     32  H19 <0> A   1     -26.722  -9.487  49.833  0.00  0.00    +0.367 HD
ENDBRANCH  30  31
BRANCH  30  33
ATOM     33  C10 <0> A   1     -29.399  -8.795  51.452  0.00  0.00    -0.046 C 
BRANCH  33  34
ATOM     34  C11 <0> A   1     -30.334 -10.007  51.468  0.00  0.00    +0.232 C 
BRANCH  34  35
ATOM     35  O3  <0> A   1     -30.111 -10.795  50.297  0.00  0.00    -0.528 OA
ATOM     36  H18 <0> A   1     -29.243 -10.661  49.892  0.00  0.00    +0.351 HD
ENDBRANCH  34  35
BRANCH  34  37
ATOM     37  C12 <0> A   1     -30.052 -10.851  52.713  0.00  0.00    -0.102 C 
BRANCH  37  38
ATOM     38  C13 <0> A   1     -29.339 -12.116  52.310  0.00  0.00    +0.490 C 
ATOM     39  O1  <0> A   1     -28.142 -12.096  52.084  0.00  0.00    -0.681 OA
ATOM     40  O2  <0> A   1     -29.960 -13.160  52.211  0.00  0.00    -0.712 OA
ENDBRANCH  37  38
ENDBRANCH  34  37
ENDBRANCH  33  34
ENDBRANCH  30  33
ENDBRANCH  29  30
ENDBRANCH  28  29
ENDBRANCH   5  28
TORSDOF 14
