REMARK VINA RESULT:      -7.7     28.375     30.388
REMARK  Name = CHEMBL306742
REMARK  15 active torsions:
REMARK  status: ('A' for Active; 'I' for Inactive)
REMARK    1  A    between atoms: C1_1  and  C2_2
REMARK    2  A    between atoms: C2_2  and  C3_3
REMARK    3  A    between atoms: C2_2  and  C9_10
REMARK    4  A    between atoms: C3_3  and  C4_4
REMARK    5  A    between atoms: C4_4  and  C5_5
REMARK    6  A    between atoms: C5_5  and  C6_6
REMARK    7  A    between atoms: C6_6  and  C7_7
REMARK    8  A    between atoms: C6_6  and  C8_8
REMARK    9  A    between atoms: C6_6  and  O1_9
REMARK   10  A    between atoms: C13_16  and  C28_33
REMARK   11  A    between atoms: C17_20  and  C18_21
REMARK   12  A    between atoms: C18_21  and  C19_22
REMARK   13  A    between atoms: C22_25  and  O2_32
REMARK   14  A    between atoms: C25_29  and  C26_30
REMARK   15  A    between atoms: C25_29  and  C27_31
REMARK                            x       y       z     vdW  Elec       q    Type
REMARK                         _______ _______ _______ _____ _____    ______ ____
ROOT
ATOM      1  C9  <0> A   1     -27.181  -1.106  50.573  0.00  0.00    -0.009 C 
ATOM      2  C10 <0> A   1     -26.259   0.023  50.044  0.00  0.00    +0.004 C 
ATOM      3  C11 <0> A   1     -24.796  -0.470  50.260  0.00  0.00    +0.011 C 
ATOM      4  C12 <0> A   1     -24.996  -1.992  50.339  0.00  0.00    -0.010 C 
ATOM      5  C13 <0> A   1     -26.217  -2.080  51.277  0.00  0.00    -0.050 C 
ATOM      6  C14 <0> A   1     -26.678  -3.515  51.366  0.00  0.00    +0.020 C 
ATOM      7  C15 <0> A   1     -25.522  -4.365  51.910  0.00  0.00    -0.000 C 
ATOM      8  C16 <0> A   1     -24.293  -4.281  51.018  0.00  0.00    +0.003 C 
ATOM      9  C17 <0> A   1     -23.839  -2.843  50.748  0.00  0.00    -0.010 C 
ATOM     10  C28 <0> A   1     -25.955  -1.523  52.675  0.00  0.00    +0.027 C 
ENDROOT
BRANCH   1  12
ATOM     11  C1  <0> A   1     -29.426  -1.440  51.612  0.00  0.00    +0.013 C 
ATOM     12  C2  <0> A   1     -28.183  -0.547  51.581  0.00  0.00    -0.007 C 
BRANCH  12  13
ATOM     13  C3  <0> A   1     -28.583   0.871  51.171  0.00  0.00    +0.001 C 
BRANCH  13  14
ATOM     14  C4  <0> A   1     -28.429   1.810  52.369  0.00  0.00    +0.015 C 
BRANCH  14  15
ATOM     15  C5  <0> A   1     -28.072   3.213  51.874  0.00  0.00    -0.013 C 
BRANCH  15  16
ATOM     16  C6  <0> A   1     -26.886   3.752  52.677  0.00  0.00    +0.125 C 
ATOM     17  C7  <0> A   1     -27.224   3.719  54.169  0.00  0.00    +0.053 C 
ATOM     18  C8  <0> A   1     -25.655   2.882  52.413  0.00  0.00    +0.005 C 
BRANCH  16  19
ATOM     19  O1  <0> A   1     -26.613   5.098  52.279  0.00  0.00    -0.559 OA
ATOM     20  H20 <0> A   1     -26.363   5.680  53.009  0.00  0.00    +0.374 HD
ENDBRANCH  16  19
ENDBRANCH  15  16
ENDBRANCH  14  15
ENDBRANCH  13  14
ENDBRANCH  12  13
ENDBRANCH   1  12
BRANCH   9  21
ATOM     21  C18 <0> A   1     -23.023  -2.293  51.911  0.00  0.00    +0.070 C 
BRANCH  21  22
ATOM     22  C19 <0> A   1     -22.076  -3.354  52.408  0.00  0.00    -0.046 C 
ATOM     23  C20 <0> A   1     -21.180  -3.059  53.317  0.00  0.00    -0.118 C 
ATOM     24  C21 <0> A   1     -19.848  -3.777  53.355  0.00  0.00    +0.041 C 
ATOM     25  C22 <0> A   1     -19.616  -4.296  54.778  0.00  0.00    +0.159 C 
ATOM     26  C23 <0> A   1     -19.736  -3.136  55.768  0.00  0.00    +0.026 C 
ATOM     27  C24 <0> A   1     -21.159  -2.575  55.741  0.00  0.00    +0.037 C 
ATOM     28  C25 <0> A   1     -21.447  -1.988  54.351  0.00  0.00    -0.025 C 
ATOM     29  C26 <0> A   1     -20.532  -0.788  54.096  0.00  0.00    +0.026 C 
ATOM     30  C27 <0> A   1     -22.910  -1.549  54.270  0.00  0.00    +0.031 C 
BRANCH  25  31
ATOM     31  O2  <0> A   1     -18.310  -4.868  54.870  0.00  0.00    -0.570 OA
ATOM     32  H47 <0> A   1     -18.089  -5.461  54.139  0.00  0.00    +0.378 HD
ENDBRANCH  25  31
ENDBRANCH  21  22
ENDBRANCH   9  21
TORSDOF 9
