REMARK VINA RESULT:      -8.3      9.539     11.136
REMARK  Name = CHEMBL50566
REMARK  8 active torsions:
REMARK  status: ('A' for Active; 'I' for Inactive)
REMARK    1  A    between atoms: C1_1  and  C2_2
REMARK    2  A    between atoms: C4_4  and  C22_27
REMARK    3  A    between atoms: C5_5  and  C15_16
REMARK    4  A    between atoms: C6_6  and  C8_8
REMARK    5  A    between atoms: C12_12  and  C14_14
REMARK    6  A    between atoms: C15_16  and  C16_17
REMARK    7  A    between atoms: C16_17  and  C17_18
REMARK    8  A    between atoms: C19_20  and  O3_26
REMARK                            x       y       z     vdW  Elec       q    Type
REMARK                         _______ _______ _______ _____ _____    ______ ____
ROOT
ATOM      1  C1  <0> A   1      -0.866   2.559  44.077  0.00  0.00    +0.089 C 
ATOM      2  C2  <0> A   1      -2.090   3.135  44.740  0.00  0.00    -0.083 A 
ATOM      3  C3  <0> A   1      -3.345   2.651  44.413  0.00  0.00    +0.007 A 
ATOM      4  C4  <0> A   1      -4.473   3.175  45.018  0.00  0.00    -0.074 A 
ATOM      5  C5  <0> A   1      -4.353   4.184  45.952  0.00  0.00    -0.072 A 
ATOM      6  C6  <0> A   1      -3.092   4.676  46.285  0.00  0.00    -0.041 A 
ATOM      7  C7  <0> A   1      -1.958   4.140  45.677  0.00  0.00    +0.014 A 
ATOM      8  C22 <0> A   1      -5.836   2.644  44.656  0.00  0.00    +0.091 C 
ENDROOT
BRANCH   6   9
ATOM      9  C8  <0> A   1      -2.956   5.760  47.288  0.00  0.00    -0.047 A 
ATOM     10  C9  <0> A   1      -3.308   7.066  46.957  0.00  0.00    +0.049 A 
ATOM     11  C10 <0> A   1      -3.180   8.072  47.893  0.00  0.00    -0.009 A 
ATOM     12  C11 <0> A   1      -2.701   7.784  49.161  0.00  0.00    +0.097 A 
ATOM     13  C12 <0> A   1      -2.350   6.486  49.495  0.00  0.00    -0.114 A 
ATOM     14  C13 <0> A   1      -2.481   5.474  48.566  0.00  0.00    +0.055 A 
ATOM     15  C14 <0> A   1      -1.829   6.178  50.875  0.00  0.00    +0.104 C 
ATOM     16  F1  <0> A   1      -2.577   8.771  50.076  0.00  0.00    -0.137 F 
ENDBRANCH   6   9
BRANCH   5  17
ATOM     17  C15 <0> A   1      -5.582   4.755  46.610  0.00  0.00    +0.073 C 
BRANCH  17  18
ATOM     18  C16 <0> A   1      -5.825   4.043  47.943  0.00  0.00    +0.059 C 
BRANCH  18  19
ATOM     19  C17 <0> A   1      -7.330   3.943  48.200  0.00  0.00    +0.196 C 
ATOM     20  C18 <0> A   1      -8.059   5.023  47.396  0.00  0.00    +0.040 C 
ATOM     21  C19 <0> A   1      -9.561   4.947  47.688  0.00  0.00    +0.184 C 
ATOM     22  C20 <0> A   1      -9.786   5.161  49.190  0.00  0.00    +0.021 C 
ATOM     23  C21 <0> A   1      -8.892   4.201  49.944  0.00  0.00    +0.496 C 
ATOM     24  O1  <0> A   1      -9.331   3.513  50.836  0.00  0.00    -0.453 OA
ATOM     25  O2  <0> A   1      -7.591   4.136  49.594  0.00  0.00    -0.367 OA
BRANCH  21  26
ATOM     26  O3  <0> A   1     -10.058   3.664  47.304  0.00  0.00    -0.563 OA
ATOM     27  H22 <0> A   1      -9.376   2.983  47.233  0.00  0.00    +0.386 HD
ENDBRANCH  21  26
ENDBRANCH  18  19
ENDBRANCH  17  18
ENDBRANCH   5  17
TORSDOF 5
