REMARK VINA RESULT:      -7.6      4.248      6.983
REMARK  Name = CHEMBL392897
REMARK  17 active torsions:
REMARK  status: ('A' for Active; 'I' for Inactive)
REMARK    1  A    between atoms: C1_1  and  C2_2
REMARK    2  A    between atoms: C2_2  and  N1_3
REMARK    3  A    between atoms: C3_4  and  C21_27
REMARK    4  A    between atoms: C4_5  and  C15_20
REMARK    5  A    between atoms: C5_6  and  C14_19
REMARK    6  A    between atoms: C6_7  and  C7_8
REMARK    7  A    between atoms: N2_10  and  C8_11
REMARK    8  A    between atoms: C8_11  and  C9_12
REMARK    9  A    between atoms: C11_15  and  C13_18
REMARK   10  A    between atoms: C21_27  and  C22_28
REMARK   11  A    between atoms: C22_28  and  C23_29
REMARK   12  A    between atoms: C23_29  and  C24_31
REMARK   13  A    between atoms: C23_29  and  O5_39
REMARK   14  A    between atoms: C24_31  and  C25_32
REMARK   15  A    between atoms: C25_32  and  C26_34
REMARK   16  A    between atoms: C25_32  and  O4_38
REMARK   17  A    between atoms: C26_34  and  C27_35
REMARK                            x       y       z     vdW  Elec       q    Type
REMARK                         _______ _______ _______ _____ _____    ______ ____
ROOT
ATOM      1  N1  <0> A   1     -13.129  10.360  45.625  0.00  0.00    -0.407 N 
ATOM      2  C3  <0> A   1     -13.479   9.198  45.038  0.00  0.00    +0.078 C 
ATOM      3  C4  <0> A   1     -14.073   8.399  45.972  0.00  0.00    -0.142 C 
ATOM      4  C5  <0> A   1     -14.086   9.109  47.187  0.00  0.00    -0.087 C 
ATOM      5  C6  <0> A   1     -13.492  10.317  46.952  0.00  0.00    -0.052 C 
ATOM      6  C14 <0> A   1     -14.643   8.625  48.502  0.00  0.00    +0.109 C 
ENDROOT
BRANCH   3   7
ATOM      7  C15 <0> A   1     -14.608   7.032  45.746  0.00  0.00    -0.008 A 
ATOM      8  C16 <0> A   1     -15.971   6.842  45.532  0.00  0.00    +0.049 A 
ATOM      9  C17 <0> A   1     -16.464   5.570  45.323  0.00  0.00    -0.016 A 
ATOM     10  C18 <0> A   1     -15.605   4.483  45.326  0.00  0.00    +0.093 A 
ATOM     11  C19 <0> A   1     -14.248   4.668  45.539  0.00  0.00    -0.017 A 
ATOM     12  C20 <0> A   1     -13.747   5.936  45.743  0.00  0.00    +0.053 A 
ATOM     13  F1  <0> A   1     -16.091   3.239  45.121  0.00  0.00    -0.142 F 
ENDBRANCH   3   7
BRANCH   5  14
ATOM     14  C7  <0> A   1     -13.281  11.381  47.940  0.00  0.00    +0.602 C 
ATOM     15  O1  <0> A   1     -14.219  12.064  48.309  0.00  0.00    -0.518 OA
ATOM     16  N2  <0> A   1     -12.050  11.602  48.441  0.00  0.00    -0.718 N 
ATOM     17  H8  <0> A   1     -11.290  11.108  48.094  0.00  0.00    +0.405 HD
BRANCH  16  18
ATOM     18  C8  <0> A   1     -11.857  12.586  49.509  0.00  0.00    +0.361 C 
BRANCH  18  19
ATOM     19  C9  <0> A   1     -10.729  12.143  50.404  0.00  0.00    +0.046 A 
ATOM     20  C10 <0> A   1      -9.987  13.083  51.099  0.00  0.00    +0.252 A 
ATOM     21  N3  <0> A   1      -8.998  12.693  51.885  0.00  0.00    -0.439 NA
ATOM     22  C11 <0> A   1      -8.719  11.408  52.007  0.00  0.00    +0.088 A 
ATOM     23  C12 <0> A   1      -9.462  10.469  51.312  0.00  0.00    +0.226 A 
ATOM     24  N4  <0> A   1     -10.453  10.857  50.530  0.00  0.00    -0.418 NA
ATOM     25  C13 <0> A   1      -7.591  10.963  52.902  0.00  0.00    +0.146 C 
ENDBRANCH  18  19
ENDBRANCH  16  18
ENDBRANCH   5  14
BRANCH   1  27
ATOM     26  C1  <0> A   1     -13.518  12.387  44.314  0.00  0.00    +0.040 C 
ATOM     27  C2  <0> A   1     -12.466  11.485  44.961  0.00  0.00    +0.280 C 
ENDBRANCH   1  27
BRANCH   2  28
ATOM     28  C21 <0> A   1     -13.252   8.842  43.591  0.00  0.00    +0.116 C 
BRANCH  28  29
ATOM     29  C22 <0> A   1     -11.900   8.142  43.444  0.00  0.00    -0.007 C 
BRANCH  29  30
ATOM     30  C23 <0> A   1     -11.774   7.565  42.033  0.00  0.00    +0.212 C 
BRANCH  30  31
ATOM     31  O5  <0> A   1     -11.660   6.143  42.108  0.00  0.00    -0.542 OA
ATOM     32  H32 <0> A   1     -12.405   5.711  42.548  0.00  0.00    +0.363 HD
ENDBRANCH  30  31
BRANCH  30  33
ATOM     33  C24 <0> A   1     -13.015   7.935  41.218  0.00  0.00    -0.051 C 
BRANCH  33  34
ATOM     34  C25 <0> A   1     -12.624   8.923  40.115  0.00  0.00    +0.230 C 
BRANCH  34  35
ATOM     35  O4  <0> A   1     -12.235   8.201  38.945  0.00  0.00    -0.528 OA
ATOM     36  H31 <0> A   1     -12.951   7.693  38.539  0.00  0.00    +0.349 HD
ENDBRANCH  34  35
BRANCH  34  37
ATOM     37  C26 <0> A   1     -13.820   9.818  39.787  0.00  0.00    -0.103 C 
BRANCH  37  38
ATOM     38  C27 <0> A   1     -13.382  11.260  39.782  0.00  0.00    +0.491 C 
ATOM     39  O2  <0> A   1     -12.776  11.717  40.736  0.00  0.00    -0.681 OA
ATOM     40  O3  <0> A   1     -13.633  11.970  38.824  0.00  0.00    -0.713 OA
ENDBRANCH  37  38
ENDBRANCH  34  37
ENDBRANCH  33  34
ENDBRANCH  30  33
ENDBRANCH  29  30
ENDBRANCH  28  29
ENDBRANCH   2  28
TORSDOF 14
