REMARK  Name = CHEMBL296765
REMARK  6 active torsions:
REMARK  status: ('A' for Active; 'I' for Inactive)
REMARK    1  A    between atoms: C2_2  and  C3_3
REMARK    2  A    between atoms: C3_3  and  O1_4
REMARK    3  A    between atoms: O1_4  and  C4_5
REMARK    4  A    between atoms: C9_10  and  C10_11
REMARK    5  A    between atoms: C11_12  and  C12_13
REMARK    6  A    between atoms: C14_15  and  O4_21
REMARK                            x       y       z     vdW  Elec       q    Type
REMARK                         _______ _______ _______ _____ _____    ______ ____
ROOT
ATOM      1  C4  <0> A   1       2.392  -2.577   1.044  0.00  0.00    +0.170 A 
ATOM      2  C5  <0> A   1       3.503  -2.305   0.263  0.00  0.00    -0.052 A 
ATOM      3  C6  <0> A   1       4.639  -3.087   0.377  0.00  0.00    +0.017 A 
ATOM      4  C7  <0> A   1       4.673  -4.146   1.270  0.00  0.00    +0.011 A 
ATOM      5  C8  <0> A   1       3.572  -4.429   2.054  0.00  0.00    +0.017 A 
ATOM      6  C9  <0> A   1       2.424  -3.642   1.952  0.00  0.00    -0.077 A 
ATOM      7 Cl1  <0> A   1       3.620  -5.756   3.172  0.00  0.00    -0.037 Cl
ATOM      8 Cl2  <0> A   1       6.027  -2.741  -0.606  0.00  0.00    -0.049 Cl
ENDROOT
BRANCH   6   9
ATOM      9  C10 <0> A   1       1.246  -3.935   2.793  0.00  0.00    +0.056 C 
ATOM     10  C11 <0> A   1       0.768  -5.171   2.859  0.00  0.00    -0.010 C 
BRANCH  10  11
ATOM     11  C12 <0> A   1      -0.433  -5.470   3.717  0.00  0.00    +0.243 C 
ATOM     12  C13 <0> A   1      -1.517  -6.136   2.865  0.00  0.00    +0.051 C 
ATOM     13  C14 <0> A   1      -2.752  -6.401   3.732  0.00  0.00    +0.186 C 
ATOM     14  C15 <0> A   1      -3.262  -5.067   4.291  0.00  0.00    +0.023 C 
ATOM     15  C16 <0> A   1      -2.102  -4.356   4.952  0.00  0.00    +0.497 C 
ATOM     16  O2  <0> A   1      -2.208  -3.895   6.064  0.00  0.00    -0.451 OA
ATOM     17  O3  <0> A   1      -0.946  -4.250   4.264  0.00  0.00    -0.367 OA
BRANCH  13  18
ATOM     18  O4  <0> A   1      -2.404  -7.273   4.809  0.00  0.00    -0.564 OA
ATOM     19  H16 <0> A   1      -3.140  -7.483   5.399  0.00  0.00    +0.387 HD
ENDBRANCH  13  18
ENDBRANCH  10  11
ENDBRANCH   6   9
BRANCH   1  20
ATOM     20  O1  <0> A   1       1.277  -1.809   0.933  0.00  0.00    -0.292 OA
BRANCH  20  21
ATOM     21  C3  <0> A   1       1.317  -0.740  -0.015  0.00  0.00    +0.232 C 
BRANCH  21  23
ATOM     22  C1  <0> A   1      -0.016   1.306   0.009  0.00  0.00    +0.049 C 
ATOM     23  C2  <0> A   1       0.002  -0.004   0.002  0.00  0.00    -0.039 C 
ENDBRANCH  21  23
ENDBRANCH  20  21
ENDBRANCH   1  20
TORSDOF 6
