REMARK  Name = CHEMBL331453
REMARK  13 active torsions:
REMARK  status: ('A' for Active; 'I' for Inactive)
REMARK    1  A    between atoms: C1_1  and  C2_2
REMARK    2  A    between atoms: C2_2  and  C3_3
REMARK    3  A    between atoms: C2_2  and  C4_4
REMARK    4  A    between atoms: C5_5  and  C27_34
REMARK    5  A    between atoms: C6_6  and  C21_28
REMARK    6  A    between atoms: C7_7  and  C15_21
REMARK    7  A    between atoms: N1_8  and  C8_9
REMARK    8  A    between atoms: C8_9  and  C9_10
REMARK    9  A    between atoms: C9_10  and  C10_11
REMARK   10  A    between atoms: C12_14  and  O3_20
REMARK   11  A    between atoms: C27_34  and  O5_36
REMARK   12  A    between atoms: O5_36  and  C28_37
REMARK   13  A    between atoms: C28_37  and  C29_38
REMARK                            x       y       z     vdW  Elec       q    Type
REMARK                         _______ _______ _______ _____ _____    ______ ____
ROOT
ATOM      1  C4  <0> A   1      -1.293  -0.890   0.012  0.00  0.00    +0.106 C 
ATOM      2  C5  <0> A   1      -2.136  -0.535   1.042  0.00  0.00    -0.188 C 
ATOM      3  C6  <0> A   1      -3.506  -0.745   0.543  0.00  0.00    -0.060 C 
ATOM      4  C7  <0> A   1      -3.368  -1.211  -0.750  0.00  0.00    +0.065 C 
ATOM      5  N1  <0> A   1      -2.031  -1.283  -1.044  0.00  0.00    -0.418 N 
ENDROOT
BRANCH   4   6
ATOM      6  C15 <0> A   1      -4.474  -1.565  -1.663  0.00  0.00    -0.032 A 
ATOM      7  C16 <0> A   1      -4.524  -2.835  -2.243  0.00  0.00    +0.050 A 
ATOM      8  C17 <0> A   1      -5.559  -3.160  -3.095  0.00  0.00    -0.011 A 
ATOM      9  C18 <0> A   1      -6.548  -2.231  -3.375  0.00  0.00    +0.107 A 
ATOM     10  C19 <0> A   1      -6.503  -0.969  -2.802  0.00  0.00    -0.008 A 
ATOM     11  C20 <0> A   1      -5.476  -0.634  -1.945  0.00  0.00    +0.078 A 
ATOM     12  F1  <0> A   1      -7.559  -2.555  -4.210  0.00  0.00    -0.137 F 
ENDBRANCH   4   6
BRANCH   3  13
ATOM     13  C21 <0> A   1      -4.769  -0.506   1.276  0.00  0.00    -0.018 A 
ATOM     14  C22 <0> A   1      -5.601  -1.576   1.606  0.00  0.00    +0.023 A 
ATOM     15  C23 <0> A   1      -6.777  -1.347   2.289  0.00  0.00    +0.002 A 
ATOM     16  C24 <0> A   1      -7.133  -0.059   2.646  0.00  0.00    +0.004 A 
ATOM     17  C25 <0> A   1      -6.313   1.007   2.321  0.00  0.00    +0.004 A 
ATOM     18  C26 <0> A   1      -5.131   0.790   1.644  0.00  0.00    +0.020 A 
ENDBRANCH   3  13
BRANCH   1  20
ATOM     19  C1  <0> A   1       0.668   0.592   0.332  0.00  0.00    +0.041 C 
ATOM     20  C2  <0> A   1       0.212  -0.842   0.057  0.00  0.00    +0.048 C 
ATOM     21  C3  <0> A   1       0.719  -1.761   1.171  0.00  0.00    +0.043 C 
ENDBRANCH   1  20
BRANCH   2  22
ATOM     22  C27 <0> A   1      -1.747  -0.045   2.372  0.00  0.00    +0.554 C 
ATOM     23  O4  <0> A   1      -1.607   1.147   2.563  0.00  0.00    -0.495 OA
BRANCH  22  24
ATOM     24  O5  <0> A   1      -1.546  -0.917   3.380  0.00  0.00    -0.338 OA
BRANCH  24  25
ATOM     25  C28 <0> A   1      -1.169  -0.371   4.645  0.00  0.00    +0.259 C 
BRANCH  25  26
ATOM     26  C29 <0> A   1      -0.990  -1.488   5.641  0.00  0.00    -0.096 A 
ATOM     27  C30 <0> A   1      -2.063  -1.917   6.399  0.00  0.00    +0.030 A 
ATOM     28  C31 <0> A   1      -1.898  -2.942   7.312  0.00  0.00    +0.003 A 
ATOM     29  C32 <0> A   1      -0.660  -3.538   7.467  0.00  0.00    +0.015 A 
ATOM     30  C33 <0> A   1       0.413  -3.109   6.708  0.00  0.00    +0.002 A 
ATOM     31  C34 <0> A   1       0.247  -2.087   5.792  0.00  0.00    +0.028 A 
ENDBRANCH  25  26
ENDBRANCH  24  25
ENDBRANCH  22  24
ENDBRANCH   2  22
BRANCH   5  32
ATOM     32  C8  <0> A   1      -1.482  -1.728  -2.326  0.00  0.00    +0.300 C 
BRANCH  32  33
ATOM     33  C9  <0> A   1      -1.134  -3.216  -2.243  0.00  0.00    +0.052 C 
BRANCH  33  34
ATOM     34  C10 <0> A   1      -0.670  -3.709  -3.615  0.00  0.00    +0.204 C 
ATOM     35  C11 <0> A   1      -0.440  -5.222  -3.563  0.00  0.00    +0.046 C 
ATOM     36  C12 <0> A   1       0.064  -5.706  -4.927  0.00  0.00    +0.187 C 
ATOM     37  C13 <0> A   1       1.373  -4.979  -5.258  0.00  0.00    +0.025 C 
ATOM     38  C14 <0> A   1       1.144  -3.492  -5.102  0.00  0.00    +0.497 C 
ATOM     39  O1  <0> A   1       1.480  -2.717  -5.965  0.00  0.00    -0.448 OA
ATOM     40  O2  <0> A   1       0.553  -3.055  -3.970  0.00  0.00    -0.370 OA
BRANCH  36  41
ATOM     41  O3  <0> A   1      -0.914  -5.416  -5.928  0.00  0.00    -0.564 OA
ATOM     42  H18 <0> A   1      -0.660  -5.696  -6.818  0.00  0.00    +0.388 HD
ENDBRANCH  36  41
ENDBRANCH  33  34
ENDBRANCH  32  33
ENDBRANCH   5  32
TORSDOF 11
