REMARK  Name = CHEMBL330777
REMARK  13 active torsions:
REMARK  status: ('A' for Active; 'I' for Inactive)
REMARK    1  A    between atoms: C1_1  and  C2_2
REMARK    2  A    between atoms: C2_2  and  O1_3
REMARK    3  A    between atoms: O1_3  and  C3_4
REMARK    4  A    between atoms: C3_4  and  C4_6
REMARK    5  A    between atoms: C5_7  and  C24_32
REMARK    6  A    between atoms: C6_8  and  C18_26
REMARK    7  A    between atoms: N1_9  and  C11_14
REMARK    8  A    between atoms: C7_10  and  C8_11
REMARK    9  A    between atoms: C8_11  and  C9_12
REMARK   10  A    between atoms: C8_11  and  C10_13
REMARK   11  A    between atoms: C11_14  and  C12_15
REMARK   12  A    between atoms: C12_15  and  C13_16
REMARK   13  A    between atoms: C15_19  and  O5_25
REMARK                            x       y       z     vdW  Elec       q    Type
REMARK                         _______ _______ _______ _____ _____    ______ ____
ROOT
ATOM      1  C4  <0> A   1       1.488  -2.199  -2.583  0.00  0.00    -0.188 C 
ATOM      2  C5  <0> A   1       2.865  -2.719  -2.628  0.00  0.00    -0.066 C 
ATOM      3  C6  <0> A   1       3.002  -3.318  -3.865  0.00  0.00    +0.072 C 
ATOM      4  N1  <0> A   1       1.817  -3.188  -4.541  0.00  0.00    -0.419 N 
ATOM      5  C7  <0> A   1       0.912  -2.532  -3.789  0.00  0.00    +0.099 C 
ENDROOT
BRANCH   3   6
ATOM      6  C18 <0> A   1       4.218  -3.985  -4.373  0.00  0.00    -0.022 A 
ATOM      7  C19 <0> A   1       4.817  -5.007  -3.634  0.00  0.00    +0.036 A 
ATOM      8  C20 <0> A   1       5.952  -5.626  -4.115  0.00  0.00    +0.008 A 
ATOM      9  C21 <0> A   1       6.497  -5.236  -5.325  0.00  0.00    +0.012 A 
ATOM     10  C22 <0> A   1       5.909  -4.223  -6.062  0.00  0.00    +0.010 A 
ATOM     11  C23 <0> A   1       4.770  -3.599  -5.596  0.00  0.00    +0.015 A 
ENDBRANCH   3   6
BRANCH   2  12
ATOM     12  C24 <0> A   1       3.891  -2.620  -1.566  0.00  0.00    -0.015 A 
ATOM     13  C25 <0> A   1       5.036  -1.848  -1.768  0.00  0.00    +0.023 A 
ATOM     14  C26 <0> A   1       5.989  -1.760  -0.774  0.00  0.00    +0.002 A 
ATOM     15  C27 <0> A   1       5.811  -2.435   0.421  0.00  0.00    +0.003 A 
ATOM     16  C28 <0> A   1       4.679  -3.202   0.627  0.00  0.00    +0.002 A 
ATOM     17  C29 <0> A   1       3.715  -3.293  -0.357  0.00  0.00    +0.018 A 
ENDBRANCH   2  12
BRANCH   5  18
ATOM     18  C8  <0> A   1      -0.501  -2.211  -4.202  0.00  0.00    +0.046 C 
ATOM     19  C9  <0> A   1      -1.479  -2.862  -3.222  0.00  0.00    +0.042 C 
ATOM     20  C10 <0> A   1      -0.703  -0.695  -4.193  0.00  0.00    +0.043 C 
ENDBRANCH   5  18
BRANCH   1  21
ATOM     21  C3  <0> A   1       0.854  -1.475  -1.472  0.00  0.00    +0.555 C 
ATOM     22  O2  <0> A   1       0.265  -2.089  -0.604  0.00  0.00    -0.498 OA
BRANCH  21  23
ATOM     23  O1  <0> A   1       0.925  -0.130  -1.416  0.00  0.00    -0.345 OA
BRANCH  23  25
ATOM     24  C1  <0> A   1       0.473   2.023  -0.415  0.00  0.00    +0.061 C 
ATOM     25  C2  <0> A   1       0.286   0.508  -0.308  0.00  0.00    +0.192 C 
ENDBRANCH  23  25
ENDBRANCH  21  23
ENDBRANCH   1  21
BRANCH   4  26
ATOM     26  C11 <0> A   1       1.567  -3.696  -5.892  0.00  0.00    +0.298 C 
BRANCH  26  27
ATOM     27  C12 <0> A   1       0.986  -5.109  -5.806  0.00  0.00    +0.053 C 
BRANCH  27  28
ATOM     28  C13 <0> A   1       0.611  -5.593  -7.208  0.00  0.00    +0.204 C 
ATOM     29  C14 <0> A   1      -0.082  -6.954  -7.111  0.00  0.00    +0.046 C 
ATOM     30  C15 <0> A   1      -0.419  -7.454  -8.519  0.00  0.00    +0.187 C 
ATOM     31  C16 <0> A   1       0.880  -7.575  -9.327  0.00  0.00    +0.024 C 
ATOM     32  C17 <0> A   1       1.625  -6.262  -9.226  0.00  0.00    +0.497 C 
ATOM     33  O3  <0> A   1       2.055  -5.715 -10.214  0.00  0.00    -0.450 OA
ATOM     34  O4  <0> A   1       1.795  -5.719  -8.003  0.00  0.00    -0.368 OA
BRANCH  30  35
ATOM     35  O5  <0> A   1      -1.298  -6.527  -9.159  0.00  0.00    -0.564 OA
ATOM     36  H23 <0> A   1      -1.554  -6.782 -10.056  0.00  0.00    +0.388 HD
ENDBRANCH  30  35
ENDBRANCH  27  28
ENDBRANCH  26  27
ENDBRANCH   4  26
TORSDOF 10
