REMARK VINA RESULT:      -7.3     16.084     19.155
REMARK  Name = CHEMBL318102
REMARK  13 active torsions:
REMARK  status: ('A' for Active; 'I' for Inactive)
REMARK    1  A    between atoms: C1_1  and  C2_2
REMARK    2  A    between atoms: C2_2  and  C3_3
REMARK    3  A    between atoms: C2_2  and  C4_4
REMARK    4  A    between atoms: C4_4  and  C18_20
REMARK    5  A    between atoms: C5_5  and  C6_6
REMARK    6  A    between atoms: C5_5  and  C12_13
REMARK    7  A    between atoms: C19_21  and  C20_22
REMARK    8  A    between atoms: C20_22  and  C21_24
REMARK    9  A    between atoms: C20_22  and  O4_32
REMARK   10  A    between atoms: C21_24  and  C22_25
REMARK   11  A    between atoms: C22_25  and  C23_27
REMARK   12  A    between atoms: C22_25  and  O3_31
REMARK   13  A    between atoms: C23_27  and  C24_28
REMARK                            x       y       z     vdW  Elec       q    Type
REMARK                         _______ _______ _______ _____ _____    ______ ____
ROOT
ATOM      1  C4  <0> A   1     -26.161  -1.916  51.976  0.00  0.00    -0.029 C 
ATOM      2  C5  <0> A   1     -27.393  -1.634  51.475  0.00  0.00    -0.073 C 
ENDROOT
BRANCH   2   3
ATOM      3  C6  <0> A   1     -28.186  -2.697  50.820  0.00  0.00    -0.043 A 
ATOM      4  C7  <0> A   1     -27.979  -2.997  49.473  0.00  0.00    +0.057 A 
ATOM      5  C8  <0> A   1     -28.722  -3.990  48.868  0.00  0.00    -0.011 A 
ATOM      6  C9  <0> A   1     -29.672  -4.688  49.596  0.00  0.00    +0.099 A 
ATOM      7  C10 <0> A   1     -29.882  -4.395  50.934  0.00  0.00    -0.017 A 
ATOM      8  C11 <0> A   1     -29.140  -3.408  51.550  0.00  0.00    +0.054 A 
ATOM      9  F1  <0> A   1     -30.397  -5.659  48.998  0.00  0.00    -0.140 F 
ENDBRANCH   2   3
BRANCH   2  10
ATOM     10  C12 <0> A   1     -27.939  -0.265  51.584  0.00  0.00    -0.039 A 
ATOM     11  C13 <0> A   1     -27.642   0.688  50.607  0.00  0.00    +0.055 A 
ATOM     12  C14 <0> A   1     -28.153   1.964  50.714  0.00  0.00    -0.016 A 
ATOM     13  C15 <0> A   1     -28.963   2.301  51.787  0.00  0.00    +0.095 A 
ATOM     14  C16 <0> A   1     -29.261   1.360  52.759  0.00  0.00    -0.016 A 
ATOM     15  C17 <0> A   1     -28.760   0.079  52.659  0.00  0.00    +0.057 A 
ATOM     16  F2  <0> A   1     -29.462   3.554  51.887  0.00  0.00    -0.141 F 
ENDBRANCH   2  10
BRANCH   1  18
ATOM     17  C1  <0> A   1     -24.692  -1.393  53.904  0.00  0.00    +0.027 C 
ATOM     18  C2  <0> A   1     -25.353  -0.833  52.642  0.00  0.00    +0.017 C 
ATOM     19  C3  <0> A   1     -24.272  -0.337  51.679  0.00  0.00    +0.027 C 
ENDBRANCH   1  18
BRANCH   1  20
ATOM     20  C18 <0> A   1     -25.621  -3.271  51.868  0.00  0.00    -0.007 C 
ATOM     21  C19 <0> A   1     -24.825  -3.592  50.846  0.00  0.00    -0.035 C 
BRANCH  21  22
ATOM     22  C20 <0> A   1     -24.350  -5.012  50.679  0.00  0.00    +0.245 C 
BRANCH  22  23
ATOM     23  O4  <0> A   1     -23.547  -5.382  51.802  0.00  0.00    -0.537 OA
ATOM     24  H25 <0> A   1     -22.712  -5.807  51.566  0.00  0.00    +0.365 HD
ENDBRANCH  22  23
BRANCH  22  25
ATOM     25  C21 <0> A   1     -25.557  -5.947  50.585  0.00  0.00    -0.040 C 
BRANCH  25  26
ATOM     26  C22 <0> A   1     -25.195  -7.166  49.734  0.00  0.00    +0.231 C 
BRANCH  26  27
ATOM     27  O3  <0> A   1     -23.891  -6.988  49.178  0.00  0.00    -0.527 OA
ATOM     28  H24 <0> A   1     -23.427  -7.815  48.992  0.00  0.00    +0.350 HD
ENDBRANCH  26  27
BRANCH  26  29
ATOM     29  C23 <0> A   1     -25.210  -8.421  50.609  0.00  0.00    -0.102 C 
BRANCH  29  30
ATOM     30  C24 <0> A   1     -23.795  -8.818  50.942  0.00  0.00    +0.490 C 
ATOM     31  O1  <0> A   1     -23.205  -9.621  50.240  0.00  0.00    -0.681 OA
ATOM     32  O2  <0> A   1     -23.239  -8.335  51.914  0.00  0.00    -0.713 OA
ENDBRANCH  29  30
ENDBRANCH  26  29
ENDBRANCH  25  26
ENDBRANCH  22  25
ENDBRANCH  21  22
ENDBRANCH   1  20
TORSDOF 11
