REMARK VINA RESULT:      -7.4      2.588      3.578
REMARK  Name = CHEMBL168307
REMARK  4 active torsions:
REMARK  status: ('A' for Active; 'I' for Inactive)
REMARK    1  A    between atoms: C1_1  and  C2_2
REMARK    2  A    between atoms: C4_4  and  C21_25
REMARK    3  A    between atoms: C15_15  and  C16_16
REMARK    4  A    between atoms: C18_18  and  O3_24
REMARK                            x       y       z     vdW  Elec       q    Type
REMARK                         _______ _______ _______ _____ _____    ______ ____
ROOT
ATOM      1  C1  <0> A   1     -32.154  -2.617  56.088  0.00  0.00    +0.095 C 
ATOM      2  C2  <0> A   1     -31.178  -3.324  55.182  0.00  0.00    -0.072 A 
ATOM      3  C3  <0> A   1     -31.029  -4.697  55.271  0.00  0.00    +0.012 A 
ATOM      4  C4  <0> A   1     -30.139  -5.357  54.447  0.00  0.00    -0.048 A 
ATOM      5  C5  <0> A   1     -29.386  -4.638  53.523  0.00  0.00    -0.075 A 
ATOM      6  C6  <0> A   1     -29.534  -3.245  53.432  0.00  0.00    -0.039 A 
ATOM      7  C7  <0> A   1     -30.443  -2.596  54.269  0.00  0.00    +0.025 A 
ATOM      8  C8  <0> A   1     -28.625  -2.738  52.381  0.00  0.00    -0.048 A 
ATOM      9  C9  <0> A   1     -28.386  -1.452  51.900  0.00  0.00    +0.032 A 
ATOM     10  C10 <0> A   1     -27.465  -1.252  50.892  0.00  0.00    +0.018 A 
ATOM     11  C11 <0> A   1     -26.773  -2.323  50.351  0.00  0.00    +0.020 A 
ATOM     12  C12 <0> A   1     -26.996  -3.605  50.815  0.00  0.00    +0.039 A 
ATOM     13  C13 <0> A   1     -27.922  -3.822  51.831  0.00  0.00    -0.073 A 
ATOM     14  C14 <0> A   1     -28.371  -5.051  52.525  0.00  0.00    -0.015 C 
ATOM     15  C15 <0> A   1     -27.943  -6.301  52.294  0.00  0.00    +0.030 C 
ATOM     16  C21 <0> A   1     -29.983  -6.852  54.548  0.00  0.00    +0.096 C 
ENDROOT
BRANCH  15  17
ATOM     17  C16 <0> A   1     -26.693  -6.530  51.484  0.00  0.00    +0.233 C 
ATOM     18  C17 <0> A   1     -26.967  -7.586  50.409  0.00  0.00    +0.049 C 
ATOM     19  C18 <0> A   1     -25.683  -7.846  49.615  0.00  0.00    +0.189 C 
ATOM     20  C19 <0> A   1     -24.595  -8.338  50.578  0.00  0.00    +0.026 C 
ATOM     21  C20 <0> A   1     -24.502  -7.360  51.728  0.00  0.00    +0.496 C 
ATOM     22  O1  <0> A   1     -23.434  -6.921  52.085  0.00  0.00    -0.449 OA
ATOM     23  O2  <0> A   1     -25.644  -6.990  52.343  0.00  0.00    -0.365 OA
BRANCH  19  24
ATOM     24  O3  <0> A   1     -25.257  -6.637  48.983  0.00  0.00    -0.565 OA
ATOM     25  H17 <0> A   1     -25.344  -5.851  49.540  0.00  0.00    +0.388 HD
ENDBRANCH  19  24
ENDBRANCH  15  17
TORSDOF 2
