REMARK VINA RESULT:      -7.5      2.042      2.566
REMARK  Name = CHEMBL102168
REMARK  15 active torsions:
REMARK  status: ('A' for Active; 'I' for Inactive)
REMARK    1  A    between atoms: C1_1  and  C2_2
REMARK    2  A    between atoms: C2_2  and  C3_3
REMARK    3  A    between atoms: C2_2  and  C4_4
REMARK    4  A    between atoms: C6_6  and  S1_29
REMARK    5  A    between atoms: C8_8  and  C16_22
REMARK    6  A    between atoms: C9_9  and  O1_10
REMARK    7  A    between atoms: O1_10  and  C10_11
REMARK    8  A    between atoms: C10_11  and  C11_12
REMARK    9  A    between atoms: C11_12  and  C12_13
REMARK   10  A    between atoms: C11_12  and  O5_21
REMARK   11  A    between atoms: C12_13  and  C13_14
REMARK   12  A    between atoms: C13_14  and  C14_16
REMARK   13  A    between atoms: C13_14  and  O4_20
REMARK   14  A    between atoms: C14_16  and  C15_17
REMARK   15  A    between atoms: S1_29  and  C22_30
REMARK                            x       y       z     vdW  Elec       q    Type
REMARK                         _______ _______ _______ _____ _____    ______ ____
ROOT
ATOM      1  C4  <0> A   1     -15.271   6.303  45.525  0.00  0.00    -0.097 A 
ATOM      2  C5  <0> A   1     -16.392   6.232  46.331  0.00  0.00    +0.091 A 
ATOM      3  C6  <0> A   1     -16.743   7.308  47.137  0.00  0.00    -0.151 A 
ATOM      4  C7  <0> A   1     -15.969   8.460  47.135  0.00  0.00    +0.095 A 
ATOM      5  C8  <0> A   1     -14.839   8.535  46.325  0.00  0.00    -0.070 A 
ATOM      6  C9  <0> A   1     -14.489   7.446  45.521  0.00  0.00    +0.147 A 
ENDROOT
BRANCH   5   7
ATOM      7  C16 <0> A   1     -14.007   9.763  46.319  0.00  0.00    -0.063 A 
ATOM      8  C17 <0> A   1     -14.377  10.854  45.536  0.00  0.00    +0.083 A 
ATOM      9  C18 <0> A   1     -13.600  11.994  45.535  0.00  0.00    -0.012 A 
ATOM     10  C19 <0> A   1     -12.453  12.055  46.310  0.00  0.00    +0.107 A 
ATOM     11  C20 <0> A   1     -12.081  10.972  47.090  0.00  0.00    -0.018 A 
ATOM     12  C21 <0> A   1     -12.856   9.829  47.102  0.00  0.00    +0.055 A 
ATOM     13  F1  <0> A   1     -11.695  13.173  46.305  0.00  0.00    -0.137 F 
ENDBRANCH   5   7
BRANCH   1  15
ATOM     14  C1  <0> A   1     -14.090   4.124  45.475  0.00  0.00    +0.031 C 
ATOM     15  C2  <0> A   1     -14.896   5.132  44.654  0.00  0.00    +0.035 C 
ATOM     16  C3  <0> A   1     -16.166   4.461  44.126  0.00  0.00    +0.028 C 
ENDBRANCH   1  15
BRANCH   6  17
ATOM     17  O1  <0> A   1     -13.383   7.512  44.731  0.00  0.00    -0.317 OA
BRANCH  17  18
ATOM     18  C10 <0> A   1     -13.575   7.942  43.382  0.00  0.00    +0.156 C 
BRANCH  18  19
ATOM     19  C11 <0> A   1     -12.369   7.524  42.538  0.00  0.00    +0.226 C 
BRANCH  19  20
ATOM     20  O5  <0> A   1     -12.225   6.103  42.584  0.00  0.00    -0.530 OA
ATOM     21  H19 <0> A   1     -11.368   5.784  42.270  0.00  0.00    +0.363 HD
ENDBRANCH  19  20
BRANCH  19  22
ATOM     22  C12 <0> A   1     -12.582   7.967  41.089  0.00  0.00    -0.042 C 
BRANCH  22  23
ATOM     23  C13 <0> A   1     -12.935   9.455  41.057  0.00  0.00    +0.235 C 
BRANCH  23  24
ATOM     24  O4  <0> A   1     -11.739  10.231  41.168  0.00  0.00    -0.526 OA
ATOM     25  H18 <0> A   1     -11.007   9.905  40.626  0.00  0.00    +0.350 HD
ENDBRANCH  23  24
BRANCH  23  26
ATOM     26  C14 <0> A   1     -13.635   9.785  39.737  0.00  0.00    -0.101 C 
BRANCH  26  27
ATOM     27  C15 <0> A   1     -13.668  11.279  39.545  0.00  0.00    +0.491 C 
ATOM     28  O2  <0> A   1     -14.495  11.952  40.138  0.00  0.00    -0.680 OA
ATOM     29  O3  <0> A   1     -12.869  11.815  38.797  0.00  0.00    -0.712 OA
ENDBRANCH  26  27
ENDBRANCH  23  26
ENDBRANCH  22  23
ENDBRANCH  19  22
ENDBRANCH  18  19
ENDBRANCH  17  18
ENDBRANCH   6  17
BRANCH   3  30
ATOM     30  S1  <0> A   1     -18.174   7.211  48.160  0.00  0.00    +0.004 S 
BRANCH  30  31
ATOM     31  C22 <0> A   1     -17.591   7.685  49.754  0.00  0.00    -0.110 A 
ATOM     32  C23 <0> A   1     -17.907   8.936  50.268  0.00  0.00    +0.067 A 
ATOM     33  C24 <0> A   1     -17.448   9.304  51.517  0.00  0.00    +0.004 A 
ATOM     34  C25 <0> A   1     -16.675   8.427  52.259  0.00  0.00    +0.093 A 
ATOM     35  C26 <0> A   1     -16.360   7.178  51.750  0.00  0.00    +0.005 A 
ATOM     36  C27 <0> A   1     -16.821   6.803  50.503  0.00  0.00    +0.040 A 
ATOM     37  F2  <0> A   1     -16.228   8.789  53.481  0.00  0.00    -0.139 F 
ENDBRANCH  30  31
ENDBRANCH   3  30
TORSDOF 13
