REMARK VINA RESULT:      -7.5      3.748      9.974
REMARK  Name = CHEMBL400874
REMARK  18 active torsions:
REMARK  status: ('A' for Active; 'I' for Inactive)
REMARK    1  A    between atoms: C1_1  and  C2_2
REMARK    2  A    between atoms: C2_2  and  C3_3
REMARK    3  A    between atoms: C2_2  and  N1_4
REMARK    4  A    between atoms: C4_5  and  C29_34
REMARK    5  A    between atoms: C5_6  and  C23_27
REMARK    6  A    between atoms: C6_7  and  C17_21
REMARK    7  A    between atoms: C7_8  and  C8_9
REMARK    8  A    between atoms: N2_11  and  C9_12
REMARK    9  A    between atoms: C9_12  and  C10_13
REMARK   10  A    between atoms: C13_16  and  C16_19
REMARK   11  A    between atoms: C29_34  and  C30_35
REMARK   12  A    between atoms: C30_35  and  C31_36
REMARK   13  A    between atoms: C31_36  and  C32_38
REMARK   14  A    between atoms: C31_36  and  O5_46
REMARK   15  A    between atoms: C32_38  and  C33_39
REMARK   16  A    between atoms: C33_39  and  C34_41
REMARK   17  A    between atoms: C33_39  and  O4_45
REMARK   18  A    between atoms: C34_41  and  C35_42
REMARK                            x       y       z     vdW  Elec       q    Type
REMARK                         _______ _______ _______ _____ _____    ______ ____
ROOT
ATOM      1  N1  <0> A   1     -15.446   9.266  48.717  0.00  0.00    -0.401 N 
ATOM      2  C4  <0> A   1     -16.615   8.739  49.156  0.00  0.00    +0.074 C 
ATOM      3  C5  <0> A   1     -16.866   7.586  48.475  0.00  0.00    -0.121 C 
ATOM      4  C6  <0> A   1     -15.796   7.387  47.565  0.00  0.00    -0.060 C 
ATOM      5  C7  <0> A   1     -14.925   8.456  47.735  0.00  0.00    -0.031 C 
ENDROOT
BRANCH   3   6
ATOM      6  C23 <0> A   1     -18.043   6.701  48.653  0.00  0.00    -0.009 A 
ATOM      7  C24 <0> A   1     -17.940   5.549  49.429  0.00  0.00    +0.050 A 
ATOM      8  C25 <0> A   1     -19.038   4.728  49.592  0.00  0.00    -0.016 A 
ATOM      9  C26 <0> A   1     -20.241   5.049  48.985  0.00  0.00    +0.095 A 
ATOM     10  C27 <0> A   1     -20.348   6.194  48.212  0.00  0.00    -0.018 A 
ATOM     11  C28 <0> A   1     -19.257   7.024  48.049  0.00  0.00    +0.056 A 
ATOM     12  F1  <0> A   1     -21.313   4.242  49.147  0.00  0.00    -0.142 F 
ENDBRANCH   3   6
BRANCH   4  13
ATOM     13  C17 <0> A   1     -15.641   6.260  46.616  0.00  0.00    -0.009 A 
ATOM     14  C18 <0> A   1     -14.685   5.273  46.850  0.00  0.00    +0.025 A 
ATOM     15  C19 <0> A   1     -14.546   4.227  45.962  0.00  0.00    +0.003 A 
ATOM     16  C20 <0> A   1     -15.351   4.156  44.839  0.00  0.00    -0.003 A 
ATOM     17  C21 <0> A   1     -16.301   5.133  44.601  0.00  0.00    -0.000 A 
ATOM     18  C22 <0> A   1     -16.455   6.181  45.485  0.00  0.00    +0.010 A 
ENDBRANCH   4  13
BRANCH   5  19
ATOM     19  C8  <0> A   1     -13.677   8.678  47.001  0.00  0.00    +0.605 C 
ATOM     20  O1  <0> A   1     -12.661   8.099  47.341  0.00  0.00    -0.518 OA
ATOM     21  N2  <0> A   1     -13.652   9.524  45.952  0.00  0.00    -0.718 N 
ATOM     22  H10 <0> A   1     -14.444  10.034  45.723  0.00  0.00    +0.405 HD
BRANCH  21  23
ATOM     23  C9  <0> A   1     -12.430   9.671  45.159  0.00  0.00    +0.323 C 
BRANCH  23  24
ATOM     24  C10 <0> A   1     -12.788  10.107  43.762  0.00  0.00    -0.081 A 
ATOM     25  C11 <0> A   1     -13.853  10.967  43.561  0.00  0.00    +0.039 A 
ATOM     26  C12 <0> A   1     -14.187  11.371  42.285  0.00  0.00    +0.066 A 
ATOM     27  C13 <0> A   1     -13.447  10.911  41.195  0.00  0.00    -0.018 A 
ATOM     28  C14 <0> A   1     -12.373  10.043  41.404  0.00  0.00    +0.065 A 
ATOM     29  C15 <0> A   1     -12.047   9.651  42.686  0.00  0.00    +0.037 A 
BRANCH  27  30
ATOM     30  C16 <0> A   1     -13.787  11.326  39.866  0.00  0.00    +0.248 C 
ATOM     31  N3  <0> A   1     -14.056  11.656  38.814  0.00  0.00    -0.408 NA
ENDBRANCH  27  30
ENDBRANCH  23  24
ENDBRANCH  21  23
ENDBRANCH   5  19
BRANCH   1  33
ATOM     32  C1  <0> A   1     -15.784  11.677  48.945  0.00  0.00    +0.046 C 
ATOM     33  C2  <0> A   1     -14.836  10.505  49.206  0.00  0.00    +0.229 C 
ATOM     34  C3  <0> A   1     -14.572  10.387  50.709  0.00  0.00    +0.043 C 
ENDBRANCH   1  33
BRANCH   2  35
ATOM     35  C29 <0> A   1     -17.494   9.334  50.225  0.00  0.00    +0.116 C 
BRANCH  35  36
ATOM     36  C30 <0> A   1     -17.625   8.345  51.385  0.00  0.00    -0.007 C 
BRANCH  36  37
ATOM     37  C31 <0> A   1     -19.096   8.227  51.791  0.00  0.00    +0.212 C 
BRANCH  37  38
ATOM     38  O5  <0> A   1     -19.222   8.461  53.194  0.00  0.00    -0.541 OA
ATOM     39  H35 <0> A   1     -19.060   7.680  53.741  0.00  0.00    +0.362 HD
ENDBRANCH  37  38
BRANCH  37  40
ATOM     40  C32 <0> A   1     -19.921   9.263  51.024  0.00  0.00    -0.051 C 
BRANCH  40  41
ATOM     41  C33 <0> A   1     -21.321   8.705  50.759  0.00  0.00    +0.230 C 
BRANCH  41  42
ATOM     42  O4  <0> A   1     -21.401   7.365  51.252  0.00  0.00    -0.528 OA
ATOM     43  H34 <0> A   1     -20.743   6.767  50.872  0.00  0.00    +0.349 HD
ENDBRANCH  41  42
BRANCH  41  44
ATOM     44  C34 <0> A   1     -22.360   9.574  51.471  0.00  0.00    -0.103 C 
BRANCH  44  45
ATOM     45  C35 <0> A   1     -23.008  10.499  50.474  0.00  0.00    +0.490 C 
ATOM     46  O2  <0> A   1     -23.398  11.600  50.827  0.00  0.00    -0.681 OA
ATOM     47  O3  <0> A   1     -23.144  10.148  49.315  0.00  0.00    -0.713 OA
ENDBRANCH  44  45
ENDBRANCH  41  44
ENDBRANCH  40  41
ENDBRANCH  37  40
ENDBRANCH  36  37
ENDBRANCH  35  36
ENDBRANCH   2  35
TORSDOF 16
