REMARK VINA RESULT:      -7.3     15.786     19.409
REMARK  Name = CHEMBL429487
REMARK  16 active torsions:
REMARK  status: ('A' for Active; 'I' for Inactive)
REMARK    1  A    between atoms: C1_1  and  C2_2
REMARK    2  A    between atoms: C2_2  and  C3_3
REMARK    3  A    between atoms: C2_2  and  C4_4
REMARK    4  A    between atoms: C5_5  and  S1_35
REMARK    5  A    between atoms: C6_6  and  C21_29
REMARK    6  A    between atoms: C7_7  and  C15_22
REMARK    7  A    between atoms: N1_8  and  C8_9
REMARK    8  A    between atoms: C8_9  and  C9_10
REMARK    9  A    between atoms: C9_10  and  C10_11
REMARK   10  A    between atoms: C10_11  and  C11_13
REMARK   11  A    between atoms: C10_11  and  O4_21
REMARK   12  A    between atoms: C11_13  and  C12_14
REMARK   13  A    between atoms: C12_14  and  C13_16
REMARK   14  A    between atoms: C12_14  and  O3_20
REMARK   15  A    between atoms: C13_16  and  C14_17
REMARK   16  A    between atoms: S1_35  and  N2_38
REMARK                            x       y       z     vdW  Elec       q    Type
REMARK                         _______ _______ _______ _____ _____    ______ ____
ROOT
ATOM      1  C4  <0> A   1     -27.902  -4.462  51.947  0.00  0.00    +0.174 C 
ATOM      2  C5  <0> A   1     -28.576  -3.296  51.968  0.00  0.00    -0.735 C 
ATOM      3  C6  <0> A   1     -27.622  -2.250  51.989  0.00  0.00    -0.022 C 
ATOM      4  C7  <0> A   1     -26.373  -2.847  51.979  0.00  0.00    +0.059 C 
ATOM      5  N1  <0> A   1     -26.564  -4.203  51.961  0.00  0.00    -0.412 N 
ENDROOT
BRANCH   4   6
ATOM      6  C15 <0> A   1     -25.073  -2.148  51.992  0.00  0.00    -0.027 A 
ATOM      7  C16 <0> A   1     -24.433  -1.836  50.791  0.00  0.00    +0.045 A 
ATOM      8  C17 <0> A   1     -23.217  -1.183  50.809  0.00  0.00    -0.008 A 
ATOM      9  C18 <0> A   1     -22.632  -0.837  52.016  0.00  0.00    +0.105 A 
ATOM     10  C19 <0> A   1     -23.262  -1.145  53.212  0.00  0.00    -0.008 A 
ATOM     11  C20 <0> A   1     -24.481  -1.792  53.206  0.00  0.00    +0.075 A 
ATOM     12  F1  <0> A   1     -21.441  -0.200  52.028  0.00  0.00    -0.137 F 
ENDBRANCH   4   6
BRANCH   3  13
ATOM     13  C21 <0> A   1     -27.907  -0.796  52.015  0.00  0.00    -0.034 A 
ATOM     14  C22 <0> A   1     -28.132  -0.148  53.229  0.00  0.00    +0.061 A 
ATOM     15  C23 <0> A   1     -28.396   1.206  53.246  0.00  0.00    -0.000 A 
ATOM     16  C24 <0> A   1     -28.439   1.921  52.062  0.00  0.00    +0.003 A 
ATOM     17  C25 <0> A   1     -28.218   1.283  50.855  0.00  0.00    -0.009 A 
ATOM     18  C26 <0> A   1     -27.947  -0.069  50.825  0.00  0.00    +0.018 A 
ENDBRANCH   3  13
BRANCH   1  20
ATOM     19  C1  <0> A   1     -28.430  -6.412  50.509  0.00  0.00    +0.040 C 
ATOM     20  C2  <0> A   1     -28.529  -5.833  51.922  0.00  0.00    +0.059 C 
ATOM     21  C3  <0> A   1     -27.791  -6.749  52.901  0.00  0.00    +0.039 C 
ENDBRANCH   1  20
BRANCH   2  22
ATOM     22  S1  <0> A   1     -30.328  -3.106  51.970  0.00  0.00    +2.727 S 
ATOM     23  O5  <0> A   1     -30.585  -1.709  51.923  0.00  0.00    -0.947 OA
ATOM     24  O6  <0> A   1     -30.835  -4.008  50.994  0.00  0.00    -0.962 OA
BRANCH  22  25
ATOM     25  N2  <0> A   1     -30.877  -3.639  53.437  0.00  0.00    -1.011 NA
ATOM     26  C27 <0> A   1     -30.698  -2.946  54.722  0.00  0.00    +0.254 C 
ATOM     27  C28 <0> A   1     -31.350  -3.824  55.811  0.00  0.00    +0.028 C 
ATOM     28  C29 <0> A   1     -31.364  -5.232  55.161  0.00  0.00    +0.029 C 
ATOM     29  C30 <0> A   1     -31.633  -4.883  53.673  0.00  0.00    +0.268 C 
ENDBRANCH  22  25
ENDBRANCH   2  22
BRANCH   5  30
ATOM     30  C8  <0> A   1     -25.501  -5.213  51.951  0.00  0.00    +0.294 C 
BRANCH  30  31
ATOM     31  C9  <0> A   1     -24.974  -5.383  50.525  0.00  0.00    -0.015 C 
BRANCH  31  32
ATOM     32  C10 <0> A   1     -25.175  -6.833  50.078  0.00  0.00    +0.218 C 
BRANCH  32  33
ATOM     33  O4  <0> A   1     -24.975  -6.929  48.666  0.00  0.00    -0.540 OA
ATOM     34  H19 <0> A   1     -25.753  -7.230  48.178  0.00  0.00    +0.366 HD
ENDBRANCH  32  33
BRANCH  32  35
ATOM     35  C11 <0> A   1     -24.170  -7.734  50.798  0.00  0.00    -0.047 C 
BRANCH  35  36
ATOM     36  C12 <0> A   1     -24.710  -9.165  50.845  0.00  0.00    +0.232 C 
BRANCH  36  37
ATOM     37  O3  <0> A   1     -26.063  -9.180  50.386  0.00  0.00    -0.528 OA
ATOM     38  H18 <0> A   1     -26.713  -9.353  51.081  0.00  0.00    +0.350 HD
ENDBRANCH  36  37
BRANCH  36  39
ATOM     39  C13 <0> A   1     -23.856 -10.062  49.946  0.00  0.00    -0.102 C 
BRANCH  39  40
ATOM     40  C14 <0> A   1     -24.666 -10.488  48.748  0.00  0.00    +0.491 C 
ATOM     41  O1  <0> A   1     -24.776  -9.742  47.789  0.00  0.00    -0.681 OA
ATOM     42  O2  <0> A   1     -25.211 -11.578  48.738  0.00  0.00    -0.712 OA
ENDBRANCH  39  40
ENDBRANCH  36  39
ENDBRANCH  35  36
ENDBRANCH  32  35
ENDBRANCH  31  32
ENDBRANCH  30  31
ENDBRANCH   5  30
TORSDOF 14
