REMARK VINA RESULT:      -7.5      1.521      1.951
REMARK  Name = CHEMBL100721
REMARK  12 active torsions:
REMARK  status: ('A' for Active; 'I' for Inactive)
REMARK    1  A    between atoms: C6_6  and  C7_7
REMARK    2  A    between atoms: C7_7  and  C8_8
REMARK    3  A    between atoms: C7_7  and  C14_15
REMARK    4  A    between atoms: C19_20  and  O1_21
REMARK    5  A    between atoms: O1_21  and  C20_22
REMARK    6  A    between atoms: C20_22  and  C21_23
REMARK    7  A    between atoms: C21_23  and  C22_24
REMARK    8  A    between atoms: C21_23  and  O5_32
REMARK    9  A    between atoms: C22_24  and  C23_25
REMARK   10  A    between atoms: C23_25  and  C24_27
REMARK   11  A    between atoms: C23_25  and  O4_31
REMARK   12  A    between atoms: C24_27  and  C25_28
REMARK                            x       y       z     vdW  Elec       q    Type
REMARK                         _______ _______ _______ _____ _____    ______ ____
ROOT
ATOM      1  C14 <0> A   1     -13.780   7.308  46.293  0.00  0.00    -0.071 A 
ATOM      2  C15 <0> A   1     -14.574   7.565  47.395  0.00  0.00    +0.059 A 
ATOM      3  C16 <0> A   1     -15.905   7.190  47.392  0.00  0.00    -0.030 A 
ATOM      4  C17 <0> A   1     -16.446   6.555  46.288  0.00  0.00    +0.058 A 
ATOM      5  C18 <0> A   1     -15.656   6.295  45.184  0.00  0.00    -0.045 A 
ATOM      6  C19 <0> A   1     -14.321   6.677  45.183  0.00  0.00    +0.124 A 
ATOM      7 Cl1  <0> A   1     -16.333   5.498  43.799  0.00  0.00    -0.036 Cl
ATOM      8 Cl2  <0> A   1     -16.900   7.515  48.778  0.00  0.00    -0.053 Cl
ENDROOT
BRANCH   1   9
ATOM      9  C7  <0> A   1     -12.330   7.716  46.297  0.00  0.00    +0.157 C 
BRANCH   9  15
ATOM     10  C1  <0> A   1     -13.365   9.977  46.007  0.00  0.00    +0.049 A 
ATOM     11  C2  <0> A   1     -13.277  11.355  45.954  0.00  0.00    -0.018 A 
ATOM     12  C3  <0> A   1     -12.053  11.976  46.135  0.00  0.00    +0.100 A 
ATOM     13  C4  <0> A   1     -10.919  11.218  46.369  0.00  0.00    -0.011 A 
ATOM     14  C5  <0> A   1     -11.010   9.840  46.421  0.00  0.00    +0.071 A 
ATOM     15  C6  <0> A   1     -12.232   9.219  46.240  0.00  0.00    -0.086 A 
ATOM     16  F2  <0> A   1     -11.966  13.325  46.084  0.00  0.00    -0.140 F 
ENDBRANCH   9  15
BRANCH   9  17
ATOM     17  C8  <0> A   1     -11.671   7.217  47.557  0.00  0.00    -0.090 A 
ATOM     18  C9  <0> A   1     -11.815   7.921  48.738  0.00  0.00    +0.045 A 
ATOM     19  C10 <0> A   1     -11.211   7.463  49.894  0.00  0.00    -0.013 A 
ATOM     20  C11 <0> A   1     -10.462   6.300  49.868  0.00  0.00    +0.099 A 
ATOM     21  C12 <0> A   1     -10.318   5.595  48.685  0.00  0.00    -0.012 A 
ATOM     22  C13 <0> A   1     -10.926   6.052  47.532  0.00  0.00    +0.061 A 
ATOM     23  F1  <0> A   1      -9.870   5.852  50.997  0.00  0.00    -0.140 F 
ENDBRANCH   9  17
ENDBRANCH   1   9
BRANCH   6  24
ATOM     24  O1  <0> A   1     -13.543   6.427  44.097  0.00  0.00    -0.309 OA
BRANCH  24  25
ATOM     25  C20 <0> A   1     -13.516   7.423  43.073  0.00  0.00    +0.155 C 
BRANCH  25  26
ATOM     26  C21 <0> A   1     -12.156   7.402  42.375  0.00  0.00    +0.229 C 
BRANCH  26  27
ATOM     27  O5  <0> A   1     -11.703   6.052  42.255  0.00  0.00    -0.530 OA
ATOM     28  H21 <0> A   1     -11.198   5.876  41.448  0.00  0.00    +0.363 HD
ENDBRANCH  26  27
BRANCH  26  29
ATOM     29  C22 <0> A   1     -12.287   8.021  40.982  0.00  0.00    -0.041 C 
BRANCH  29  30
ATOM     30  C23 <0> A   1     -12.882   9.425  41.101  0.00  0.00    +0.235 C 
BRANCH  30  31
ATOM     31  O4  <0> A   1     -11.827  10.380  41.235  0.00  0.00    -0.526 OA
ATOM     32  H20 <0> A   1     -11.789  11.027  40.518  0.00  0.00    +0.350 HD
ENDBRANCH  30  31
BRANCH  30  33
ATOM     33  C24 <0> A   1     -13.699   9.742  39.847  0.00  0.00    -0.101 C 
BRANCH  33  34
ATOM     34  C25 <0> A   1     -13.694  11.229  39.606  0.00  0.00    +0.490 C 
ATOM     35  O2  <0> A   1     -14.464  11.949  40.220  0.00  0.00    -0.680 OA
ATOM     36  O3  <0> A   1     -12.921  11.714  38.797  0.00  0.00    -0.712 OA
ENDBRANCH  33  34
ENDBRANCH  30  33
ENDBRANCH  29  30
ENDBRANCH  26  29
ENDBRANCH  25  26
ENDBRANCH  24  25
ENDBRANCH   6  24
TORSDOF 12
