REMARK VINA RESULT:      -7.0     18.283     21.632
REMARK  Name = CHEMBL101512
REMARK  10 active torsions:
REMARK  status: ('A' for Active; 'I' for Inactive)
REMARK    1  A    between atoms: C5_5  and  O1_15
REMARK    2  A    between atoms: C6_6  and  C7_7
REMARK    3  A    between atoms: O1_15  and  C14_16
REMARK    4  A    between atoms: C14_16  and  C15_17
REMARK    5  A    between atoms: C15_17  and  C16_18
REMARK    6  A    between atoms: C15_17  and  O5_26
REMARK    7  A    between atoms: C16_18  and  C17_19
REMARK    8  A    between atoms: C17_19  and  C18_21
REMARK    9  A    between atoms: C17_19  and  O4_25
REMARK   10  A    between atoms: C18_21  and  C19_22
REMARK                            x       y       z     vdW  Elec       q    Type
REMARK                         _______ _______ _______ _____ _____    ______ ____
ROOT
ATOM      1  C1  <0> A   1     -27.211  -6.170  52.828  0.00  0.00    +0.083 A 
ATOM      2  C2  <0> A   1     -28.467  -6.745  52.871  0.00  0.00    -0.036 A 
ATOM      3  C3  <0> A   1     -28.953  -7.442  51.778  0.00  0.00    +0.071 A 
ATOM      4  C4  <0> A   1     -28.184  -7.571  50.634  0.00  0.00    -0.052 A 
ATOM      5  C5  <0> A   1     -26.923  -7.000  50.578  0.00  0.00    +0.141 A 
ATOM      6  C6  <0> A   1     -26.429  -6.294  51.680  0.00  0.00    -0.068 A 
ATOM      7 Cl1  <0> A   1     -28.802  -8.448  49.270  0.00  0.00    -0.034 Cl
ATOM      8 Cl2  <0> A   1     -29.439  -6.591  54.300  0.00  0.00    -0.050 Cl
ENDROOT
BRANCH   6   9
ATOM      9  C7  <0> A   1     -25.085  -5.681  51.629  0.00  0.00    +0.082 C 
ATOM     10  C8  <0> A   1     -24.958  -4.368  51.467  0.00  0.00    -0.127 C 
ATOM     11  C9  <0> A   1     -26.173  -3.465  51.480  0.00  0.00    +0.074 C 
ATOM     12  C10 <0> A   1     -25.922  -2.326  52.474  0.00  0.00    +0.018 C 
ATOM     13  C11 <0> A   1     -24.613  -1.618  52.116  0.00  0.00    +0.006 C 
ATOM     14  C12 <0> A   1     -23.441  -2.588  52.268  0.00  0.00    +0.018 C 
ATOM     15  C13 <0> A   1     -23.598  -3.737  51.273  0.00  0.00    +0.073 C 
ATOM     16  F1  <0> A   1     -23.984  -6.455  51.746  0.00  0.00    -0.131 F 
ENDBRANCH   6   9
BRANCH   5  17
ATOM     17  O1  <0> A   1     -26.168  -7.126  49.455  0.00  0.00    -0.307 OA
BRANCH  17  18
ATOM     18  C14 <0> A   1     -25.447  -8.349  49.291  0.00  0.00    +0.160 C 
BRANCH  18  19
ATOM     19  C15 <0> A   1     -24.491  -8.223  48.103  0.00  0.00    +0.229 C 
BRANCH  19  20
ATOM     20  O5  <0> A   1     -23.203  -7.815  48.569  0.00  0.00    -0.530 OA
ATOM     21  H22 <0> A   1     -23.231  -7.159  49.280  0.00  0.00    +0.364 HD
ENDBRANCH  19  20
BRANCH  19  22
ATOM     22  C16 <0> A   1     -24.373  -9.575  47.396  0.00  0.00    -0.040 C 
BRANCH  22  23
ATOM     23  C17 <0> A   1     -25.018 -10.659  48.261  0.00  0.00    +0.235 C 
BRANCH  23  24
ATOM     24  O4  <0> A   1     -25.939 -11.414  47.470  0.00  0.00    -0.527 OA
ATOM     25  H21 <0> A   1     -26.263 -12.215  47.901  0.00  0.00    +0.351 HD
ENDBRANCH  23  24
BRANCH  23  26
ATOM     26  C18 <0> A   1     -23.934 -11.590  48.806  0.00  0.00    -0.100 C 
BRANCH  26  27
ATOM     27  C19 <0> A   1     -24.533 -12.510  49.838  0.00  0.00    +0.491 C 
ATOM     28  O2  <0> A   1     -25.301 -13.393  49.495  0.00  0.00    -0.680 OA
ATOM     29  O3  <0> A   1     -24.249 -12.373  51.016  0.00  0.00    -0.713 OA
ENDBRANCH  26  27
ENDBRANCH  23  26
ENDBRANCH  22  23
ENDBRANCH  19  22
ENDBRANCH  18  19
ENDBRANCH  17  18
ENDBRANCH   5  17
TORSDOF 10
