REMARK VINA RESULT:      -7.7      3.170      5.454
REMARK  Name = CHEMBL120949
REMARK  9 active torsions:
REMARK  status: ('A' for Active; 'I' for Inactive)
REMARK    1  A    between atoms: C1_1  and  C2_2
REMARK    2  A    between atoms: C2_2  and  C3_3
REMARK    3  A    between atoms: C2_2  and  C4_4
REMARK    4  A    between atoms: C6_6  and  C21_28
REMARK    5  A    between atoms: C7_7  and  C15_21
REMARK    6  A    between atoms: N1_8  and  C8_9
REMARK    7  A    between atoms: C8_9  and  C9_10
REMARK    8  A    between atoms: C9_10  and  C10_11
REMARK    9  A    between atoms: C12_14  and  O3_20
REMARK                            x       y       z     vdW  Elec       q    Type
REMARK                         _______ _______ _______ _____ _____    ______ ____
ROOT
ATOM      1  C4  <0> A   1     -14.877   6.356  45.309  0.00  0.00    +0.044 C 
ATOM      2  C5  <0> A   1     -16.102   5.877  45.598  0.00  0.00    -0.033 C 
ATOM      3  C6  <0> A   1     -16.571   6.560  46.746  0.00  0.00    -0.106 C 
ATOM      4  C7  <0> A   1     -15.577   7.452  47.115  0.00  0.00    +0.064 C 
ATOM      5  N1  <0> A   1     -14.545   7.310  46.227  0.00  0.00    -0.427 N 
ENDROOT
BRANCH   4   6
ATOM      6  C15 <0> A   1     -15.622   8.382  48.262  0.00  0.00    -0.028 A 
ATOM      7  C16 <0> A   1     -15.068   8.010  49.487  0.00  0.00    +0.043 A 
ATOM      8  C17 <0> A   1     -15.111   8.883  50.555  0.00  0.00    -0.008 A 
ATOM      9  C18 <0> A   1     -15.704  10.128  50.411  0.00  0.00    +0.104 A 
ATOM     10  C19 <0> A   1     -16.256  10.502  49.196  0.00  0.00    -0.007 A 
ATOM     11  C20 <0> A   1     -16.212   9.640  48.121  0.00  0.00    +0.068 A 
ATOM     12  F1  <0> A   1     -15.744  10.979  51.459  0.00  0.00    -0.137 F 
ENDBRANCH   4   6
BRANCH   3  13
ATOM     13  C21 <0> A   1     -17.873   6.359  47.423  0.00  0.00    -0.053 A 
ATOM     14  C22 <0> A   1     -17.949   5.637  48.620  0.00  0.00    +0.065 A 
ATOM     15  C23 <0> A   1     -19.189   5.477  49.213  0.00  0.00    -0.035 A 
ATOM     16  C24 <0> A   1     -20.304   6.032  48.610  0.00  0.00    +0.243 A 
ATOM     17  N2  <0> A   1     -20.202   6.707  47.480  0.00  0.00    -0.481 NA
ATOM     18  C25 <0> A   1     -19.043   6.890  46.882  0.00  0.00    +0.260 A 
ENDBRANCH   3  13
BRANCH   1  20
ATOM     19  C1  <0> A   1     -14.268   4.426  43.877  0.00  0.00    +0.040 C 
ATOM     20  C2  <0> A   1     -14.010   5.907  44.161  0.00  0.00    +0.048 C 
ATOM     21  C3  <0> A   1     -14.345   6.731  42.917  0.00  0.00    +0.032 C 
ENDBRANCH   1  20
BRANCH   5  22
ATOM     22  C8  <0> A   1     -13.287   8.062  46.255  0.00  0.00    +0.292 C 
BRANCH  22  23
ATOM     23  C9  <0> A   1     -13.491   9.420  45.580  0.00  0.00    +0.052 C 
BRANCH  23  24
ATOM     24  C10 <0> A   1     -12.478  10.423  46.136  0.00  0.00    +0.203 C 
ATOM     25  C11 <0> A   1     -12.480  10.356  47.667  0.00  0.00    +0.045 C 
ATOM     26  C12 <0> A   1     -11.495  11.391  48.220  0.00  0.00    +0.186 C 
ATOM     27  C13 <0> A   1     -11.923  12.786  47.749  0.00  0.00    +0.024 C 
ATOM     28  C14 <0> A   1     -12.100  12.746  46.246  0.00  0.00    +0.497 C 
ATOM     29  O1  <0> A   1     -11.597  13.585  45.538  0.00  0.00    -0.449 OA
ATOM     30  O2  <0> A   1     -12.837  11.745  45.720  0.00  0.00    -0.370 OA
BRANCH  26  31
ATOM     31  O3  <0> A   1     -10.179  11.104  47.740  0.00  0.00    -0.564 OA
ATOM     32  H19 <0> A   1      -9.542  11.815  47.893  0.00  0.00    +0.388 HD
ENDBRANCH  26  31
ENDBRANCH  23  24
ENDBRANCH  22  23
ENDBRANCH   5  22
TORSDOF 7
