REMARK VINA RESULT:      -7.8      1.592      4.064
REMARK  Name = CHEMBL168307
REMARK  4 active torsions:
REMARK  status: ('A' for Active; 'I' for Inactive)
REMARK    1  A    between atoms: C1_1  and  C2_2
REMARK    2  A    between atoms: C4_4  and  C21_25
REMARK    3  A    between atoms: C15_15  and  C16_16
REMARK    4  A    between atoms: C18_18  and  O3_24
REMARK                            x       y       z     vdW  Elec       q    Type
REMARK                         _______ _______ _______ _____ _____    ______ ____
ROOT
ATOM      1  C1  <0> A   1     -26.646   0.450  52.937  0.00  0.00    +0.095 C 
ATOM      2  C2  <0> A   1     -26.275  -0.962  52.563  0.00  0.00    -0.072 A 
ATOM      3  C3  <0> A   1     -24.988  -1.246  52.138  0.00  0.00    +0.012 A 
ATOM      4  C4  <0> A   1     -24.636  -2.535  51.793  0.00  0.00    -0.048 A 
ATOM      5  C5  <0> A   1     -25.579  -3.556  51.870  0.00  0.00    -0.075 A 
ATOM      6  C6  <0> A   1     -26.885  -3.272  52.299  0.00  0.00    -0.039 A 
ATOM      7  C7  <0> A   1     -27.221  -1.963  52.650  0.00  0.00    +0.025 A 
ATOM      8  C8  <0> A   1     -27.673  -4.523  52.289  0.00  0.00    -0.048 A 
ATOM      9  C9  <0> A   1     -29.000  -4.789  52.619  0.00  0.00    +0.032 A 
ATOM     10  C10 <0> A   1     -29.493  -6.074  52.517  0.00  0.00    +0.018 A 
ATOM     11  C11 <0> A   1     -28.677  -7.107  52.086  0.00  0.00    +0.020 A 
ATOM     12  C12 <0> A   1     -27.358  -6.862  51.754  0.00  0.00    +0.039 A 
ATOM     13  C13 <0> A   1     -26.847  -5.571  51.853  0.00  0.00    -0.073 A 
ATOM     14  C14 <0> A   1     -25.506  -5.006  51.574  0.00  0.00    -0.015 C 
ATOM     15  C15 <0> A   1     -24.431  -5.679  51.138  0.00  0.00    +0.030 C 
ATOM     16  C21 <0> A   1     -23.234  -2.837  51.333  0.00  0.00    +0.096 C 
ENDROOT
BRANCH  15  17
ATOM     17  C16 <0> A   1     -24.588  -7.069  50.580  0.00  0.00    +0.233 C 
ATOM     18  C17 <0> A   1     -23.935  -8.078  51.530  0.00  0.00    +0.049 C 
ATOM     19  C18 <0> A   1     -24.059  -9.486  50.939  0.00  0.00    +0.189 C 
ATOM     20  C19 <0> A   1     -23.363  -9.514  49.573  0.00  0.00    +0.026 C 
ATOM     21  C20 <0> A   1     -23.904  -8.373  48.741  0.00  0.00    +0.496 C 
ATOM     22  O1  <0> A   1     -24.282  -8.554  47.608  0.00  0.00    -0.449 OA
ATOM     23  O2  <0> A   1     -23.952  -7.146  49.300  0.00  0.00    -0.365 OA
BRANCH  19  24
ATOM     24  O3  <0> A   1     -25.441  -9.819  50.783  0.00  0.00    -0.565 OA
ATOM     25  H17 <0> A   1     -26.038  -9.281  51.321  0.00  0.00    +0.388 HD
ENDBRANCH  19  24
ENDBRANCH  15  17
TORSDOF 2
