REMARK VINA RESULT:      -8.6      6.648      9.460
REMARK  Name = CHEMBL444210
REMARK  17 active torsions:
REMARK  status: ('A' for Active; 'I' for Inactive)
REMARK    1  A    between atoms: C1_1  and  C2_2
REMARK    2  A    between atoms: C2_2  and  C3_3
REMARK    3  A    between atoms: C2_2  and  C4_4
REMARK    4  A    between atoms: C5_5  and  C20_29
REMARK    5  A    between atoms: C6_7  and  C14_22
REMARK    6  A    between atoms: N2_8  and  C7_9
REMARK    7  A    between atoms: C7_9  and  C8_10
REMARK    8  A    between atoms: C8_10  and  C9_11
REMARK    9  A    between atoms: C9_11  and  C10_13
REMARK   10  A    between atoms: C9_11  and  O4_21
REMARK   11  A    between atoms: C10_13  and  C11_14
REMARK   12  A    between atoms: C11_14  and  C12_16
REMARK   13  A    between atoms: C11_14  and  O3_20
REMARK   14  A    between atoms: C12_16  and  C13_17
REMARK   15  A    between atoms: N3_31  and  C21_32
REMARK   16  A    between atoms: C21_32  and  C22_33
REMARK   17  A    between atoms: C26_37  and  C28_39
REMARK                            x       y       z     vdW  Elec       q    Type
REMARK                         _______ _______ _______ _____ _____    ______ ____
ROOT
ATOM      1  C4  <0> A   1     -12.740   8.479  47.943  0.00  0.00    +0.092 C 
ATOM      2  C5  <0> A   1     -12.016   7.322  47.940  0.00  0.00    -0.064 C 
ATOM      3  N1  <0> A   1     -11.896   6.910  46.661  0.00  0.00    -0.446 NA
ATOM      4  C6  <0> A   1     -12.513   7.761  45.879  0.00  0.00    +0.246 C 
ATOM      5  N2  <0> A   1     -13.056   8.752  46.649  0.00  0.00    -0.436 N 
ENDROOT
BRANCH   4   6
ATOM      6  C14 <0> A   1     -12.611   7.664  44.406  0.00  0.00    -0.022 A 
ATOM      7  C15 <0> A   1     -11.511   7.983  43.608  0.00  0.00    +0.046 A 
ATOM      8  C16 <0> A   1     -11.607   7.891  42.236  0.00  0.00    -0.001 A 
ATOM      9  C17 <0> A   1     -12.794   7.480  41.648  0.00  0.00    +0.109 A 
ATOM     10  C18 <0> A   1     -13.889   7.162  42.436  0.00  0.00    -0.010 A 
ATOM     11  C19 <0> A   1     -13.801   7.246  43.809  0.00  0.00    +0.094 A 
ATOM     12  F1  <0> A   1     -12.884   7.391  40.303  0.00  0.00    -0.136 F 
ENDBRANCH   4   6
BRANCH   2  13
ATOM     13  C20 <0> A   1     -11.464   6.642  49.126  0.00  0.00    +0.610 C 
ATOM     14  O5  <0> A   1     -10.931   7.291  50.006  0.00  0.00    -0.540 OA
ATOM     15  N3  <0> A   1     -11.546   5.301  49.234  0.00  0.00    -0.715 N 
ATOM     16  H24 <0> A   1     -11.969   4.784  48.531  0.00  0.00    +0.410 HD
BRANCH  15  17
ATOM     17  C21 <0> A   1     -10.996   4.626  50.411  0.00  0.00    +0.320 C 
BRANCH  17  18
ATOM     18  C22 <0> A   1      -9.579   4.198  50.129  0.00  0.00    -0.106 A 
ATOM     19  C23 <0> A   1      -8.688   4.029  51.173  0.00  0.00    +0.035 A 
ATOM     20  C24 <0> A   1      -7.385   3.636  50.921  0.00  0.00    +0.010 A 
ATOM     21  C25 <0> A   1      -6.968   3.412  49.625  0.00  0.00    +0.034 A 
ATOM     22  C26 <0> A   1      -7.862   3.580  48.569  0.00  0.00    -0.054 A 
ATOM     23  C27 <0> A   1      -9.174   3.971  48.829  0.00  0.00    +0.047 A 
BRANCH  22  24
ATOM     24  C28 <0> A   1      -7.419   3.341  47.174  0.00  0.00    -0.080 A 
ATOM     25  C29 <0> A   1      -6.871   2.110  46.815  0.00  0.00    +0.058 A 
ATOM     26  C30 <0> A   1      -6.459   1.892  45.516  0.00  0.00    +0.006 A 
ATOM     27  C31 <0> A   1      -6.591   2.891  44.569  0.00  0.00    +0.045 A 
ATOM     28  C32 <0> A   1      -7.134   4.114  44.916  0.00  0.00    -0.017 A 
ATOM     29  C33 <0> A   1      -7.555   4.343  46.213  0.00  0.00    +0.108 A 
ATOM     30  F2  <0> A   1      -8.091   5.537  46.551  0.00  0.00    -0.134 F 
ENDBRANCH  22  24
ENDBRANCH  17  18
ENDBRANCH  15  17
ENDBRANCH   2  13
BRANCH   1  32
ATOM     31  C1  <0> A   1     -12.353  10.618  49.136  0.00  0.00    +0.032 C 
ATOM     32  C2  <0> A   1     -13.122   9.296  49.150  0.00  0.00    +0.086 C 
ATOM     33  C3  <0> A   1     -14.625   9.579  49.119  0.00  0.00    +0.034 C 
ENDBRANCH   1  32
BRANCH   5  34
ATOM     34  C7  <0> A   1     -13.833   9.897  46.169  0.00  0.00    +0.304 C 
BRANCH  34  35
ATOM     35  C8  <0> A   1     -12.895  10.907  45.505  0.00  0.00    -0.015 C 
BRANCH  35  36
ATOM     36  C9  <0> A   1     -13.678  11.737  44.487  0.00  0.00    +0.219 C 
BRANCH  36  37
ATOM     37  O4  <0> A   1     -12.881  12.842  44.057  0.00  0.00    -0.538 OA
ATOM     38  H19 <0> A   1     -12.930  13.612  44.641  0.00  0.00    +0.367 HD
ENDBRANCH  36  37
BRANCH  36  39
ATOM     39  C10 <0> A   1     -14.032  10.863  43.281  0.00  0.00    -0.046 C 
BRANCH  39  40
ATOM     40  C11 <0> A   1     -13.414  11.466  42.017  0.00  0.00    +0.232 C 
BRANCH  40  41
ATOM     41  O3  <0> A   1     -12.057  11.032  41.898  0.00  0.00    -0.527 OA
ATOM     42  H18 <0> A   1     -11.612  10.893  42.745  0.00  0.00    +0.351 HD
ENDBRANCH  40  41
BRANCH  40  43
ATOM     43  C12 <0> A   1     -14.206  11.002  40.792  0.00  0.00    -0.102 C 
BRANCH  43  44
ATOM     44  C13 <0> A   1     -13.343  11.119  39.562  0.00  0.00    +0.491 C 
ATOM     45  O1  <0> A   1     -13.470  12.076  38.817  0.00  0.00    -0.681 OA
ATOM     46  O2  <0> A   1     -12.519  10.256  39.311  0.00  0.00    -0.712 OA
ENDBRANCH  43  44
ENDBRANCH  40  43
ENDBRANCH  39  40
ENDBRANCH  36  39
ENDBRANCH  35  36
ENDBRANCH  34  35
ENDBRANCH   5  34
TORSDOF 15
