REMARK VINA RESULT:      -8.1     17.840     21.399
REMARK  Name = CHEMBL333687
REMARK  11 active torsions:
REMARK  status: ('A' for Active; 'I' for Inactive)
REMARK    1  A    between atoms: C1_1  and  C2_2
REMARK    2  A    between atoms: C2_2  and  C3_3
REMARK    3  A    between atoms: C2_2  and  C4_4
REMARK    4  A    between atoms: C5_5  and  C27_34
REMARK    5  A    between atoms: C6_6  and  C21_28
REMARK    6  A    between atoms: C7_7  and  C15_21
REMARK    7  A    between atoms: N1_8  and  C8_9
REMARK    8  A    between atoms: C8_9  and  C9_10
REMARK    9  A    between atoms: C9_10  and  C10_11
REMARK   10  A    between atoms: C12_14  and  O3_20
REMARK   11  A    between atoms: N2_36  and  C28_37
REMARK                            x       y       z     vdW  Elec       q    Type
REMARK                         _______ _______ _______ _____ _____    ______ ____
ROOT
ATOM      1  C4  <0> A   1     -28.493  -4.387  51.983  0.00  0.00    +0.099 C 
ATOM      2  C5  <0> A   1     -27.136  -4.555  52.007  0.00  0.00    -0.208 C 
ATOM      3  C6  <0> A   1     -26.551  -3.210  51.887  0.00  0.00    -0.067 C 
ATOM      4  C7  <0> A   1     -27.620  -2.340  51.800  0.00  0.00    +0.066 C 
ATOM      5  N1  <0> A   1     -28.775  -3.076  51.856  0.00  0.00    -0.421 N 
ENDROOT
BRANCH   4   6
ATOM      6  C15 <0> A   1     -27.534  -0.872  51.667  0.00  0.00    -0.032 A 
ATOM      7  C16 <0> A   1     -27.492  -0.285  50.400  0.00  0.00    +0.049 A 
ATOM      8  C17 <0> A   1     -27.412   1.087  50.281  0.00  0.00    -0.012 A 
ATOM      9  C18 <0> A   1     -27.373   1.882  51.415  0.00  0.00    +0.107 A 
ATOM     10  C19 <0> A   1     -27.414   1.306  52.675  0.00  0.00    -0.009 A 
ATOM     11  C20 <0> A   1     -27.499  -0.065  52.806  0.00  0.00    +0.078 A 
ATOM     12  F1  <0> A   1     -27.294   3.226  51.293  0.00  0.00    -0.137 F 
ENDBRANCH   4   6
BRANCH   3  13
ATOM     13  C21 <0> A   1     -25.112  -2.862  51.864  0.00  0.00    -0.015 A 
ATOM     14  C22 <0> A   1     -24.335  -3.166  50.746  0.00  0.00    +0.018 A 
ATOM     15  C23 <0> A   1     -22.995  -2.839  50.731  0.00  0.00    +0.001 A 
ATOM     16  C24 <0> A   1     -22.422  -2.209  51.821  0.00  0.00    +0.003 A 
ATOM     17  C25 <0> A   1     -23.186  -1.904  52.933  0.00  0.00    +0.004 A 
ATOM     18  C26 <0> A   1     -24.528  -2.221  52.958  0.00  0.00    +0.022 A 
ENDBRANCH   3  13
BRANCH   2  19
ATOM     19  C27 <0> A   1     -26.408  -5.827  52.128  0.00  0.00    +0.607 C 
ATOM     20  O4  <0> A   1     -26.400  -6.426  53.187  0.00  0.00    -0.509 OA
ATOM     21  N2  <0> A   1     -25.748  -6.330  51.066  0.00  0.00    -0.668 N 
ATOM     22  H28 <0> A   1     -25.689  -5.817  50.244  0.00  0.00    +0.410 HD
BRANCH  21  23
ATOM     23  C28 <0> A   1     -25.150  -7.591  51.147  0.00  0.00    +0.149 A 
ATOM     24  C29 <0> A   1     -25.738  -8.682  50.520  0.00  0.00    -0.024 A 
ATOM     25  C30 <0> A   1     -25.145  -9.926  50.602  0.00  0.00    +0.024 A 
ATOM     26  C31 <0> A   1     -23.966 -10.087  51.306  0.00  0.00    -0.014 A 
ATOM     27  C32 <0> A   1     -23.377  -9.003  51.932  0.00  0.00    +0.024 A 
ATOM     28  C33 <0> A   1     -23.963  -7.754  51.849  0.00  0.00    +0.014 A 
ENDBRANCH  21  23
ENDBRANCH   2  19
BRANCH   1  30
ATOM     29  C1  <0> A   1     -29.164  -6.593  51.071  0.00  0.00    +0.041 C 
ATOM     30  C2  <0> A   1     -29.511  -5.494  52.078  0.00  0.00    +0.048 C 
ATOM     31  C3  <0> A   1     -29.501  -6.077  53.492  0.00  0.00    +0.038 C 
ENDBRANCH   1  30
BRANCH   5  32
ATOM     32  C8  <0> A   1     -30.127  -2.516  51.789  0.00  0.00    +0.298 C 
BRANCH  32  33
ATOM     33  C9  <0> A   1     -30.578  -2.104  53.192  0.00  0.00    +0.052 C 
BRANCH  33  34
ATOM     34  C10 <0> A   1     -31.180  -0.698  53.141  0.00  0.00    +0.204 C 
ATOM     35  C11 <0> A   1     -32.704  -0.791  53.267  0.00  0.00    +0.046 C 
ATOM     36  C12 <0> A   1     -33.307   0.614  53.174  0.00  0.00    +0.187 C 
ATOM     37  C13 <0> A   1     -32.922   1.231  51.824  0.00  0.00    +0.025 C 
ATOM     38  C14 <0> A   1     -31.422   1.117  51.660  0.00  0.00    +0.497 C 
ATOM     39  O1  <0> A   1     -30.760   2.072  51.330  0.00  0.00    -0.448 OA
ATOM     40  O2  <0> A   1     -30.846  -0.079  51.895  0.00  0.00    -0.370 OA
BRANCH  36  41
ATOM     41  O3  <0> A   1     -32.799   1.424  54.235  0.00  0.00    -0.564 OA
ATOM     42  H18 <0> A   1     -33.483   1.789  54.813  0.00  0.00    +0.388 HD
ENDBRANCH  36  41
ENDBRANCH  33  34
ENDBRANCH  32  33
ENDBRANCH   5  32
TORSDOF 9
