REMARK VINA RESULT:      -7.9      1.309      1.648
REMARK  Name = CHEMBL143347
REMARK  12 active torsions:
REMARK  status: ('A' for Active; 'I' for Inactive)
REMARK    1  A    between atoms: C1_1  and  C2_2
REMARK    2  A    between atoms: C2_2  and  C3_3
REMARK    3  A    between atoms: C2_2  and  C4_4
REMARK    4  A    between atoms: C5_5  and  C19_22
REMARK    5  A    between atoms: C6_6  and  C13_15
REMARK    6  A    between atoms: C20_23  and  C21_24
REMARK    7  A    between atoms: C21_24  and  C22_25
REMARK    8  A    between atoms: C21_24  and  O4_33
REMARK    9  A    between atoms: C22_25  and  C23_26
REMARK   10  A    between atoms: C23_26  and  C24_28
REMARK   11  A    between atoms: C23_26  and  O3_32
REMARK   12  A    between atoms: C24_28  and  C25_29
REMARK                            x       y       z     vdW  Elec       q    Type
REMARK                         _______ _______ _______ _____ _____    ______ ____
ROOT
ATOM      1  C4  <0> A   1     -15.076   6.346  45.812  0.00  0.00    +0.189 A 
ATOM      2  C5  <0> A   1     -14.395   7.545  46.071  0.00  0.00    -0.076 A 
ATOM      3  C6  <0> A   1     -14.900   8.426  47.037  0.00  0.00    +0.019 A 
ATOM      4  C7  <0> A   1     -16.090   8.054  47.711  0.00  0.00    -0.082 A 
ATOM      5  C8  <0> A   1     -16.659   8.880  48.690  0.00  0.00    +0.058 A 
ATOM      6  C9  <0> A   1     -17.805   8.490  49.318  0.00  0.00    -0.033 A 
ATOM      7  C10 <0> A   1     -18.416   7.278  48.999  0.00  0.00    +0.042 A 
ATOM      8  C11 <0> A   1     -17.888   6.454  48.054  0.00  0.00    +0.070 A 
ATOM      9  C12 <0> A   1     -16.709   6.823  47.383  0.00  0.00    +0.134 A 
ATOM     10  N1  <0> A   1     -16.176   6.030  46.446  0.00  0.00    -0.465 NA
ATOM     11 Cl1  <0> A   1     -18.509   9.513  50.531  0.00  0.00    -0.066 Cl
ENDROOT
BRANCH   3  12
ATOM     12  C13 <0> A   1     -14.215   9.701  47.342  0.00  0.00    -0.064 A 
ATOM     13  C14 <0> A   1     -13.208   9.741  48.308  0.00  0.00    +0.073 A 
ATOM     14  C15 <0> A   1     -12.573  10.931  48.588  0.00  0.00    -0.006 A 
ATOM     15  C16 <0> A   1     -12.933  12.088  47.914  0.00  0.00    +0.110 A 
ATOM     16  C17 <0> A   1     -13.933  12.055  46.955  0.00  0.00    -0.011 A 
ATOM     17  C18 <0> A   1     -14.571  10.867  46.662  0.00  0.00    +0.062 A 
ATOM     18  F1  <0> A   1     -12.307  13.253  48.193  0.00  0.00    -0.136 F 
ENDBRANCH   3  12
BRANCH   1  20
ATOM     19  C1  <0> A   1     -14.175   4.067  45.433  0.00  0.00    +0.041 C 
ATOM     20  C2  <0> A   1     -14.530   5.401  44.773  0.00  0.00    +0.039 C 
ATOM     21  C3  <0> A   1     -15.586   5.169  43.689  0.00  0.00    +0.040 C 
ENDBRANCH   1  20
BRANCH   2  22
ATOM     22  C19 <0> A   1     -13.160   7.875  45.334  0.00  0.00    +0.010 C 
ATOM     23  C20 <0> A   1     -13.216   8.161  44.039  0.00  0.00    -0.037 C 
BRANCH  23  24
ATOM     24  C21 <0> A   1     -11.955   8.498  43.286  0.00  0.00    +0.252 C 
BRANCH  24  25
ATOM     25  O4  <0> A   1     -10.960   7.507  43.554  0.00  0.00    -0.536 OA
ATOM     26  H24 <0> A   1     -10.104   7.689  43.143  0.00  0.00    +0.366 HD
ENDBRANCH  24  25
BRANCH  24  27
ATOM     27  C22 <0> A   1     -12.251   8.530  41.785  0.00  0.00    -0.041 C 
BRANCH  27  28
ATOM     28  C23 <0> A   1     -13.071   9.778  41.453  0.00  0.00    +0.232 C 
BRANCH  28  29
ATOM     29  O3  <0> A   1     -12.338  10.945  41.838  0.00  0.00    -0.527 OA
ATOM     30  H23 <0> A   1     -12.628  11.754  41.397  0.00  0.00    +0.350 HD
ENDBRANCH  28  29
BRANCH  28  31
ATOM     31  C24 <0> A   1     -13.345   9.824  39.948  0.00  0.00    -0.102 C 
BRANCH  31  32
ATOM     32  C25 <0> A   1     -13.393  11.257  39.489  0.00  0.00    +0.490 C 
ATOM     33  O1  <0> A   1     -14.382  11.936  39.709  0.00  0.00    -0.681 OA
ATOM     34  O2  <0> A   1     -12.441  11.739  38.898  0.00  0.00    -0.713 OA
ENDBRANCH  31  32
ENDBRANCH  28  31
ENDBRANCH  27  28
ENDBRANCH  24  27
ENDBRANCH  23  24
ENDBRANCH   2  22
TORSDOF 10
