REMARK VINA RESULT:      -4.6     30.886     32.407
REMARK  Name = CHEMBL50444
REMARK  6 active torsions:
REMARK  status: ('A' for Active; 'I' for Inactive)
REMARK    1  A    between atoms: C1_1  and  C2_2
REMARK    2  A    between atoms: C2_2  and  C3_3
REMARK    3  A    between atoms: C2_2  and  C5_7
REMARK    4  A    between atoms: C2_2  and  O5_11
REMARK    5  A    between atoms: C3_3  and  C4_4
REMARK    6  A    between atoms: C5_7  and  C6_8
REMARK                            x       y       z     vdW  Elec       q    Type
REMARK                         _______ _______ _______ _____ _____    ______ ____
ROOT
ATOM      1  C1  <0> A   1     -28.731  23.743  32.773  0.00  0.00    +0.022 C 
ATOM      2  C2  <0> A   1     -27.222  23.864  32.994  0.00  0.00    +0.178 C 
ENDROOT
BRANCH   2   3
ATOM      3  O5  <0> A   1     -26.853  25.245  33.011  0.00  0.00    -0.561 OA
ATOM      4  H8  <0> A   1     -26.022  25.424  33.473  0.00  0.00    +0.374 HD
ENDBRANCH   2   3
BRANCH   2   5
ATOM      5  C3  <0> A   1     -26.849  23.219  34.330  0.00  0.00    -0.105 C 
BRANCH   5   6
ATOM      6  C4  <0> A   1     -26.420  24.289  35.301  0.00  0.00    +0.496 C 
ATOM      7  O1  <0> A   1     -25.260  24.664  35.322  0.00  0.00    -0.685 OA
ATOM      8  O2  <0> A   1     -27.232  24.779  36.067  0.00  0.00    -0.719 OA
ENDBRANCH   5   6
ENDBRANCH   2   5
BRANCH   2   9
ATOM      9  C5  <0> A   1     -26.481  23.152  31.859  0.00  0.00    -0.082 C 
BRANCH   9  10
ATOM     10  C6  <0> A   1     -25.436  24.075  31.287  0.00  0.00    +0.499 C 
ATOM     11  O3  <0> A   1     -24.411  24.296  31.909  0.00  0.00    -0.687 OA
ATOM     12  O4  <0> A   1     -25.615  24.600  30.201  0.00  0.00    -0.731 OA
ENDBRANCH   9  10
ENDBRANCH   2   9
TORSDOF 5
