REMARK VINA RESULT:      -7.3      1.798      5.873
REMARK  Name = CHEMBL313129
REMARK  17 active torsions:
REMARK  status: ('A' for Active; 'I' for Inactive)
REMARK    1  A    between atoms: C1_1  and  C2_2
REMARK    2  A    between atoms: C2_2  and  C3_3
REMARK    3  A    between atoms: C3_3  and  C4_4
REMARK    4  A    between atoms: C3_3  and  C5_5
REMARK    5  A    between atoms: C3_3  and  C6_6
REMARK    6  A    between atoms: C6_6  and  O2_8
REMARK    7  A    between atoms: O2_8  and  C7_9
REMARK    8  A    between atoms: C9_12  and  C33_46
REMARK    9  A    between atoms: C10_14  and  O6_37
REMARK   10  A    between atoms: C13_19  and  C18_26
REMARK   11  A    between atoms: C14_21  and  C17_25
REMARK   12  A    between atoms: C18_26  and  C19_27
REMARK   13  A    between atoms: C19_27  and  C20_28
REMARK   14  A    between atoms: C22_30  and  O5_36
REMARK   15  A    between atoms: O6_37  and  C25_38
REMARK   16  A    between atoms: C25_38  and  C26_39
REMARK   17  A    between atoms: C26_39  and  C27_40
REMARK                            x       y       z     vdW  Elec       q    Type
REMARK                         _______ _______ _______ _____ _____    ______ ____
ROOT
ATOM      1  C7  <0> A   1     -15.375   8.721  47.860  0.00  0.00    +0.184 C 
ATOM      2  C8  <0> A   1     -15.058   7.828  49.071  0.00  0.00    +0.014 C 
ATOM      3  C9  <0> A   1     -15.342   8.599  50.360  0.00  0.00    +0.002 C 
ATOM      4  C10 <0> A   1     -14.458   9.845  50.412  0.00  0.00    +0.163 C 
ATOM      5  C11 <0> A   1     -14.728  10.728  49.200  0.00  0.00    -0.020 C 
ATOM      6  C12 <0> A   1     -14.486   9.953  47.896  0.00  0.00    +0.029 C 
ATOM      7  C13 <0> A   1     -14.674  10.913  46.736  0.00  0.00    -0.008 C 
ATOM      8  C14 <0> A   1     -16.009  11.637  46.724  0.00  0.00    -0.020 C 
ATOM      9  C15 <0> A   1     -16.383  12.219  48.079  0.00  0.00    +0.012 C 
ATOM     10  C16 <0> A   1     -16.177  11.217  49.212  0.00  0.00    +0.013 C 
ATOM     11  C17 <0> A   1     -17.128  10.760  46.171  0.00  0.00    +0.014 C 
ATOM     12  C33 <0> A   1     -15.036   7.707  51.566  0.00  0.00    +0.028 C 
ENDROOT
BRANCH   1  13
ATOM     13  O2  <0> A   1     -15.152   7.937  46.686  0.00  0.00    -0.335 OA
BRANCH  13  14
ATOM     14  C6  <0> A   1     -16.116   7.070  46.339  0.00  0.00    +0.472 C 
ATOM     15  O1  <0> A   1     -17.243   7.225  46.748  0.00  0.00    -0.509 OA
BRANCH  14  16
ATOM     16  C3  <0> A   1     -15.795   5.906  45.438  0.00  0.00    -0.057 C 
ATOM     17  C4  <0> A   1     -16.968   5.659  44.486  0.00  0.00    +0.056 C 
ATOM     18  C5  <0> A   1     -15.557   4.656  46.287  0.00  0.00    +0.077 C 
BRANCH  16  20
ATOM     19  C1  <0> A   1     -14.861   6.143  43.134  0.00  0.00    +0.022 C 
ATOM     20  C2  <0> A   1     -14.537   6.219  44.627  0.00  0.00    +0.033 C 
ENDBRANCH  16  20
ENDBRANCH  14  16
ENDBRANCH  13  14
ENDBRANCH   1  13
BRANCH   7  21
ATOM     21  C18 <0> A   1     -14.410  10.256  45.383  0.00  0.00    +0.035 C 
BRANCH  21  22
ATOM     22  C19 <0> A   1     -14.018  11.327  44.362  0.00  0.00    +0.042 C 
BRANCH  22  23
ATOM     23  C20 <0> A   1     -13.173  10.692  43.257  0.00  0.00    +0.196 C 
ATOM     24  C21 <0> A   1     -13.928  10.773  41.927  0.00  0.00    +0.037 C 
ATOM     25  C22 <0> A   1     -13.096  10.100  40.830  0.00  0.00    +0.182 C 
ATOM     26  C23 <0> A   1     -12.858   8.635  41.216  0.00  0.00    +0.016 C 
ATOM     27  C24 <0> A   1     -12.295   8.600  42.621  0.00  0.00    +0.495 C 
ATOM     28  O3  <0> A   1     -11.311   7.948  42.880  0.00  0.00    -0.447 OA
ATOM     29  O4  <0> A   1     -12.922   9.319  43.575  0.00  0.00    -0.361 OA
BRANCH  25  30
ATOM     30  O5  <0> A   1     -11.842  10.773  40.698  0.00  0.00    -0.563 OA
ATOM     31  H38 <0> A   1     -11.586  11.284  41.478  0.00  0.00    +0.386 HD
ENDBRANCH  25  30
ENDBRANCH  22  23
ENDBRANCH  21  22
ENDBRANCH   7  21
BRANCH   4  32
ATOM     32  O6  <0> A   1     -13.082   9.454  50.430  0.00  0.00    -0.371 OA
BRANCH  32  33
ATOM     33  C25 <0> A   1     -12.223  10.384  51.096  0.00  0.00    +0.166 C 
BRANCH  33  34
ATOM     34  C26 <0> A   1     -10.967  10.611  50.252  0.00  0.00    +0.083 C 
BRANCH  34  35
ATOM     35  C27 <0> A   1     -11.313  11.458  49.055  0.00  0.00    -0.083 A 
ATOM     36  C28 <0> A   1     -11.944  12.676  49.229  0.00  0.00    +0.007 A 
ATOM     37  C29 <0> A   1     -12.261  13.453  48.130  0.00  0.00    +0.004 A 
ATOM     38  C30 <0> A   1     -11.948  13.012  46.858  0.00  0.00    -0.000 A 
ATOM     39  C31 <0> A   1     -11.316  11.794  46.684  0.00  0.00    +0.004 A 
ATOM     40  C32 <0> A   1     -10.995  11.020  47.783  0.00  0.00    +0.007 A 
ENDBRANCH  34  35
ENDBRANCH  33  34
ENDBRANCH  32  33
ENDBRANCH   4  32
TORSDOF 12
