REMARK VINA RESULT:      -8.1     16.183     19.940
REMARK  Name = CHEMBL468862
REMARK  13 active torsions:
REMARK  status: ('A' for Active; 'I' for Inactive)
REMARK    1  A    between atoms: C1_1  and  C2_2
REMARK    2  A    between atoms: C2_2  and  C3_3
REMARK    3  A    between atoms: C2_2  and  C4_4
REMARK    4  A    between atoms: C5_5  and  C22_29
REMARK    5  A    between atoms: C6_6  and  C16_22
REMARK    6  A    between atoms: C9_13  and  C10_16
REMARK    7  A    between atoms: C23_30  and  C24_31
REMARK    8  A    between atoms: C24_31  and  C25_33
REMARK    9  A    between atoms: C24_31  and  O4_41
REMARK   10  A    between atoms: C25_33  and  C26_34
REMARK   11  A    between atoms: C26_34  and  C27_36
REMARK   12  A    between atoms: C26_34  and  O3_40
REMARK   13  A    between atoms: C27_36  and  C28_37
REMARK                            x       y       z     vdW  Elec       q    Type
REMARK                         _______ _______ _______ _____ _____    ______ ____
ROOT
ATOM      1  C4  <0> A   1     -29.727  -4.166  53.095  0.00  0.00    +0.232 A 
ATOM      2  C5  <0> A   1     -28.859  -3.154  52.673  0.00  0.00    -0.176 A 
ATOM      3  C6  <0> A   1     -27.706  -3.525  51.952  0.00  0.00    +0.261 A 
ATOM      4  N1  <0> A   1     -27.493  -4.814  51.702  0.00  0.00    -0.504 NA
ATOM      5  C7  <0> A   1     -28.346  -5.735  52.122  0.00  0.00    +0.553 A 
ATOM      6  N2  <0> A   1     -29.436  -5.422  52.808  0.00  0.00    -0.545 NA
ATOM      7  N3  <0> A   1     -28.088  -7.067  51.842  0.00  0.00    -0.590 N 
ATOM      8  C8  <0> A   1     -26.943  -7.421  51.126  0.00  0.00    +0.489 C 
ATOM      9  N4  <0> A   1     -26.682  -8.679  50.845  0.00  0.00    -0.546 NA
ATOM     10  C9  <0> A   1     -25.577  -8.940  50.162  0.00  0.00    +0.116 C 
ATOM     11  S1  <0> A   1     -24.922  -7.410  49.926  0.00  0.00    +0.290 S 
ATOM     12  N5  <0> A   1     -26.096  -6.503  50.708  0.00  0.00    -0.436 NA
ATOM     13  H10 <0> A   1     -28.704  -7.753  52.143  0.00  0.00    +0.438 HD
ENDROOT
BRANCH   3  14
ATOM     14  C16 <0> A   1     -26.749  -2.498  51.479  0.00  0.00    -0.071 A 
ATOM     15  C17 <0> A   1     -25.647  -2.155  52.262  0.00  0.00    +0.096 A 
ATOM     16  C18 <0> A   1     -24.759  -1.199  51.816  0.00  0.00    -0.016 A 
ATOM     17  C19 <0> A   1     -24.960  -0.578  50.593  0.00  0.00    +0.120 A 
ATOM     18  C20 <0> A   1     -26.055  -0.915  49.812  0.00  0.00    -0.027 A 
ATOM     19  C21 <0> A   1     -26.945  -1.875  50.246  0.00  0.00    +0.099 A 
ATOM     20  F1  <0> A   1     -24.088   0.358  50.161  0.00  0.00    -0.136 F 
ENDBRANCH   3  14
BRANCH  10  21
ATOM     21  C10 <0> A   1     -25.052 -10.249  49.719  0.00  0.00    -0.031 A 
ATOM     22  C11 <0> A   1     -24.766 -10.471  48.372  0.00  0.00    +0.073 A 
ATOM     23  C12 <0> A   1     -24.275 -11.695  47.966  0.00  0.00    +0.008 A 
ATOM     24  C13 <0> A   1     -24.068 -12.701  48.891  0.00  0.00    +0.036 A 
ATOM     25  C14 <0> A   1     -24.350 -12.489  50.229  0.00  0.00    +0.015 A 
ATOM     26  C15 <0> A   1     -24.836 -11.267  50.648  0.00  0.00    +0.047 A 
ENDBRANCH  10  21
BRANCH   1  28
ATOM     27  C1  <0> A   1     -32.203  -4.310  53.095  0.00  0.00    +0.043 C 
ATOM     28  C2  <0> A   1     -30.974  -3.827  53.870  0.00  0.00    +0.052 C 
ATOM     29  C3  <0> A   1     -30.928  -4.516  55.236  0.00  0.00    +0.044 C 
ENDBRANCH   1  28
BRANCH   2  30
ATOM     30  C22 <0> A   1     -29.141  -1.737  52.976  0.00  0.00    +0.012 C 
ATOM     31  C23 <0> A   1     -29.888  -1.018  52.147  0.00  0.00    -0.035 C 
BRANCH  31  32
ATOM     32  C24 <0> A   1     -30.176   0.428  52.456  0.00  0.00    +0.253 C 
BRANCH  32  33
ATOM     33  O4  <0> A   1     -29.868   0.694  53.827  0.00  0.00    -0.537 OA
ATOM     34  H27 <0> A   1     -30.455   0.249  54.455  0.00  0.00    +0.366 HD
ENDBRANCH  32  33
BRANCH  32  35
ATOM     35  C25 <0> A   1     -29.317   1.322  51.560  0.00  0.00    -0.041 C 
BRANCH  35  36
ATOM     36  C26 <0> A   1     -28.280   2.055  52.413  0.00  0.00    +0.232 C 
BRANCH  36  37
ATOM     37  O3  <0> A   1     -27.218   1.160  52.747  0.00  0.00    -0.528 OA
ATOM     38  H26 <0> A   1     -26.422   1.601  53.074  0.00  0.00    +0.350 HD
ENDBRANCH  36  37
BRANCH  36  39
ATOM     39  C27 <0> A   1     -27.718   3.241  51.626  0.00  0.00    -0.102 C 
BRANCH  39  40
ATOM     40  C28 <0> A   1     -26.601   3.880  52.409  0.00  0.00    +0.490 C 
ATOM     41  O1  <0> A   1     -25.482   3.396  52.381  0.00  0.00    -0.681 OA
ATOM     42  O2  <0> A   1     -26.815   4.882  53.070  0.00  0.00    -0.713 OA
ENDBRANCH  39  40
ENDBRANCH  36  39
ENDBRANCH  35  36
ENDBRANCH  32  35
ENDBRANCH  31  32
ENDBRANCH   2  30
TORSDOF 11
