REMARK VINA RESULT:      -7.8      3.087      7.702
REMARK  Name = CHEMBL400973
REMARK  17 active torsions:
REMARK  status: ('A' for Active; 'I' for Inactive)
REMARK    1  A    between atoms: C1_1  and  C2_2
REMARK    2  A    between atoms: C2_2  and  C3_3
REMARK    3  A    between atoms: C2_2  and  N1_4
REMARK    4  A    between atoms: C4_5  and  C27_32
REMARK    5  A    between atoms: C5_6  and  C21_25
REMARK    6  A    between atoms: C6_7  and  C15_19
REMARK    7  A    between atoms: C7_8  and  C8_9
REMARK    8  A    between atoms: N2_11  and  C9_12
REMARK    9  A    between atoms: C12_15  and  O2_18
REMARK   10  A    between atoms: C27_32  and  C28_33
REMARK   11  A    between atoms: C28_33  and  C29_34
REMARK   12  A    between atoms: C29_34  and  C30_36
REMARK   13  A    between atoms: C29_34  and  O6_44
REMARK   14  A    between atoms: C30_36  and  C31_37
REMARK   15  A    between atoms: C31_37  and  C32_39
REMARK   16  A    between atoms: C31_37  and  O5_43
REMARK   17  A    between atoms: C32_39  and  C33_40
REMARK                            x       y       z     vdW  Elec       q    Type
REMARK                         _______ _______ _______ _____ _____    ______ ____
ROOT
ATOM      1  N1  <0> A   1     -12.020   8.708  46.649  0.00  0.00    -0.401 N 
ATOM      2  C4  <0> A   1     -12.241   8.418  47.954  0.00  0.00    +0.077 C 
ATOM      3  C5  <0> A   1     -13.198   9.258  48.441  0.00  0.00    -0.121 C 
ATOM      4  C6  <0> A   1     -13.593  10.114  47.380  0.00  0.00    -0.055 C 
ATOM      5  C7  <0> A   1     -12.836   9.751  46.273  0.00  0.00    -0.036 C 
ENDROOT
BRANCH   3   6
ATOM      6  C21 <0> A   1     -13.729   9.273  49.826  0.00  0.00    -0.010 A 
ATOM      7  C22 <0> A   1     -13.108  10.048  50.803  0.00  0.00    +0.050 A 
ATOM      8  C23 <0> A   1     -13.605  10.059  52.091  0.00  0.00    -0.015 A 
ATOM      9  C24 <0> A   1     -14.720   9.302  52.412  0.00  0.00    +0.096 A 
ATOM     10  C25 <0> A   1     -15.340   8.530  51.443  0.00  0.00    -0.017 A 
ATOM     11  C26 <0> A   1     -14.853   8.517  50.152  0.00  0.00    +0.056 A 
ATOM     12  F1  <0> A   1     -15.203   9.316  53.673  0.00  0.00    -0.141 F 
ENDBRANCH   3   6
BRANCH   4  13
ATOM     13  C15 <0> A   1     -14.610  11.188  47.444  0.00  0.00    -0.013 A 
ATOM     14  C16 <0> A   1     -14.274  12.440  47.957  0.00  0.00    +0.027 A 
ATOM     15  C17 <0> A   1     -15.227  13.437  48.014  0.00  0.00    +0.004 A 
ATOM     16  C18 <0> A   1     -16.513  13.196  47.561  0.00  0.00    -0.000 A 
ATOM     17  C19 <0> A   1     -16.850  11.956  47.051  0.00  0.00    +0.001 A 
ATOM     18  C20 <0> A   1     -15.906  10.952  46.983  0.00  0.00    +0.008 A 
ENDBRANCH   4  13
BRANCH   5  19
ATOM     19  C8  <0> A   1     -12.897  10.365  44.945  0.00  0.00    +0.606 C 
ATOM     20  O1  <0> A   1     -12.227  11.351  44.699  0.00  0.00    -0.499 OA
ATOM     21  N2  <0> A   1     -13.696   9.838  43.996  0.00  0.00    -0.664 N 
ATOM     22  H10 <0> A   1     -14.302   9.114  44.219  0.00  0.00    +0.413 HD
BRANCH  21  23
ATOM     23  C9  <0> A   1     -13.650  10.336  42.688  0.00  0.00    +0.141 A 
ATOM     24  C10 <0> A   1     -14.578  11.280  42.271  0.00  0.00    +0.037 A 
ATOM     25  C11 <0> A   1     -14.531  11.771  40.981  0.00  0.00    +0.009 A 
ATOM     26  C12 <0> A   1     -13.559  11.319  40.101  0.00  0.00    +0.089 A 
ATOM     27  C13 <0> A   1     -12.631  10.375  40.517  0.00  0.00    +0.009 A 
ATOM     28  C14 <0> A   1     -12.672   9.888  41.809  0.00  0.00    +0.003 A 
BRANCH  26  29
ATOM     29  O2  <0> A   1     -13.514  11.803  38.831  0.00  0.00    -0.499 OA
ATOM     30  H15 <0> A   1     -13.414  11.121  38.154  0.00  0.00    +0.389 HD
ENDBRANCH  26  29
ENDBRANCH  21  23
ENDBRANCH   5  19
BRANCH   1  32
ATOM     31  C1  <0> A   1     -11.764   7.589  44.489  0.00  0.00    +0.046 C 
ATOM     32  C2  <0> A   1     -11.063   8.022  45.778  0.00  0.00    +0.230 C 
ATOM     33  C3  <0> A   1      -9.912   8.972  45.437  0.00  0.00    +0.043 C 
ENDBRANCH   1  32
BRANCH   2  34
ATOM     34  C27 <0> A   1     -11.540   7.341  48.742  0.00  0.00    +0.118 C 
BRANCH  34  35
ATOM     35  C28 <0> A   1     -12.415   6.086  48.778  0.00  0.00    -0.007 C 
BRANCH  35  36
ATOM     36  C29 <0> A   1     -13.178   5.959  47.458  0.00  0.00    +0.212 C 
BRANCH  36  37
ATOM     37  O6  <0> A   1     -12.679   4.837  46.725  0.00  0.00    -0.541 OA
ATOM     38  H34 <0> A   1     -13.063   4.743  45.842  0.00  0.00    +0.362 HD
ENDBRANCH  36  37
BRANCH  36  39
ATOM     39  C30 <0> A   1     -14.668   5.758  47.745  0.00  0.00    -0.051 C 
BRANCH  39  40
ATOM     40  C31 <0> A   1     -15.490   6.291  46.570  0.00  0.00    +0.230 C 
BRANCH  40  41
ATOM     41  O5  <0> A   1     -16.191   5.211  45.951  0.00  0.00    -0.528 OA
ATOM     42  H33 <0> A   1     -15.623   4.609  45.451  0.00  0.00    +0.349 HD
ENDBRANCH  40  41
BRANCH  40  43
ATOM     43  C32 <0> A   1     -16.495   7.326  47.081  0.00  0.00    -0.103 C 
BRANCH  43  44
ATOM     44  C33 <0> A   1     -17.889   6.762  46.981  0.00  0.00    +0.490 C 
ATOM     45  O3  <0> A   1     -18.586   7.022  46.015  0.00  0.00    -0.681 OA
ATOM     46  O4  <0> A   1     -18.322   6.044  47.867  0.00  0.00    -0.713 OA
ENDBRANCH  43  44
ENDBRANCH  40  43
ENDBRANCH  39  40
ENDBRANCH  36  39
ENDBRANCH  35  36
ENDBRANCH  34  35
ENDBRANCH   2  34
TORSDOF 15
