REMARK VINA RESULT:      -7.5      2.429      4.340
REMARK  Name = CHEMBL350272
REMARK  4 active torsions:
REMARK  status: ('A' for Active; 'I' for Inactive)
REMARK    1  A    between atoms: C7_8  and  C11_14
REMARK    2  A    between atoms: C11_14  and  C12_15
REMARK    3  A    between atoms: C12_15  and  C13_16
REMARK    4  A    between atoms: C15_18  and  O3_24
REMARK                            x       y       z     vdW  Elec       q    Type
REMARK                         _______ _______ _______ _____ _____    ______ ____
ROOT
ATOM      1  C1  <0> A   1      -7.455   3.517  45.369  0.00  0.00    +0.042 A 
ATOM      2  C2  <0> A   1      -6.582   2.584  44.898  0.00  0.00    +0.057 A 
ATOM      3  C3  <0> A   1      -5.201   2.825  44.969  0.00  0.00    -0.043 A 
ATOM      4  C4  <0> A   1      -4.735   4.041  45.530  0.00  0.00    -0.021 A 
ATOM      5  C5  <0> A   1      -5.664   4.981  46.005  0.00  0.00    +0.059 A 
ATOM      6  C6  <0> A   1      -6.998   4.713  45.921  0.00  0.00    -0.022 A 
ATOM      7 Cl1  <0> A   1      -8.144   5.877  46.509  0.00  0.00    -0.058 Cl
ATOM      8  C7  <0> A   1      -3.352   4.283  45.598  0.00  0.00    -0.046 A 
ATOM      9  C8  <0> A   1      -2.480   3.349  45.127  0.00  0.00    -0.024 A 
ATOM     10  C9  <0> A   1      -2.937   2.153  44.575  0.00  0.00    +0.056 A 
ATOM     11  C10 <0> A   1      -4.271   1.884  44.492  0.00  0.00    -0.015 A 
ATOM     12 Cl2  <0> A   1      -4.818   0.389  43.801  0.00  0.00    -0.044 Cl
ATOM     13 Cl3  <0> A   1      -0.773   3.653  45.215  0.00  0.00    -0.047 Cl
ENDROOT
BRANCH   8  14
ATOM     14  C11 <0> A   1      -2.837   5.570  46.191  0.00  0.00    +0.090 C 
BRANCH  14  15
ATOM     15  C12 <0> A   1      -2.165   5.279  47.534  0.00  0.00    +0.065 C 
BRANCH  15  16
ATOM     16  C13 <0> A   1      -3.132   5.618  48.672  0.00  0.00    +0.200 C 
ATOM     17  C14 <0> A   1      -2.335   5.982  49.927  0.00  0.00    +0.043 C 
ATOM     18  C15 <0> A   1      -3.305   6.280  51.075  0.00  0.00    +0.185 C 
ATOM     19  C16 <0> A   1      -4.165   5.036  51.333  0.00  0.00    +0.022 C 
ATOM     20  C17 <0> A   1      -4.773   4.598  50.019  0.00  0.00    +0.497 C 
ATOM     21  O1  <0> A   1      -5.954   4.358  49.930  0.00  0.00    -0.451 OA
ATOM     22  O2  <0> A   1      -3.960   4.483  48.949  0.00  0.00    -0.369 OA
BRANCH  18  23
ATOM     23  O3  <0> A   1      -4.145   7.381  50.719  0.00  0.00    -0.564 OA
ATOM     24  H15 <0> A   1      -3.676   8.222  50.633  0.00  0.00    +0.387 HD
ENDBRANCH  18  23
ENDBRANCH  15  16
ENDBRANCH  14  15
ENDBRANCH   8  14
TORSDOF 4
