REMARK VINA RESULT:      -7.9     22.518     25.909
REMARK  Name = CHEMBL295717
REMARK  7 active torsions:
REMARK  status: ('A' for Active; 'I' for Inactive)
REMARK    1  A    between atoms: C1_1  and  C2_2
REMARK    2  A    between atoms: C4_4  and  C23_28
REMARK    3  A    between atoms: C5_5  and  C16_17
REMARK    4  A    between atoms: C6_6  and  C8_8
REMARK    5  A    between atoms: C9_9  and  C10_10
REMARK    6  A    between atoms: C17_18  and  C18_19
REMARK    7  A    between atoms: C20_21  and  O3_27
REMARK                            x       y       z     vdW  Elec       q    Type
REMARK                         _______ _______ _______ _____ _____    ______ ____
ROOT
ATOM      1  C1  <0> A   1     -29.912   0.493  51.998  0.00  0.00    +0.090 C 
ATOM      2  C2  <0> A   1     -29.108  -0.723  51.618  0.00  0.00    -0.077 A 
ATOM      3  C3  <0> A   1     -27.909  -0.572  50.941  0.00  0.00    +0.006 A 
ATOM      4  C4  <0> A   1     -27.160  -1.676  50.585  0.00  0.00    -0.068 A 
ATOM      5  C5  <0> A   1     -27.609  -2.956  50.909  0.00  0.00    -0.056 A 
ATOM      6  C6  <0> A   1     -28.829  -3.111  51.598  0.00  0.00    -0.038 A 
ATOM      7  C7  <0> A   1     -29.568  -1.980  51.953  0.00  0.00    +0.009 A 
ATOM      8  C23 <0> A   1     -25.858  -1.497  49.848  0.00  0.00    +0.092 C 
ENDROOT
BRANCH   6   9
ATOM      9  C8  <0> A   1     -29.317  -4.454  51.947  0.00  0.00    +0.028 C 
ATOM     10  C9  <0> A   1     -29.217  -4.899  53.212  0.00  0.00    +0.016 C 
BRANCH  10  11
ATOM     11  C10 <0> A   1     -29.706  -6.244  53.560  0.00  0.00    -0.050 A 
ATOM     12  C11 <0> A   1     -29.439  -7.328  52.719  0.00  0.00    +0.034 A 
ATOM     13  C12 <0> A   1     -29.901  -8.584  53.051  0.00  0.00    +0.029 A 
ATOM     14  C13 <0> A   1     -30.628  -8.773  54.215  0.00  0.00    -0.035 A 
ATOM     15  C14 <0> A   1     -30.897  -7.703  55.053  0.00  0.00    +0.027 A 
ATOM     16  C15 <0> A   1     -30.436  -6.442  54.736  0.00  0.00    +0.038 A 
ATOM     17 Cl1  <0> A   1     -31.205 -10.357  54.625  0.00  0.00    -0.069 Cl
ENDBRANCH  10  11
ENDBRANCH   6   9
BRANCH   5  18
ATOM     18  C16 <0> A   1     -26.814  -4.139  50.530  0.00  0.00    +0.047 C 
ATOM     19  C17 <0> A   1     -25.977  -4.683  51.406  0.00  0.00    -0.022 C 
BRANCH  19  20
ATOM     20  C18 <0> A   1     -25.073  -5.812  50.983  0.00  0.00    +0.239 C 
ATOM     21  C19 <0> A   1     -25.760  -6.635  49.889  0.00  0.00    +0.052 C 
ATOM     22  C20 <0> A   1     -24.855  -7.805  49.491  0.00  0.00    +0.186 C 
ATOM     23  C21 <0> A   1     -24.597  -8.676  50.727  0.00  0.00    +0.023 C 
ATOM     24  C22 <0> A   1     -24.105  -7.780  51.844  0.00  0.00    +0.497 C 
ATOM     25  O1  <0> A   1     -23.119  -8.066  52.480  0.00  0.00    -0.450 OA
ATOM     26  O2  <0> A   1     -24.801  -6.655  52.108  0.00  0.00    -0.369 OA
BRANCH  22  27
ATOM     27  O3  <0> A   1     -23.616  -7.303  48.988  0.00  0.00    -0.564 OA
ATOM     28  H20 <0> A   1     -23.143  -6.730  49.608  0.00  0.00    +0.387 HD
ENDBRANCH  22  27
ENDBRANCH  19  20
ENDBRANCH   5  18
TORSDOF 5
