REMARK  Name = CHEMBL306742
REMARK  15 active torsions:
REMARK  status: ('A' for Active; 'I' for Inactive)
REMARK    1  A    between atoms: C1_1  and  C2_2
REMARK    2  A    between atoms: C2_2  and  C3_3
REMARK    3  A    between atoms: C2_2  and  C9_10
REMARK    4  A    between atoms: C3_3  and  C4_4
REMARK    5  A    between atoms: C4_4  and  C5_5
REMARK    6  A    between atoms: C5_5  and  C6_6
REMARK    7  A    between atoms: C6_6  and  C7_7
REMARK    8  A    between atoms: C6_6  and  C8_8
REMARK    9  A    between atoms: C6_6  and  O1_9
REMARK   10  A    between atoms: C13_16  and  C28_33
REMARK   11  A    between atoms: C17_20  and  C18_21
REMARK   12  A    between atoms: C18_21  and  C19_22
REMARK   13  A    between atoms: C22_25  and  O2_32
REMARK   14  A    between atoms: C25_29  and  C26_30
REMARK   15  A    between atoms: C25_29  and  C27_31
REMARK                            x       y       z     vdW  Elec       q    Type
REMARK                         _______ _______ _______ _____ _____    ______ ____
ROOT
ATOM      1  C9  <0> A   1       0.329  -0.400  -1.070  0.00  0.00    -0.009 C 
ATOM      2  C10 <0> A   1       0.348  -1.943  -1.224  0.00  0.00    +0.004 C 
ATOM      3  C11 <0> A   1      -0.262  -2.250  -2.626  0.00  0.00    +0.011 C 
ATOM      4  C12 <0> A   1      -0.041  -0.914  -3.353  0.00  0.00    -0.010 C 
ATOM      5  C13 <0> A   1      -0.499   0.088  -2.274  0.00  0.00    -0.050 C 
ATOM      6  C14 <0> A   1      -0.214   1.495  -2.744  0.00  0.00    +0.020 C 
ATOM      7  C15 <0> A   1      -0.975   1.734  -4.055  0.00  0.00    -0.000 C 
ATOM      8  C16 <0> A   1      -0.562   0.745  -5.134  0.00  0.00    +0.003 C 
ATOM      9  C17 <0> A   1      -0.676  -0.717  -4.691  0.00  0.00    -0.010 C 
ATOM     10  C28 <0> A   1      -1.972  -0.053  -1.896  0.00  0.00    +0.027 C 
ENDROOT
BRANCH   1  12
ATOM     11  C1  <0> A   1      -0.368   1.522   0.362  0.00  0.00    +0.013 C 
ATOM     12  C2  <0> A   1      -0.364  -0.003   0.232  0.00  0.00    -0.007 C 
BRANCH  12  13
ATOM     13  C3  <0> A   1       0.386  -0.614   1.416  0.00  0.00    +0.001 C 
BRANCH  13  14
ATOM     14  C4  <0> A   1      -0.377  -0.321   2.709  0.00  0.00    +0.015 C 
BRANCH  14  15
ATOM     15  C5  <0> A   1       0.373  -0.933   3.894  0.00  0.00    -0.013 C 
BRANCH  15  16
ATOM     16  C6  <0> A   1      -0.390  -0.640   5.188  0.00  0.00    +0.125 C 
ATOM     17  C7  <0> A   1      -1.791  -1.249   5.102  0.00  0.00    +0.053 C 
ATOM     18  C8  <0> A   1       0.361  -1.252   6.372  0.00  0.00    +0.005 C 
BRANCH  16  19
ATOM     19  O1  <0> A   1      -0.495   0.774   5.369  0.00  0.00    -0.559 OA
ATOM     20  H20 <0> A   1       0.357   1.227   5.431  0.00  0.00    +0.374 HD
ENDBRANCH  16  19
ENDBRANCH  15  16
ENDBRANCH  14  15
ENDBRANCH  13  14
ENDBRANCH  12  13
ENDBRANCH   1  12
BRANCH   9  21
ATOM     21  C18 <0> A   1      -2.112  -1.216  -4.794  0.00  0.00    +0.070 C 
BRANCH  21  22
ATOM     22  C19 <0> A   1      -2.590  -1.083  -6.217  0.00  0.00    -0.046 C 
ATOM     23  C20 <0> A   1      -3.273  -2.053  -6.772  0.00  0.00    -0.118 C 
ATOM     24  C21 <0> A   1      -3.186  -2.311  -8.260  0.00  0.00    +0.041 C 
ATOM     25  C22 <0> A   1      -4.608  -2.374  -8.827  0.00  0.00    +0.159 C 
ATOM     26  C23 <0> A   1      -5.418  -3.416  -8.053  0.00  0.00    +0.026 C 
ATOM     27  C24 <0> A   1      -5.556  -2.985  -6.592  0.00  0.00    +0.037 C 
ATOM     28  C25 <0> A   1      -4.165  -2.948  -5.940  0.00  0.00    -0.025 C 
ATOM     29  C26 <0> A   1      -3.577  -4.360  -5.894  0.00  0.00    +0.026 C 
ATOM     30  C27 <0> A   1      -4.276  -2.387  -4.521  0.00  0.00    +0.031 C 
BRANCH  25  31
ATOM     31  O2  <0> A   1      -4.555  -2.741 -10.207  0.00  0.00    -0.570 OA
ATOM     32  H47 <0> A   1      -4.055  -2.124 -10.759  0.00  0.00    +0.378 HD
ENDBRANCH  25  31
ENDBRANCH  21  22
ENDBRANCH   9  21
TORSDOF 9
