REMARK VINA RESULT:      -7.1      0.000      0.000
REMARK  Name = CHEMBL107753
REMARK  6 active torsions:
REMARK  status: ('A' for Active; 'I' for Inactive)
REMARK    1  A    between atoms: C1_1  and  C2_2
REMARK    2  A    between atoms: C5_5  and  C13_19
REMARK    3  A    between atoms: N1_6  and  C6_7
REMARK    4  A    between atoms: C6_7  and  C7_8
REMARK    5  A    between atoms: C7_8  and  C8_9
REMARK    6  A    between atoms: C10_12  and  O3_18
REMARK                            x       y       z     vdW  Elec       q    Type
REMARK                         _______ _______ _______ _____ _____    ______ ____
ROOT
ATOM      1  C1  <0> A   1      -0.632   3.194  44.127  0.00  0.00    +0.123 C 
ATOM      2  C2  <0> A   1      -2.129   3.124  44.292  0.00  0.00    +0.015 C 
ATOM      3  C3  <0> A   1      -2.991   2.531  43.441  0.00  0.00    -0.066 C 
ATOM      4  C4  <0> A   1      -4.286   2.695  43.970  0.00  0.00    -0.059 C 
ATOM      5  C5  <0> A   1      -4.167   3.381  45.126  0.00  0.00    +0.021 C 
ATOM      6  N1  <0> A   1      -2.844   3.641  45.331  0.00  0.00    -0.440 N 
ENDROOT
BRANCH   5   7
ATOM      7  C13 <0> A   1      -5.298   3.785  46.034  0.00  0.00    +0.056 C 
ATOM      8  C14 <0> A   1      -6.301   2.635  46.143  0.00  0.00    +0.016 C 
ATOM      9  C15 <0> A   1      -7.450   3.044  47.066  0.00  0.00    +0.004 C 
ATOM     10  C16 <0> A   1      -8.150   4.277  46.491  0.00  0.00    +0.003 C 
ATOM     11  C17 <0> A   1      -7.148   5.429  46.383  0.00  0.00    +0.005 C 
ATOM     12  C18 <0> A   1      -5.998   5.018  45.460  0.00  0.00    +0.027 C 
ENDBRANCH   5   7
BRANCH   6  13
ATOM     13  C6  <0> A   1      -2.284   4.363  46.476  0.00  0.00    +0.288 C 
BRANCH  13  14
ATOM     14  C7  <0> A   1      -2.400   5.869  46.238  0.00  0.00    +0.049 C 
BRANCH  14  15
ATOM     15  C8  <0> A   1      -2.194   6.613  47.558  0.00  0.00    +0.202 C 
ATOM     16  C9  <0> A   1      -2.702   5.750  48.716  0.00  0.00    +0.045 C 
ATOM     17  C10 <0> A   1      -2.531   6.514  50.033  0.00  0.00    +0.186 C 
ATOM     18  C11 <0> A   1      -3.330   7.822  49.954  0.00  0.00    +0.024 C 
ATOM     19  C12 <0> A   1      -2.933   8.545  48.686  0.00  0.00    +0.497 C 
ATOM     20  O1  <0> A   1      -2.634   9.716  48.705  0.00  0.00    -0.450 OA
ATOM     21  O2  <0> A   1      -2.921   7.846  47.532  0.00  0.00    -0.370 OA
BRANCH  17  22
ATOM     22  O3  <0> A   1      -1.148   6.808  50.240  0.00  0.00    -0.564 OA
ATOM     23  H16 <0> A   1      -0.973   7.727  50.485  0.00  0.00    +0.388 HD
ENDBRANCH  17  22
ENDBRANCH  14  15
ENDBRANCH  13  14
ENDBRANCH   6  13
TORSDOF 5
