REMARK VINA RESULT:      -7.5      2.807      7.687
REMARK  Name = CHEMBL253054
REMARK  16 active torsions:
REMARK  status: ('A' for Active; 'I' for Inactive)
REMARK    1  A    between atoms: C1_1  and  C2_2
REMARK    2  A    between atoms: C2_2  and  C3_3
REMARK    3  A    between atoms: C2_2  and  C4_4
REMARK    4  A    between atoms: C5_5  and  S1_35
REMARK    5  A    between atoms: C6_6  and  C21_29
REMARK    6  A    between atoms: C7_7  and  C15_22
REMARK    7  A    between atoms: N1_8  and  C8_9
REMARK    8  A    between atoms: C8_9  and  C9_10
REMARK    9  A    between atoms: C9_10  and  C10_11
REMARK   10  A    between atoms: C10_11  and  C11_13
REMARK   11  A    between atoms: C10_11  and  O4_21
REMARK   12  A    between atoms: C11_13  and  C12_14
REMARK   13  A    between atoms: C12_14  and  C13_16
REMARK   14  A    between atoms: C12_14  and  O3_20
REMARK   15  A    between atoms: C13_16  and  C14_17
REMARK   16  A    between atoms: S1_35  and  N2_38
REMARK                            x       y       z     vdW  Elec       q    Type
REMARK                         _______ _______ _______ _____ _____    ______ ____
ROOT
ATOM      1  C4  <0> A   1     -14.720   6.722  44.981  0.00  0.00    +0.173 C 
ATOM      2  C5  <0> A   1     -13.755   7.656  44.881  0.00  0.00    -0.737 C 
ATOM      3  C6  <0> A   1     -13.896   8.539  45.979  0.00  0.00    -0.022 C 
ATOM      4  C7  <0> A   1     -14.975   8.086  46.720  0.00  0.00    +0.059 C 
ATOM      5  N1  <0> A   1     -15.472   6.976  46.091  0.00  0.00    -0.412 N 
ENDROOT
BRANCH   4   6
ATOM      6  C15 <0> A   1     -15.498   8.695  47.959  0.00  0.00    -0.027 A 
ATOM      7  C16 <0> A   1     -16.315   9.826  47.894  0.00  0.00    +0.045 A 
ATOM      8  C17 <0> A   1     -16.801  10.390  49.056  0.00  0.00    -0.008 A 
ATOM      9  C18 <0> A   1     -16.479   9.837  50.285  0.00  0.00    +0.105 A 
ATOM     10  C19 <0> A   1     -15.669   8.714  50.355  0.00  0.00    -0.008 A 
ATOM     11  C20 <0> A   1     -15.182   8.138  49.201  0.00  0.00    +0.074 A 
ATOM     12  F1  <0> A   1     -16.957  10.394  51.418  0.00  0.00    -0.137 F 
ENDBRANCH   4   6
BRANCH   3  13
ATOM     13  C21 <0> A   1     -13.052   9.719  46.277  0.00  0.00    -0.034 A 
ATOM     14  C22 <0> A   1     -13.417  10.979  45.801  0.00  0.00    +0.061 A 
ATOM     15  C23 <0> A   1     -12.627  12.074  46.083  0.00  0.00    -0.000 A 
ATOM     16  C24 <0> A   1     -11.475  11.926  46.834  0.00  0.00    +0.003 A 
ATOM     17  C25 <0> A   1     -11.108  10.679  47.308  0.00  0.00    -0.009 A 
ATOM     18  C26 <0> A   1     -11.893   9.576  47.038  0.00  0.00    +0.017 A 
ENDBRANCH   3  13
BRANCH   1  20
ATOM     19  C1  <0> A   1     -14.553   4.264  44.692  0.00  0.00    +0.040 C 
ATOM     20  C2  <0> A   1     -14.938   5.583  44.018  0.00  0.00    +0.059 C 
ATOM     21  C3  <0> A   1     -16.413   5.535  43.609  0.00  0.00    +0.039 C 
ENDBRANCH   1  20
BRANCH   2  22
ATOM     22  S1  <0> A   1     -12.536   7.760  43.612  0.00  0.00    +2.731 S 
ATOM     23  O5  <0> A   1     -11.293   7.983  44.262  0.00  0.00    -0.945 OA
ATOM     24  O6  <0> A   1     -12.757   6.656  42.746  0.00  0.00    -0.960 OA
BRANCH  22  25
ATOM     25  N2  <0> A   1     -12.862   9.125  42.732  0.00  0.00    -1.039 NA
ATOM     26  C27 <0> A   1     -12.113   9.998  41.816  0.00  0.00    +0.286 C 
ATOM     27  C28 <0> A   1     -13.051  11.142  42.226  0.00  0.00    +0.030 C 
ATOM     28  C29 <0> A   1     -14.030   9.993  42.518  0.00  0.00    +0.290 C 
ENDBRANCH  22  25
ENDBRANCH   2  22
BRANCH   5  29
ATOM     29  C8  <0> A   1     -16.621   6.185  46.540  0.00  0.00    +0.294 C 
BRANCH  29  30
ATOM     30  C9  <0> A   1     -17.916   6.915  46.177  0.00  0.00    -0.015 C 
BRANCH  30  31
ATOM     31  C10 <0> A   1     -18.825   6.983  47.405  0.00  0.00    +0.218 C 
BRANCH  31  32
ATOM     32  O4  <0> A   1     -20.159   6.634  47.032  0.00  0.00    -0.540 OA
ATOM     33  H19 <0> A   1     -20.726   6.395  47.778  0.00  0.00    +0.366 HD
ENDBRANCH  31  32
BRANCH  31  34
ATOM     34  C11 <0> A   1     -18.320   6.005  48.468  0.00  0.00    -0.047 C 
BRANCH  34  35
ATOM     35  C12 <0> A   1     -18.961   6.340  49.815  0.00  0.00    +0.232 C 
BRANCH  35  36
ATOM     36  O3  <0> A   1     -19.956   7.350  49.632  0.00  0.00    -0.528 OA
ATOM     37  H18 <0> A   1     -20.148   7.862  50.429  0.00  0.00    +0.350 HD
ENDBRANCH  35  36
BRANCH  35  38
ATOM     38  C13 <0> A   1     -19.612   5.085  50.399  0.00  0.00    -0.102 C 
BRANCH  38  39
ATOM     39  C14 <0> A   1     -21.057   5.023  49.974  0.00  0.00    +0.491 C 
ATOM     40  O1  <0> A   1     -21.347   4.628  48.856  0.00  0.00    -0.681 OA
ATOM     41  O2  <0> A   1     -21.935   5.369  50.746  0.00  0.00    -0.712 OA
ENDBRANCH  38  39
ENDBRANCH  35  38
ENDBRANCH  34  35
ENDBRANCH  31  34
ENDBRANCH  30  31
ENDBRANCH  29  30
ENDBRANCH   5  29
TORSDOF 14
