REMARK VINA RESULT:      -7.7      3.188      5.393
REMARK  Name = CHEMBL157882
REMARK  8 active torsions:
REMARK  status: ('A' for Active; 'I' for Inactive)
REMARK    1  A    between atoms: C1_1  and  C2_2
REMARK    2  A    between atoms: C2_2  and  C3_3
REMARK    3  A    between atoms: C2_2  and  C4_4
REMARK    4  A    between atoms: C5_5  and  C21_23
REMARK    5  A    between atoms: C6_6  and  C15_16
REMARK    6  A    between atoms: C8_8  and  C9_10
REMARK    7  A    between atoms: C22_24  and  C23_25
REMARK    8  A    between atoms: C25_27  and  O3_33
REMARK                            x       y       z     vdW  Elec       q    Type
REMARK                         _______ _______ _______ _____ _____    ______ ____
ROOT
ATOM      1  C4  <0> A   1     -27.778  -4.674  51.874  0.00  0.00    +0.161 A 
ATOM      2  C5  <0> A   1     -27.074  -5.819  51.501  0.00  0.00    -0.103 A 
ATOM      3  C6  <0> A   1     -25.702  -5.704  51.201  0.00  0.00    +0.010 A 
ATOM      4  C7  <0> A   1     -25.113  -4.440  51.295  0.00  0.00    -0.023 A 
ATOM      5  C8  <0> A   1     -25.889  -3.363  51.673  0.00  0.00    +0.146 A 
ATOM      6  N1  <0> A   1     -27.174  -3.507  51.941  0.00  0.00    -0.473 NA
ENDROOT
BRANCH   3   7
ATOM      7  C15 <0> A   1     -24.907  -6.887  50.800  0.00  0.00    -0.064 A 
ATOM      8  C16 <0> A   1     -24.752  -7.202  49.451  0.00  0.00    +0.074 A 
ATOM      9  C17 <0> A   1     -24.011  -8.306  49.083  0.00  0.00    -0.013 A 
ATOM     10  C18 <0> A   1     -23.422  -9.102  50.052  0.00  0.00    +0.108 A 
ATOM     11  C19 <0> A   1     -23.573  -8.793  51.394  0.00  0.00    -0.014 A 
ATOM     12  C20 <0> A   1     -24.307  -7.688  51.772  0.00  0.00    +0.060 A 
ATOM     13  F1  <0> A   1     -22.698 -10.183  49.687  0.00  0.00    -0.137 F 
ENDBRANCH   3   7
BRANCH   5  14
ATOM     14  C9  <0> A   1     -25.260  -1.997  51.775  0.00  0.00    +0.054 C 
ATOM     15  C10 <0> A   1     -23.995  -2.082  52.631  0.00  0.00    +0.017 C 
ATOM     16  C11 <0> A   1     -23.356  -0.696  52.735  0.00  0.00    +0.009 C 
ATOM     17  C12 <0> A   1     -22.992  -0.196  51.336  0.00  0.00    +0.003 C 
ATOM     18  C13 <0> A   1     -24.257  -0.112  50.478  0.00  0.00    +0.009 C 
ATOM     19  C14 <0> A   1     -24.895  -1.499  50.375  0.00  0.00    +0.022 C 
ENDBRANCH   5  14
BRANCH   1  21
ATOM     20  C1  <0> A   1     -29.535  -4.014  53.495  0.00  0.00    +0.037 C 
ATOM     21  C2  <0> A   1     -29.246  -4.774  52.199  0.00  0.00    +0.041 C 
ATOM     22  C3  <0> A   1     -30.064  -4.166  51.057  0.00  0.00    +0.037 C 
ENDBRANCH   1  21
BRANCH   2  23
ATOM     23  C21 <0> A   1     -27.754  -7.127  51.422  0.00  0.00    +0.049 C 
ATOM     24  C22 <0> A   1     -28.308  -7.518  50.282  0.00  0.00    -0.014 C 
BRANCH  24  25
ATOM     25  C23 <0> A   1     -29.002  -8.854  50.201  0.00  0.00    +0.242 C 
ATOM     26  C24 <0> A   1     -30.485  -8.642  49.878  0.00  0.00    +0.050 C 
ATOM     27  C25 <0> A   1     -31.195  -9.998  49.838  0.00  0.00    +0.186 C 
ATOM     28  C26 <0> A   1     -31.040 -10.680  51.203  0.00  0.00    +0.024 C 
ATOM     29  C27 <0> A   1     -29.572 -10.686  51.567  0.00  0.00    +0.498 C 
ATOM     30  O1  <0> A   1     -29.030 -11.698  51.946  0.00  0.00    -0.450 OA
ATOM     31  O2  <0> A   1     -28.885  -9.531  51.457  0.00  0.00    -0.369 OA
BRANCH  27  32
ATOM     32  O3  <0> A   1     -30.608 -10.815  48.822  0.00  0.00    -0.564 OA
ATOM     33  H32 <0> A   1     -29.932 -10.366  48.299  0.00  0.00    +0.387 HD
ENDBRANCH  27  32
ENDBRANCH  24  25
ENDBRANCH   2  23
TORSDOF 6
