REMARK VINA RESULT:      -7.7     13.969     17.817
REMARK  Name = CHEMBL99838
REMARK  15 active torsions:
REMARK  status: ('A' for Active; 'I' for Inactive)
REMARK    1  A    between atoms: C1_1  and  C2_2
REMARK    2  A    between atoms: C2_2  and  C3_3
REMARK    3  A    between atoms: C2_2  and  C4_4
REMARK    4  A    between atoms: C6_6  and  C23_29
REMARK    5  A    between atoms: C8_8  and  C16_22
REMARK    6  A    between atoms: C9_9  and  O1_10
REMARK    7  A    between atoms: O1_10  and  C10_11
REMARK    8  A    between atoms: C10_11  and  C11_12
REMARK    9  A    between atoms: C11_12  and  C12_13
REMARK   10  A    between atoms: C11_12  and  O5_21
REMARK   11  A    between atoms: C12_13  and  C13_14
REMARK   12  A    between atoms: C13_14  and  C14_16
REMARK   13  A    between atoms: C13_14  and  O4_20
REMARK   14  A    between atoms: C14_16  and  C15_17
REMARK   15  A    between atoms: C16_22  and  C17_23
REMARK                            x       y       z     vdW  Elec       q    Type
REMARK                         _______ _______ _______ _____ _____    ______ ____
ROOT
ATOM      1  C4  <0> A   1     -27.954  -2.397  51.069  0.00  0.00    -0.086 A 
ATOM      2  C5  <0> A   1     -28.799  -1.364  51.415  0.00  0.00    +0.028 A 
ATOM      3  C6  <0> A   1     -28.358  -0.045  51.325  0.00  0.00    -0.053 A 
ATOM      4  C7  <0> A   1     -27.064   0.225  50.885  0.00  0.00    +0.027 A 
ATOM      5  C8  <0> A   1     -26.223  -0.811  50.539  0.00  0.00    -0.088 A 
ATOM      6  C9  <0> A   1     -26.664  -2.125  50.635  0.00  0.00    +0.106 A 
ENDROOT
BRANCH   3   7
ATOM      7  C23 <0> A   1     -29.264   1.069  51.698  0.00  0.00    -0.037 A 
ATOM      8  C24 <0> A   1     -28.747   2.342  51.931  0.00  0.00    +0.011 A 
ATOM      9  C25 <0> A   1     -29.593   3.376  52.278  0.00  0.00    +0.006 A 
ATOM     10  C26 <0> A   1     -30.953   3.150  52.394  0.00  0.00    -0.002 A 
ATOM     11  C27 <0> A   1     -31.472   1.888  52.164  0.00  0.00    +0.006 A 
ATOM     12  C28 <0> A   1     -30.635   0.848  51.812  0.00  0.00    +0.012 A 
ENDBRANCH   3   7
BRANCH   1  14
ATOM     13  C1  <0> A   1     -28.629  -4.196  52.636  0.00  0.00    +0.028 C 
ATOM     14  C2  <0> A   1     -28.430  -3.824  51.165  0.00  0.00    +0.032 C 
ATOM     15  C3  <0> A   1     -29.757  -3.970  50.418  0.00  0.00    +0.023 C 
ENDBRANCH   1  14
BRANCH   6  16
ATOM     16  O1  <0> A   1     -25.832  -3.145  50.299  0.00  0.00    -0.316 OA
BRANCH  16  17
ATOM     17  C10 <0> A   1     -25.096  -3.758  51.359  0.00  0.00    +0.146 C 
BRANCH  17  18
ATOM     18  C11 <0> A   1     -24.517  -5.090  50.875  0.00  0.00    +0.225 C 
BRANCH  18  19
ATOM     19  O5  <0> A   1     -23.504  -5.527  51.783  0.00  0.00    -0.531 OA
ATOM     20  H19 <0> A   1     -22.698  -5.842  51.353  0.00  0.00    +0.362 HD
ENDBRANCH  18  19
BRANCH  18  21
ATOM     21  C12 <0> A   1     -25.630  -6.137  50.811  0.00  0.00    -0.044 C 
BRANCH  21  22
ATOM     22  C13 <0> A   1     -25.248  -7.226  49.806  0.00  0.00    +0.235 C 
BRANCH  22  23
ATOM     23  O4  <0> A   1     -23.984  -6.910  49.221  0.00  0.00    -0.527 OA
ATOM     24  H18 <0> A   1     -23.475  -7.684  48.940  0.00  0.00    +0.350 HD
ENDBRANCH  22  23
BRANCH  22  25
ATOM     25  C14 <0> A   1     -25.153  -8.573  50.528  0.00  0.00    -0.101 C 
BRANCH  25  26
ATOM     26  C15 <0> A   1     -23.704  -8.916  50.763  0.00  0.00    +0.491 C 
ATOM     27  O2  <0> A   1     -23.131  -8.493  51.753  0.00  0.00    -0.680 OA
ATOM     28  O3  <0> A   1     -23.106  -9.614  49.964  0.00  0.00    -0.713 OA
ENDBRANCH  25  26
ENDBRANCH  22  25
ENDBRANCH  21  22
ENDBRANCH  18  21
ENDBRANCH  17  18
ENDBRANCH  16  17
ENDBRANCH   6  16
BRANCH   5  29
ATOM     29  C16 <0> A   1     -24.824  -0.520  50.062  0.00  0.00    +0.071 C 
BRANCH  29  30
ATOM     30  C17 <0> A   1     -23.984  -0.003  51.232  0.00  0.00    +0.002 C 
ATOM     31  C18 <0> A   1     -23.602   1.457  50.979  0.00  0.00    +0.006 C 
ATOM     32  C19 <0> A   1     -22.763   1.975  52.149  0.00  0.00    -0.001 C 
ATOM     33  C20 <0> A   1     -21.493   1.131  52.277  0.00  0.00    -0.002 C 
ATOM     34  C21 <0> A   1     -21.875  -0.329  52.530  0.00  0.00    +0.004 C 
ATOM     35  C22 <0> A   1     -22.714  -0.846  51.360  0.00  0.00    +0.009 C 
ENDBRANCH  29  30
ENDBRANCH   5  29
TORSDOF 13
