REMARK VINA RESULT:      -7.4     16.925     19.736
REMARK  Name = CHEMBL159951
REMARK  14 active torsions:
REMARK  status: ('A' for Active; 'I' for Inactive)
REMARK    1  A    between atoms: C1_1  and  C2_2
REMARK    2  A    between atoms: C2_2  and  C3_3
REMARK    3  A    between atoms: C2_2  and  C4_4
REMARK    4  A    between atoms: C5_5  and  C20_22
REMARK    5  A    between atoms: C6_6  and  C14_15
REMARK    6  A    between atoms: N1_8  and  C8_9
REMARK    7  A    between atoms: C20_22  and  C21_23
REMARK    8  A    between atoms: C21_23  and  C22_24
REMARK    9  A    between atoms: C22_24  and  C23_26
REMARK   10  A    between atoms: C22_24  and  O4_34
REMARK   11  A    between atoms: C23_26  and  C24_27
REMARK   12  A    between atoms: C24_27  and  C25_29
REMARK   13  A    between atoms: C24_27  and  O3_33
REMARK   14  A    between atoms: C25_29  and  C26_30
REMARK                            x       y       z     vdW  Elec       q    Type
REMARK                         _______ _______ _______ _____ _____    ______ ____
ROOT
ATOM      1  C4  <0> A   1     -26.603  -1.286  52.470  0.00  0.00    +0.030 C 
ATOM      2  C5  <0> A   1     -26.878  -2.490  51.936  0.00  0.00    -0.135 C 
ATOM      3  C6  <0> A   1     -28.103  -2.369  51.232  0.00  0.00    -0.132 C 
ATOM      4  C7  <0> A   1     -28.520  -1.082  51.372  0.00  0.00    +0.164 C 
ATOM      5  N1  <0> A   1     -27.604  -0.423  52.134  0.00  0.00    -0.431 N 
ENDROOT
BRANCH   3   6
ATOM      6  C14 <0> A   1     -28.798  -3.445  50.482  0.00  0.00    -0.005 A 
ATOM      7  C15 <0> A   1     -28.397  -3.768  49.188  0.00  0.00    +0.052 A 
ATOM      8  C16 <0> A   1     -29.046  -4.768  48.494  0.00  0.00    -0.015 A 
ATOM      9  C17 <0> A   1     -30.097  -5.452  49.084  0.00  0.00    +0.088 A 
ATOM     10  C18 <0> A   1     -30.500  -5.134  50.370  0.00  0.00    -0.019 A 
ATOM     11  C19 <0> A   1     -29.852  -4.140  51.073  0.00  0.00    +0.040 A 
ATOM     12  F1  <0> A   1     -30.730  -6.431  48.401  0.00  0.00    -0.143 F 
ENDBRANCH   3   6
BRANCH   5  13
ATOM     13  C8  <0> A   1     -27.680   0.987  52.527  0.00  0.00    +0.236 C 
ATOM     14  C9  <0> A   1     -28.966   1.226  53.322  0.00  0.00    +0.012 C 
ATOM     15  C10 <0> A   1     -29.046   2.697  53.732  0.00  0.00    +0.017 C 
ATOM     16  C11 <0> A   1     -29.049   3.577  52.480  0.00  0.00    +0.007 C 
ATOM     17  C12 <0> A   1     -27.764   3.338  51.685  0.00  0.00    +0.017 C 
ATOM     18  C13 <0> A   1     -27.684   1.866  51.275  0.00  0.00    +0.012 C 
ENDBRANCH   5  13
BRANCH   1  20
ATOM     19  C1  <0> A   1     -24.613   0.186  52.637  0.00  0.00    +0.020 C 
ATOM     20  C2  <0> A   1     -25.393  -0.949  53.304  0.00  0.00    +0.068 C 
ATOM     21  C3  <0> A   1     -25.842  -0.507  54.699  0.00  0.00    +0.020 C 
ENDBRANCH   1  20
BRANCH   2  22
ATOM     22  C20 <0> A   1     -26.040  -3.736  52.062  0.00  0.00    +0.094 C 
BRANCH  22  23
ATOM     23  C21 <0> A   1     -24.870  -3.665  51.079  0.00  0.00    -0.014 C 
BRANCH  23  24
ATOM     24  C22 <0> A   1     -24.418  -5.083  50.722  0.00  0.00    +0.207 C 
BRANCH  24  25
ATOM     25  O4  <0> A   1     -23.556  -5.581  51.745  0.00  0.00    -0.542 OA
ATOM     26  H35 <0> A   1     -22.742  -5.984  51.413  0.00  0.00    +0.362 HD
ENDBRANCH  24  25
BRANCH  24  27
ATOM     27  C23 <0> A   1     -25.644  -5.992  50.601  0.00  0.00    -0.054 C 
BRANCH  27  28
ATOM     28  C24 <0> A   1     -25.290  -7.215  49.751  0.00  0.00    +0.229 C 
BRANCH  28  29
ATOM     29  O3  <0> A   1     -23.973  -7.058  49.218  0.00  0.00    -0.528 OA
ATOM     30  H34 <0> A   1     -23.271  -7.112  49.881  0.00  0.00    +0.349 HD
ENDBRANCH  28  29
BRANCH  28  31
ATOM     31  C25 <0> A   1     -25.343  -8.472  50.620  0.00  0.00    -0.104 C 
BRANCH  31  32
ATOM     32  C26 <0> A   1     -23.941  -8.962  50.880  0.00  0.00    +0.490 C 
ATOM     33  O1  <0> A   1     -23.272  -8.454  51.763  0.00  0.00    -0.681 OA
ATOM     34  O2  <0> A   1     -23.477  -9.867  50.208  0.00  0.00    -0.714 OA
ENDBRANCH  31  32
ENDBRANCH  28  31
ENDBRANCH  27  28
ENDBRANCH  24  27
ENDBRANCH  23  24
ENDBRANCH  22  23
ENDBRANCH   2  22
TORSDOF 12
