REMARK VINA RESULT:      -7.4     15.339     18.827
REMARK  Name = CHEMBL398240
REMARK  17 active torsions:
REMARK  status: ('A' for Active; 'I' for Inactive)
REMARK    1  A    between atoms: C1_1  and  C2_2
REMARK    2  A    between atoms: C2_2  and  C3_3
REMARK    3  A    between atoms: C2_2  and  N1_4
REMARK    4  A    between atoms: C4_5  and  C27_32
REMARK    5  A    between atoms: C5_6  and  C21_25
REMARK    6  A    between atoms: C6_7  and  C15_19
REMARK    7  A    between atoms: C7_8  and  C8_9
REMARK    8  A    between atoms: N2_11  and  C9_12
REMARK    9  A    between atoms: C9_12  and  C10_13
REMARK   10  A    between atoms: C27_32  and  C28_33
REMARK   11  A    between atoms: C28_33  and  C29_34
REMARK   12  A    between atoms: C29_34  and  C30_36
REMARK   13  A    between atoms: C29_34  and  O5_44
REMARK   14  A    between atoms: C30_36  and  C31_37
REMARK   15  A    between atoms: C31_37  and  C32_39
REMARK   16  A    between atoms: C31_37  and  O4_43
REMARK   17  A    between atoms: C32_39  and  C33_40
REMARK                            x       y       z     vdW  Elec       q    Type
REMARK                         _______ _______ _______ _____ _____    ______ ____
ROOT
ATOM      1  N1  <0> A   1     -25.527  -2.698  52.133  0.00  0.00    -0.402 N 
ATOM      2  C4  <0> A   1     -26.758  -3.252  52.248  0.00  0.00    +0.073 C 
ATOM      3  C5  <0> A   1     -26.686  -4.570  51.907  0.00  0.00    -0.122 C 
ATOM      4  C6  <0> A   1     -25.339  -4.848  51.562  0.00  0.00    -0.058 C 
ATOM      5  C7  <0> A   1     -24.637  -3.658  51.707  0.00  0.00    -0.030 C 
ENDROOT
BRANCH   3   6
ATOM      6  C21 <0> A   1     -27.812  -5.536  51.898  0.00  0.00    -0.008 A 
ATOM      7  C22 <0> A   1     -28.558  -5.728  50.736  0.00  0.00    +0.050 A 
ATOM      8  C23 <0> A   1     -29.605  -6.627  50.733  0.00  0.00    -0.016 A 
ATOM      9  C24 <0> A   1     -29.915  -7.338  51.881  0.00  0.00    +0.095 A 
ATOM     10  C25 <0> A   1     -29.176  -7.150  53.037  0.00  0.00    -0.017 A 
ATOM     11  C26 <0> A   1     -28.123  -6.257  53.048  0.00  0.00    +0.055 A 
ATOM     12  F1  <0> A   1     -30.941  -8.217  51.872  0.00  0.00    -0.142 F 
ENDBRANCH   3   6
BRANCH   4  13
ATOM     13  C15 <0> A   1     -24.789  -6.152  51.126  0.00  0.00    -0.012 A 
ATOM     14  C16 <0> A   1     -24.809  -6.504  49.776  0.00  0.00    +0.024 A 
ATOM     15  C17 <0> A   1     -24.295  -7.721  49.377  0.00  0.00    +0.001 A 
ATOM     16  C18 <0> A   1     -23.761  -8.591  50.311  0.00  0.00    -0.003 A 
ATOM     17  C19 <0> A   1     -23.739  -8.247  51.651  0.00  0.00    +0.003 A 
ATOM     18  C20 <0> A   1     -24.244  -7.030  52.062  0.00  0.00    +0.013 A 
ENDBRANCH   4  13
BRANCH   5  19
ATOM     19  C8  <0> A   1     -23.208  -3.461  51.454  0.00  0.00    +0.606 C 
ATOM     20  O1  <0> A   1     -22.825  -3.140  50.344  0.00  0.00    -0.519 OA
ATOM     21  N2  <0> A   1     -22.317  -3.634  52.450  0.00  0.00    -0.713 N 
ATOM     22  H10 <0> A   1     -22.614  -3.954  53.317  0.00  0.00    +0.404 HD
BRANCH  21  23
ATOM     23  C9  <0> A   1     -20.899  -3.342  52.224  0.00  0.00    +0.348 C 
BRANCH  23  24
ATOM     24  C10 <0> A   1     -20.110  -3.698  53.457  0.00  0.00    +0.105 A 
ATOM     25  C11 <0> A   1     -20.508  -3.211  54.688  0.00  0.00    -0.016 A 
ATOM     26  C12 <0> A   1     -19.774  -3.546  55.816  0.00  0.00    +0.063 A 
ATOM     27  C13 <0> A   1     -18.663  -4.362  55.663  0.00  0.00    -0.027 A 
ATOM     28  C14 <0> A   1     -18.326  -4.811  54.401  0.00  0.00    +0.260 A 
ATOM     29  N3  <0> A   1     -19.051  -4.477  53.350  0.00  0.00    -0.466 NA
ENDBRANCH  23  24
ENDBRANCH  21  23
ENDBRANCH   5  19
BRANCH   1  31
ATOM     30  C1  <0> A   1     -24.222  -1.229  53.588  0.00  0.00    +0.046 C 
ATOM     31  C2  <0> A   1     -25.197  -1.298  52.411  0.00  0.00    +0.229 C 
ATOM     32  C3  <0> A   1     -24.548  -0.671  51.175  0.00  0.00    +0.042 C 
ENDBRANCH   1  31
BRANCH   2  33
ATOM     33  C27 <0> A   1     -28.005  -2.528  52.683  0.00  0.00    +0.117 C 
BRANCH  33  34
ATOM     34  C28 <0> A   1     -28.718  -1.956  51.457  0.00  0.00    -0.007 C 
BRANCH  34  35
ATOM     35  C29 <0> A   1     -29.045  -0.482  51.697  0.00  0.00    +0.212 C 
BRANCH  35  36
ATOM     36  O5  <0> A   1     -28.981  -0.201  53.097  0.00  0.00    -0.541 OA
ATOM     37  H35 <0> A   1     -29.486  -0.819  53.644  0.00  0.00    +0.362 HD
ENDBRANCH  35  36
BRANCH  35  38
ATOM     38  C30 <0> A   1     -28.031   0.392  50.956  0.00  0.00    -0.051 C 
BRANCH  38  39
ATOM     39  C31 <0> A   1     -28.622   1.788  50.740  0.00  0.00    +0.230 C 
BRANCH  39  40
ATOM     40  O4  <0> A   1     -29.943   1.835  51.283  0.00  0.00    -0.528 OA
ATOM     41  H34 <0> A   1     -30.591   1.318  50.787  0.00  0.00    +0.349 HD
ENDBRANCH  39  40
BRANCH  39  42
ATOM     42  C32 <0> A   1     -27.745   2.827  51.443  0.00  0.00    -0.103 C 
BRANCH  42  43
ATOM     43  C33 <0> A   1     -28.405   3.254  52.728  0.00  0.00    +0.490 C 
ATOM     44  O2  <0> A   1     -28.218   2.617  53.751  0.00  0.00    -0.681 OA
ATOM     45  O3  <0> A   1     -29.127   4.236  52.745  0.00  0.00    -0.713 OA
ENDBRANCH  42  43
ENDBRANCH  39  42
ENDBRANCH  38  39
ENDBRANCH  35  38
ENDBRANCH  34  35
ENDBRANCH  33  34
ENDBRANCH   2  33
TORSDOF 15
