REMARK VINA RESULT:      -7.7     17.288     19.426
REMARK  Name = CHEMBL424546
REMARK  3 active torsions:
REMARK  status: ('A' for Active; 'I' for Inactive)
REMARK    1  A    between atoms: C13_14  and  C14_15
REMARK    2  A    between atoms: C14_15  and  C15_16
REMARK    3  A    between atoms: C17_18  and  O3_24
REMARK                            x       y       z     vdW  Elec       q    Type
REMARK                         _______ _______ _______ _____ _____    ______ ____
ROOT
ATOM      1  C1  <0> A   1     -21.118  -2.726  52.646  0.00  0.00    +0.001 A 
ATOM      2  C2  <0> A   1     -22.125  -3.339  51.921  0.00  0.00    +0.071 A 
ATOM      3  C3  <0> A   1     -23.260  -2.633  51.582  0.00  0.00    -0.097 A 
ATOM      4  C4  <0> A   1     -23.400  -1.302  51.965  0.00  0.00    -0.021 A 
ATOM      5  C5  <0> A   1     -22.382  -0.687  52.696  0.00  0.00    +0.009 A 
ATOM      6  C6  <0> A   1     -21.248  -1.402  53.032  0.00  0.00    +0.105 A 
ATOM      7  F1  <0> A   1     -20.264  -0.806  53.741  0.00  0.00    -0.135 F 
ATOM      8  C7  <0> A   1     -24.702  -0.782  51.476  0.00  0.00    -0.026 A 
ATOM      9  C8  <0> A   1     -25.295   0.475  51.602  0.00  0.00    +0.065 A 
ATOM     10  C9  <0> A   1     -26.537   0.711  51.047  0.00  0.00    -0.020 A 
ATOM     11  C10 <0> A   1     -27.197  -0.296  50.364  0.00  0.00    +0.053 A 
ATOM     12  C11 <0> A   1     -26.614  -1.545  50.235  0.00  0.00    +0.006 A 
ATOM     13  C12 <0> A   1     -25.373  -1.788  50.788  0.00  0.00    -0.050 A 
ATOM     14  C13 <0> A   1     -24.500  -3.018  50.814  0.00  0.00    +0.111 C 
ATOM     15 Cl1  <0> A   1     -27.445  -2.807  49.379  0.00  0.00    -0.056 Cl
ATOM     16 Cl2  <0> A   1     -27.273   2.275  51.205  0.00  0.00    -0.053 Cl
ENDROOT
BRANCH  14  17
ATOM     17  C14 <0> A   1     -25.224  -4.164  51.525  0.00  0.00    +0.087 C 
BRANCH  17  18
ATOM     18  C15 <0> A   1     -24.666  -5.501  51.037  0.00  0.00    +0.196 C 
ATOM     19  C16 <0> A   1     -25.632  -6.118  50.021  0.00  0.00    +0.041 C 
ATOM     20  C17 <0> A   1     -25.090  -7.477  49.566  0.00  0.00    +0.184 C 
ATOM     21  C18 <0> A   1     -24.952  -8.391  50.789  0.00  0.00    +0.016 C 
ATOM     22  C19 <0> A   1     -24.155  -7.655  51.844  0.00  0.00    +0.493 C 
ATOM     23  O1  <0> A   1     -23.221  -8.184  52.398  0.00  0.00    -0.448 OA
ATOM     24  O2  <0> A   1     -24.518  -6.392  52.149  0.00  0.00    -0.357 OA
BRANCH  20  25
ATOM     25  O3  <0> A   1     -23.813  -7.302  48.950  0.00  0.00    -0.562 OA
ATOM     26  H15 <0> A   1     -23.855  -7.119  48.001  0.00  0.00    +0.386 HD
ENDBRANCH  20  25
ENDBRANCH  17  18
ENDBRANCH  14  17
TORSDOF 3
