REMARK VINA RESULT:      -7.4      2.769      8.130
REMARK  Name = CHEMBL403646
REMARK  17 active torsions:
REMARK  status: ('A' for Active; 'I' for Inactive)
REMARK    1  A    between atoms: C1_1  and  C2_2
REMARK    2  A    between atoms: C2_2  and  C3_3
REMARK    3  A    between atoms: C2_2  and  C4_4
REMARK    4  A    between atoms: C5_5  and  S1_35
REMARK    5  A    between atoms: C6_6  and  C21_29
REMARK    6  A    between atoms: C7_7  and  C15_22
REMARK    7  A    between atoms: N1_8  and  C8_9
REMARK    8  A    between atoms: C8_9  and  C9_10
REMARK    9  A    between atoms: C9_10  and  C10_11
REMARK   10  A    between atoms: C10_11  and  C11_13
REMARK   11  A    between atoms: C10_11  and  O4_21
REMARK   12  A    between atoms: C11_13  and  C12_14
REMARK   13  A    between atoms: C12_14  and  C13_16
REMARK   14  A    between atoms: C12_14  and  O3_20
REMARK   15  A    between atoms: C13_16  and  C14_17
REMARK   16  A    between atoms: S1_35  and  N2_38
REMARK   17  A    between atoms: N2_38  and  C27_39
REMARK                            x       y       z     vdW  Elec       q    Type
REMARK                         _______ _______ _______ _____ _____    ______ ____
ROOT
ATOM      1  C4  <0> A   1     -15.772   6.236  45.588  0.00  0.00    +0.161 C 
ATOM      2  C5  <0> A   1     -16.321   6.990  46.561  0.00  0.00    -0.669 C 
ATOM      3  C6  <0> A   1     -15.420   8.043  46.848  0.00  0.00    -0.026 C 
ATOM      4  C7  <0> A   1     -14.330   7.879  46.011  0.00  0.00    +0.032 C 
ATOM      5  N1  <0> A   1     -14.560   6.763  45.248  0.00  0.00    -0.421 N 
ENDROOT
BRANCH   4   6
ATOM      6  C15 <0> A   1     -13.135   8.743  45.954  0.00  0.00    -0.011 A 
ATOM      7  C16 <0> A   1     -12.011   8.437  46.724  0.00  0.00    +0.050 A 
ATOM      8  C17 <0> A   1     -10.896   9.247  46.665  0.00  0.00    -0.013 A 
ATOM      9  C18 <0> A   1     -10.891  10.364  45.845  0.00  0.00    +0.096 A 
ATOM     10  C19 <0> A   1     -12.003  10.672  45.078  0.00  0.00    -0.014 A 
ATOM     11  C20 <0> A   1     -13.121   9.867  45.123  0.00  0.00    +0.073 A 
ATOM     12  F1  <0> A   1      -9.796  11.155  45.792  0.00  0.00    -0.142 F 
ENDBRANCH   4   6
BRANCH   3  13
ATOM     13  C21 <0> A   1     -15.608   9.116  47.853  0.00  0.00    +0.003 A 
ATOM     14  C22 <0> A   1     -16.233  10.309  47.494  0.00  0.00    +0.010 A 
ATOM     15  C23 <0> A   1     -16.406  11.304  48.434  0.00  0.00    -0.014 A 
ATOM     16  C24 <0> A   1     -15.960  11.120  49.730  0.00  0.00    -0.014 A 
ATOM     17  C25 <0> A   1     -15.339   9.938  50.093  0.00  0.00    -0.001 A 
ATOM     18  C26 <0> A   1     -15.166   8.933  49.163  0.00  0.00    +0.047 A 
ENDBRANCH   3  13
BRANCH   1  20
ATOM     19  C1  <0> A   1     -17.030   5.372  43.634  0.00  0.00    +0.029 C 
ATOM     20  C2  <0> A   1     -16.394   5.007  44.976  0.00  0.00    +0.069 C 
ATOM     21  C3  <0> A   1     -15.315   3.945  44.758  0.00  0.00    +0.036 C 
ENDBRANCH   1  20
BRANCH   2  22
ATOM     22  S1  <0> A   1     -17.878   6.713  47.336  0.00  0.00    +2.629 S 
ATOM     23  O5  <0> A   1     -18.872   7.011  46.366  0.00  0.00    -1.024 OA
ATOM     24  O6  <0> A   1     -17.794   5.447  47.977  0.00  0.00    -1.042 OA
BRANCH  22  25
ATOM     25  N2  <0> A   1     -18.036   7.842  48.537  0.00  0.00    -1.093 NA
BRANCH  25  26
ATOM     26  C27 <0> A   1     -18.749   7.533  49.698  0.00  0.00    +0.284 A 
ATOM     27  C28 <0> A   1     -18.073   7.304  50.889  0.00  0.00    -0.173 A 
ATOM     28  C29 <0> A   1     -18.782   6.999  52.035  0.00  0.00    +0.029 A 
ATOM     29  C30 <0> A   1     -20.162   6.921  51.996  0.00  0.00    -0.141 A 
ATOM     30  C31 <0> A   1     -20.838   7.149  50.811  0.00  0.00    +0.017 A 
ATOM     31  C32 <0> A   1     -20.136   7.460  49.663  0.00  0.00    -0.080 A 
ENDBRANCH  25  26
ENDBRANCH  22  25
ENDBRANCH   2  22
BRANCH   5  32
ATOM     32  C8  <0> A   1     -13.652   6.225  44.232  0.00  0.00    +0.293 C 
BRANCH  32  33
ATOM     33  C9  <0> A   1     -13.785   7.042  42.946  0.00  0.00    -0.023 C 
BRANCH  33  34
ATOM     34  C10 <0> A   1     -12.395   7.297  42.358  0.00  0.00    +0.217 C 
BRANCH  34  35
ATOM     35  O4  <0> A   1     -11.688   6.059  42.253  0.00  0.00    -0.540 OA
ATOM     36  H19 <0> A   1     -11.850   5.582  41.428  0.00  0.00    +0.366 HD
ENDBRANCH  34  35
BRANCH  34  37
ATOM     37  C11 <0> A   1     -12.537   7.922  40.968  0.00  0.00    -0.049 C 
BRANCH  37  38
ATOM     38  C12 <0> A   1     -13.044   9.359  41.105  0.00  0.00    +0.231 C 
BRANCH  38  39
ATOM     39  O3  <0> A   1     -11.934  10.241  41.293  0.00  0.00    -0.528 OA
ATOM     40  H18 <0> A   1     -11.894  10.963  40.652  0.00  0.00    +0.350 HD
ENDBRANCH  38  39
BRANCH  38  41
ATOM     41  C13 <0> A   1     -13.801   9.755  39.837  0.00  0.00    -0.102 C 
BRANCH  41  42
ATOM     42  C14 <0> A   1     -13.732  11.250  39.658  0.00  0.00    +0.491 C 
ATOM     43  O1  <0> A   1     -14.451  11.977  40.322  0.00  0.00    -0.681 OA
ATOM     44  O2  <0> A   1     -12.958  11.734  38.849  0.00  0.00    -0.715 OA
ENDBRANCH  41  42
ENDBRANCH  38  41
ENDBRANCH  37  38
ENDBRANCH  34  37
ENDBRANCH  33  34
ENDBRANCH  32  33
ENDBRANCH   5  32
TORSDOF 15
