REMARK VINA RESULT:      -7.4      3.076      4.508
REMARK  Name = CHEMBL419542
REMARK  11 active torsions:
REMARK  status: ('A' for Active; 'I' for Inactive)
REMARK    1  A    between atoms: C6_6  and  C7_7
REMARK    2  A    between atoms: C7_7  and  C17_27
REMARK    3  A    between atoms: C8_8  and  C9_9
REMARK    4  A    between atoms: C8_8  and  C16_22
REMARK    5  A    between atoms: C10_10  and  C11_11
REMARK    6  A    between atoms: C11_11  and  C12_13
REMARK    7  A    between atoms: C11_11  and  O4_21
REMARK    8  A    between atoms: C12_13  and  C13_14
REMARK    9  A    between atoms: C13_14  and  C14_16
REMARK   10  A    between atoms: C13_14  and  O3_20
REMARK   11  A    between atoms: C14_16  and  C15_17
REMARK                            x       y       z     vdW  Elec       q    Type
REMARK                         _______ _______ _______ _____ _____    ______ ____
ROOT
ATOM      1  C7  <0> A   1     -14.103   8.134  46.646  0.00  0.00    +0.014 C 
ATOM      2  C8  <0> A   1     -13.060   8.721  45.999  0.00  0.00    -0.039 C 
ENDROOT
BRANCH   1   8
ATOM      3  C1  <0> A   1     -14.044   5.653  46.435  0.00  0.00    +0.070 A 
ATOM      4  C2  <0> A   1     -14.576   4.473  45.959  0.00  0.00    -0.012 A 
ATOM      5  C3  <0> A   1     -15.728   4.490  45.188  0.00  0.00    +0.110 A 
ATOM      6  C4  <0> A   1     -16.349   5.691  44.889  0.00  0.00    -0.007 A 
ATOM      7  C5  <0> A   1     -15.827   6.877  45.360  0.00  0.00    +0.068 A 
ATOM      8  C6  <0> A   1     -14.668   6.866  46.138  0.00  0.00    -0.064 A 
ATOM      9  F2  <0> A   1     -16.244   3.331  44.724  0.00  0.00    -0.136 F 
ENDBRANCH   1   8
BRANCH   1  10
ATOM     10  C17 <0> A   1     -14.671   8.766  47.857  0.00  0.00    -0.078 A 
ATOM     11  C18 <0> A   1     -14.132   8.481  49.113  0.00  0.00    +0.058 A 
ATOM     12  C19 <0> A   1     -14.666   9.072  50.239  0.00  0.00    -0.009 A 
ATOM     13  C20 <0> A   1     -15.735   9.947  50.125  0.00  0.00    +0.108 A 
ATOM     14  C21 <0> A   1     -16.273  10.233  48.880  0.00  0.00    -0.008 A 
ATOM     15  C22 <0> A   1     -15.743   9.652  47.748  0.00  0.00    +0.078 A 
ATOM     16  F1  <0> A   1     -16.254  10.523  51.231  0.00  0.00    -0.136 F 
ENDBRANCH   1  10
BRANCH   2  17
ATOM     17  C16 <0> A   1     -12.484  10.013  46.517  0.00  0.00    +0.246 C 
ATOM     18  N1  <0> A   1     -12.969  11.153  45.718  0.00  0.00    -0.116 NA
ATOM     19  N2  <0> A   1     -11.964  11.670  45.211  0.00  0.00    -0.041 NA
ATOM     20  N3  <0> A   1     -10.796  11.004  45.573  0.00  0.00    -0.042 NA
ATOM     21  N4  <0> A   1     -11.025  10.043  46.322  0.00  0.00    -0.118 NA
ENDBRANCH   2  17
BRANCH   2  22
ATOM     22  C9  <0> A   1     -12.498   8.097  44.802  0.00  0.00    +0.012 C 
ATOM     23  C10 <0> A   1     -12.919   8.474  43.594  0.00  0.00    -0.065 C 
BRANCH  23  24
ATOM     24  C11 <0> A   1     -12.340   7.830  42.359  0.00  0.00    +0.258 C 
BRANCH  24  25
ATOM     25  O4  <0> A   1     -12.214   6.423  42.571  0.00  0.00    -0.533 OA
ATOM     26  H14 <0> A   1     -12.958   6.028  43.046  0.00  0.00    +0.365 HD
ENDBRANCH  24  25
BRANCH  24  27
ATOM     27  C12 <0> A   1     -13.266   8.085  41.168  0.00  0.00    -0.037 C 
BRANCH  27  28
ATOM     28  C13 <0> A   1     -12.705   9.227  40.321  0.00  0.00    +0.233 C 
BRANCH  28  29
ATOM     29  O3  <0> A   1     -13.071   9.031  38.954  0.00  0.00    -0.528 OA
ATOM     30  H13 <0> A   1     -14.002   9.213  38.766  0.00  0.00    +0.350 HD
ENDBRANCH  28  29
BRANCH  28  31
ATOM     31  C14 <0> A   1     -13.275  10.558  40.815  0.00  0.00    -0.099 C 
BRANCH  31  32
ATOM     32  C15 <0> A   1     -13.992  11.249  39.684  0.00  0.00    +0.491 C 
ATOM     33  O1  <0> A   1     -13.358  11.883  38.858  0.00  0.00    -0.681 OA
ATOM     34  O2  <0> A   1     -15.205  11.174  39.595  0.00  0.00    -0.712 OA
ENDBRANCH  31  32
ENDBRANCH  28  31
ENDBRANCH  27  28
ENDBRANCH  24  27
ENDBRANCH  23  24
ENDBRANCH   2  22
TORSDOF 11
