REMARK VINA RESULT:      -6.9      3.146      5.612
REMARK  Name = CHEMBL348225
REMARK  13 active torsions:
REMARK  status: ('A' for Active; 'I' for Inactive)
REMARK    1  A    between atoms: C1_1  and  C2_2
REMARK    2  A    between atoms: C2_2  and  C3_3
REMARK    3  A    between atoms: C2_2  and  C4_4
REMARK    4  A    between atoms: C5_5  and  C19_20
REMARK    5  A    between atoms: C6_6  and  C14_15
REMARK    6  A    between atoms: C7_7  and  C8_9
REMARK    7  A    between atoms: C20_21  and  C21_22
REMARK    8  A    between atoms: C21_22  and  C22_24
REMARK    9  A    between atoms: C21_22  and  O4_32
REMARK   10  A    between atoms: C22_24  and  C23_25
REMARK   11  A    between atoms: C23_25  and  C24_27
REMARK   12  A    between atoms: C23_25  and  O3_31
REMARK   13  A    between atoms: C24_27  and  C25_28
REMARK                            x       y       z     vdW  Elec       q    Type
REMARK                         _______ _______ _______ _____ _____    ______ ____
ROOT
ATOM      1  C4  <0> A   1     -13.635  10.378  42.349  0.00  0.00    -0.118 C 
ATOM      2  C5  <0> A   1     -13.468   9.493  43.383  0.00  0.00    -0.085 C 
ATOM      3  C6  <0> A   1     -13.366   9.993  44.674  0.00  0.00    -0.073 C 
ATOM      4  C7  <0> A   1     -13.438  11.344  44.863  0.00  0.00    -0.128 C 
ATOM      5  S1  <0> A   1     -13.644  11.948  43.196  0.00  0.00    +0.045 S 
ENDROOT
BRANCH   4   6
ATOM      6  C8  <0> A   1     -13.357  12.110  46.125  0.00  0.00    +0.002 A 
ATOM      7  C9  <0> A   1     -12.136  12.633  46.552  0.00  0.00    +0.019 A 
ATOM      8  C10 <0> A   1     -12.068  13.347  47.729  0.00  0.00    +0.007 A 
ATOM      9  C11 <0> A   1     -13.207  13.546  48.488  0.00  0.00    +0.007 A 
ATOM     10  C12 <0> A   1     -14.422  13.030  48.072  0.00  0.00    +0.009 A 
ATOM     11  C13 <0> A   1     -14.504  12.320  46.892  0.00  0.00    +0.029 A 
ENDBRANCH   4   6
BRANCH   3  12
ATOM     12  C14 <0> A   1     -13.182   9.063  45.846  0.00  0.00    +0.041 C 
ATOM     13  C15 <0> A   1     -14.153   9.446  46.982  0.00  0.00    +0.017 C 
ATOM     14  C16 <0> A   1     -13.339   9.203  48.276  0.00  0.00    +0.010 C 
ATOM     15  C17 <0> A   1     -11.918   9.674  47.878  0.00  0.00    +0.005 C 
ATOM     16  C18 <0> A   1     -11.760   9.207  46.416  0.00  0.00    +0.016 C 
ENDBRANCH   3  12
BRANCH   1  18
ATOM     17  C1  <0> A   1     -14.679  11.148  40.236  0.00  0.00    +0.034 C 
ATOM     18  C2  <0> A   1     -13.770  10.097  40.875  0.00  0.00    +0.084 C 
ATOM     19  C3  <0> A   1     -12.390  10.149  40.217  0.00  0.00    +0.033 C 
ENDBRANCH   1  18
BRANCH   2  20
ATOM     20  C19 <0> A   1     -13.397   8.039  43.129  0.00  0.00    +0.037 C 
ATOM     21  C20 <0> A   1     -14.408   7.255  43.477  0.00  0.00    -0.066 C 
BRANCH  21  22
ATOM     22  C21 <0> A   1     -14.397   5.797  43.097  0.00  0.00    +0.251 C 
BRANCH  22  23
ATOM     23  O4  <0> A   1     -13.052   5.317  43.087  0.00  0.00    -0.539 OA
ATOM     24  H31 <0> A   1     -12.966   4.383  43.321  0.00  0.00    +0.363 HD
ENDBRANCH  22  23
BRANCH  22  25
ATOM     25  C22 <0> A   1     -15.216   4.998  44.114  0.00  0.00    -0.043 C 
BRANCH  25  26
ATOM     26  C23 <0> A   1     -16.411   5.835  44.575  0.00  0.00    +0.231 C 
BRANCH  26  27
ATOM     27  O3  <0> A   1     -17.610   5.310  44.000  0.00  0.00    -0.528 OA
ATOM     28  H30 <0> A   1     -18.416   5.559  44.475  0.00  0.00    +0.349 HD
ENDBRANCH  26  27
BRANCH  26  29
ATOM     29  C24 <0> A   1     -16.511   5.782  46.102  0.00  0.00    -0.102 C 
BRANCH  29  30
ATOM     30  C25 <0> A   1     -17.465   6.847  46.579  0.00  0.00    +0.490 C 
ATOM     31  O1  <0> A   1     -17.112   7.642  47.432  0.00  0.00    -0.681 OA
ATOM     32  O2  <0> A   1     -18.589   6.912  46.112  0.00  0.00    -0.713 OA
ENDBRANCH  29  30
ENDBRANCH  26  29
ENDBRANCH  25  26
ENDBRANCH  22  25
ENDBRANCH  21  22
ENDBRANCH   2  20
TORSDOF 11
