REMARK VINA RESULT:      -8.0      0.000      0.000
REMARK  Name = CHEMBL250794
REMARK  16 active torsions:
REMARK  status: ('A' for Active; 'I' for Inactive)
REMARK    1  A    between atoms: C1_1  and  C2_2
REMARK    2  A    between atoms: C2_2  and  C3_3
REMARK    3  A    between atoms: C2_2  and  C4_4
REMARK    4  A    between atoms: C5_5  and  C19_29
REMARK    5  A    between atoms: N2_7  and  C13_22
REMARK    6  A    between atoms: C6_8  and  O1_9
REMARK    7  A    between atoms: O1_9  and  C7_10
REMARK    8  A    between atoms: C7_10  and  C8_11
REMARK    9  A    between atoms: C8_11  and  C9_13
REMARK   10  A    between atoms: C8_11  and  O5_21
REMARK   11  A    between atoms: C9_13  and  C10_14
REMARK   12  A    between atoms: C10_14  and  C11_16
REMARK   13  A    between atoms: C10_14  and  O4_20
REMARK   14  A    between atoms: C11_16  and  C12_17
REMARK   15  A    between atoms: N3_31  and  C20_32
REMARK   16  A    between atoms: C20_32  and  C21_33
REMARK                            x       y       z     vdW  Elec       q    Type
REMARK                         _______ _______ _______ _____ _____    ______ ____
ROOT
ATOM      1  C4  <0> A   1     -15.899   6.718  46.053  0.00  0.00    -0.160 C 
ATOM      2  C5  <0> A   1     -16.906   7.491  46.670  0.00  0.00    +0.045 C 
ATOM      3  N1  <0> A   1     -16.416   8.695  46.899  0.00  0.00    -0.237 NA
ATOM      4  N2  <0> A   1     -15.094   8.725  46.437  0.00  0.00    -0.318 N 
ATOM      5  C6  <0> A   1     -14.798   7.497  45.926  0.00  0.00    +0.260 C 
ENDROOT
BRANCH   4   6
ATOM      6  C13 <0> A   1     -14.226   9.823  46.495  0.00  0.00    +0.126 A 
ATOM      7  C14 <0> A   1     -13.294   9.919  47.521  0.00  0.00    +0.064 A 
ATOM      8  C15 <0> A   1     -12.441  11.003  47.577  0.00  0.00    +0.005 A 
ATOM      9  C16 <0> A   1     -12.514  11.994  46.613  0.00  0.00    +0.106 A 
ATOM     10  C17 <0> A   1     -13.443  11.901  45.589  0.00  0.00    +0.020 A 
ATOM     11  C18 <0> A   1     -14.294  10.815  45.526  0.00  0.00    +0.073 A 
ATOM     12  F1  <0> A   1     -11.677  13.054  46.669  0.00  0.00    -0.133 F 
ENDBRANCH   4   6
BRANCH   2  13
ATOM     13  C19 <0> A   1     -18.270   7.032  47.003  0.00  0.00    +0.607 C 
ATOM     14  O6  <0> A   1     -19.129   7.006  46.143  0.00  0.00    -0.513 OA
ATOM     15  N3  <0> A   1     -18.562   6.644  48.260  0.00  0.00    -0.710 N 
ATOM     16  H22 <0> A   1     -17.877   6.666  48.946  0.00  0.00    +0.409 HD
BRANCH  15  17
ATOM     17  C20 <0> A   1     -19.914   6.190  48.590  0.00  0.00    +0.354 C 
BRANCH  17  18
ATOM     18  C21 <0> A   1     -19.835   4.917  49.393  0.00  0.00    +0.105 A 
ATOM     19  C22 <0> A   1     -20.994   4.228  49.698  0.00  0.00    -0.013 A 
ATOM     20  C23 <0> A   1     -20.910   3.058  50.437  0.00  0.00    +0.062 A 
ATOM     21  C24 <0> A   1     -19.658   2.623  50.843  0.00  0.00    -0.028 A 
ATOM     22  C25 <0> A   1     -18.544   3.364  50.501  0.00  0.00    +0.259 A 
ATOM     23  N4  <0> A   1     -18.660   4.470  49.792  0.00  0.00    -0.468 NA
ENDBRANCH  17  18
ENDBRANCH  15  17
ENDBRANCH   2  13
BRANCH   1  25
ATOM     24  C1  <0> A   1     -16.224   5.224  44.102  0.00  0.00    +0.028 C 
ATOM     25  C2  <0> A   1     -16.025   5.281  45.617  0.00  0.00    +0.078 C 
ATOM     26  C3  <0> A   1     -14.752   4.521  45.994  0.00  0.00    +0.021 C 
ENDBRANCH   1  25
BRANCH   5  27
ATOM     27  O1  <0> A   1     -13.610   7.123  45.384  0.00  0.00    -0.282 OA
BRANCH  27  28
ATOM     28  C7  <0> A   1     -13.421   7.386  43.993  0.00  0.00    +0.155 C 
BRANCH  28  29
ATOM     29  C8  <0> A   1     -12.196   8.284  43.806  0.00  0.00    +0.232 C 
BRANCH  29  30
ATOM     30  O5  <0> A   1     -11.025   7.587  44.238  0.00  0.00    -0.529 OA
ATOM     31  H17 <0> A   1     -10.667   6.974  43.580  0.00  0.00    +0.363 HD
ENDBRANCH  29  30
BRANCH  29  32
ATOM     32  C9  <0> A   1     -12.054   8.652  42.328  0.00  0.00    -0.040 C 
BRANCH  32  33
ATOM     33  C10 <0> A   1     -13.002   9.807  41.997  0.00  0.00    +0.237 C 
BRANCH  33  34
ATOM     34  O4  <0> A   1     -12.367  11.048  42.312  0.00  0.00    -0.526 OA
ATOM     35  H16 <0> A   1     -11.622  11.267  41.737  0.00  0.00    +0.350 HD
ENDBRANCH  33  34
BRANCH  33  36
ATOM     36  C11 <0> A   1     -13.345   9.775  40.507  0.00  0.00    -0.100 C 
BRANCH  36  37
ATOM     37  C12 <0> A   1     -13.376  11.182  39.968  0.00  0.00    +0.491 C 
ATOM     38  O2  <0> A   1     -12.380  11.658  39.449  0.00  0.00    -0.680 OA
ATOM     39  O3  <0> A   1     -14.396  11.844  40.050  0.00  0.00    -0.712 OA
ENDBRANCH  36  37
ENDBRANCH  33  36
ENDBRANCH  32  33
ENDBRANCH  29  32
ENDBRANCH  28  29
ENDBRANCH  27  28
ENDBRANCH   5  27
TORSDOF 14
