REMARK VINA RESULT:      -8.6     19.656     24.348
REMARK  Name = CHEMBL310463
REMARK  17 active torsions:
REMARK  status: ('A' for Active; 'I' for Inactive)
REMARK    1  A    between atoms: C1_1  and  C2_2
REMARK    2  A    between atoms: C2_2  and  C3_3
REMARK    3  A    between atoms: C3_3  and  C4_4
REMARK    4  A    between atoms: C3_3  and  C5_5
REMARK    5  A    between atoms: C3_3  and  C6_6
REMARK    6  A    between atoms: C6_6  and  O2_8
REMARK    7  A    between atoms: O2_8  and  C7_9
REMARK    8  A    between atoms: C9_12  and  C33_48
REMARK    9  A    between atoms: C10_14  and  O6_37
REMARK   10  A    between atoms: C13_19  and  C18_26
REMARK   11  A    between atoms: C14_21  and  C17_25
REMARK   12  A    between atoms: C18_26  and  C19_27
REMARK   13  A    between atoms: C19_27  and  C20_28
REMARK   14  A    between atoms: C22_30  and  O5_36
REMARK   15  A    between atoms: O6_37  and  C25_38
REMARK   16  A    between atoms: N1_40  and  C26_41
REMARK   17  A    between atoms: C26_41  and  C27_42
REMARK                            x       y       z     vdW  Elec       q    Type
REMARK                         _______ _______ _______ _____ _____    ______ ____
ROOT
ATOM      1  C7  <0> A   1     -25.836  -1.345  53.051  0.00  0.00    +0.185 C 
ATOM      2  C8  <0> A   1     -25.639  -0.865  54.499  0.00  0.00    +0.011 C 
ATOM      3  C9  <0> A   1     -24.485   0.134  54.551  0.00  0.00    -0.015 C 
ATOM      4  C10 <0> A   1     -23.203  -0.547  54.072  0.00  0.00    +0.207 C 
ATOM      5  C11 <0> A   1     -23.387  -1.065  52.651  0.00  0.00    +0.015 C 
ATOM      6  C12 <0> A   1     -24.571  -2.040  52.574  0.00  0.00    +0.025 C 
ATOM      7  C13 <0> A   1     -24.634  -2.593  51.163  0.00  0.00    -0.006 C 
ATOM      8  C14 <0> A   1     -24.700  -1.538  50.074  0.00  0.00    -0.019 C 
ATOM      9  C15 <0> A   1     -23.679  -0.426  50.258  0.00  0.00    +0.018 C 
ATOM     10  C16 <0> A   1     -23.652   0.096  51.692  0.00  0.00    +0.022 C 
ATOM     11  C17 <0> A   1     -26.108  -0.972  49.909  0.00  0.00    +0.015 C 
ATOM     12  C33 <0> A   1     -24.296   0.620  55.991  0.00  0.00    +0.030 C 
ENDROOT
BRANCH   1  13
ATOM     13  O2  <0> A   1     -26.961  -2.228  53.047  0.00  0.00    -0.334 OA
BRANCH  13  14
ATOM     14  C6  <0> A   1     -28.146  -1.702  52.700  0.00  0.00    +0.471 C 
ATOM     15  O1  <0> A   1     -28.300  -0.504  52.703  0.00  0.00    -0.508 OA
BRANCH  14  16
ATOM     16  C3  <0> A   1     -29.286  -2.607  52.307  0.00  0.00    -0.057 C 
ATOM     17  C4  <0> A   1     -30.614  -1.942  52.673  0.00  0.00    +0.056 C 
ATOM     18  C5  <0> A   1     -29.159  -3.939  53.050  0.00  0.00    +0.077 C 
BRANCH  16  20
ATOM     19  C1  <0> A   1     -29.410  -4.354  50.526  0.00  0.00    +0.023 C 
ATOM     20  C2  <0> A   1     -29.240  -2.858  50.799  0.00  0.00    +0.033 C 
ENDBRANCH  16  20
ENDBRANCH  14  16
ENDBRANCH  13  14
ENDBRANCH   1  13
BRANCH   7  21
ATOM     21  C18 <0> A   1     -25.756  -3.615  50.986  0.00  0.00    +0.035 C 
BRANCH  21  22
ATOM     22  C19 <0> A   1     -25.555  -4.768  51.972  0.00  0.00    +0.043 C 
BRANCH  22  23
ATOM     23  C20 <0> A   1     -24.824  -5.916  51.272  0.00  0.00    +0.196 C 
ATOM     24  C21 <0> A   1     -25.708  -6.480  50.156  0.00  0.00    +0.037 C 
ATOM     25  C22 <0> A   1     -24.989  -7.655  49.485  0.00  0.00    +0.182 C 
ATOM     26  C23 <0> A   1     -24.710  -8.734  50.540  0.00  0.00    +0.015 C 
ATOM     27  C24 <0> A   1     -24.009  -8.082  51.712  0.00  0.00    +0.495 C 
ATOM     28  O3  <0> A   1     -23.003  -8.561  52.179  0.00  0.00    -0.447 OA
ATOM     29  O4  <0> A   1     -24.539  -6.950  52.220  0.00  0.00    -0.361 OA
BRANCH  25  30
ATOM     30  O5  <0> A   1     -23.756  -7.204  48.921  0.00  0.00    -0.563 OA
ATOM     31  H38 <0> A   1     -23.624  -6.248  48.976  0.00  0.00    +0.386 HD
ENDBRANCH  25  30
ENDBRANCH  22  23
ENDBRANCH  21  22
ENDBRANCH   7  21
BRANCH   4  32
ATOM     32  O6  <0> A   1     -22.882  -1.631  54.946  0.00  0.00    -0.353 OA
BRANCH  32  33
ATOM     33  C25 <0> A   1     -21.649  -1.636  55.487  0.00  0.00    +0.647 C 
ATOM     34  O7  <0> A   1     -20.955  -0.640  55.426  0.00  0.00    -0.565 OA
ATOM     35  N1  <0> A   1     -21.185  -2.744  56.097  0.00  0.00    -0.707 N 
ATOM     36  H39 <0> A   1     -21.739  -3.539  56.147  0.00  0.00    +0.407 HD
BRANCH  35  37
ATOM     37  C26 <0> A   1     -19.844  -2.749  56.686  0.00  0.00    +0.341 C 
BRANCH  37  38
ATOM     38  C27 <0> A   1     -18.910  -3.536  55.803  0.00  0.00    -0.115 A 
ATOM     39  C28 <0> A   1     -17.554  -3.266  55.816  0.00  0.00    +0.028 A 
ATOM     40  C29 <0> A   1     -16.698  -3.988  55.006  0.00  0.00    +0.004 A 
ATOM     41  C30 <0> A   1     -17.197  -4.980  54.183  0.00  0.00    +0.017 A 
ATOM     42  C31 <0> A   1     -18.552  -5.250  54.170  0.00  0.00    +0.004 A 
ATOM     43  C32 <0> A   1     -19.408  -4.532  54.983  0.00  0.00    +0.028 A 
ENDBRANCH  37  38
ENDBRANCH  35  37
ENDBRANCH  32  33
ENDBRANCH   4  32
TORSDOF 12
