REMARK VINA RESULT:      -7.6      3.548      6.232
REMARK  Name = CHEMBL398523
REMARK  15 active torsions:
REMARK  status: ('A' for Active; 'I' for Inactive)
REMARK    1  A    between atoms: C1_1  and  C2_2
REMARK    2  A    between atoms: C2_2  and  C3_3
REMARK    3  A    between atoms: C2_2  and  C4_4
REMARK    4  A    between atoms: C5_5  and  C25_30
REMARK    5  A    between atoms: N1_6  and  C19_23
REMARK    6  A    between atoms: C6_8  and  C7_9
REMARK    7  A    between atoms: C12_16  and  C13_17
REMARK    8  A    between atoms: C25_30  and  C26_31
REMARK    9  A    between atoms: C26_31  and  C27_32
REMARK   10  A    between atoms: C27_32  and  C28_34
REMARK   11  A    between atoms: C27_32  and  O5_42
REMARK   12  A    between atoms: C28_34  and  C29_35
REMARK   13  A    between atoms: C29_35  and  C30_37
REMARK   14  A    between atoms: C29_35  and  O4_41
REMARK   15  A    between atoms: C30_37  and  C31_38
REMARK                            x       y       z     vdW  Elec       q    Type
REMARK                         _______ _______ _______ _____ _____    ______ ____
ROOT
ATOM      1  C4  <0> A   1     -22.637  -1.048  52.341  0.00  0.00    -0.123 C 
ATOM      2  C5  <0> A   1     -22.844   0.140  51.726  0.00  0.00    +0.031 C 
ATOM      3  N1  <0> A   1     -21.856   0.979  52.134  0.00  0.00    -0.236 N 
ATOM      4  N2  <0> A   1     -21.072   0.373  52.951  0.00  0.00    -0.263 NA
ATOM      5  C6  <0> A   1     -21.480  -0.867  53.137  0.00  0.00    +0.002 C 
ENDROOT
BRANCH   5   6
ATOM      6  C7  <0> A   1     -20.849  -1.878  54.008  0.00  0.00    +0.594 C 
ATOM      7  O1  <0> A   1     -19.975  -2.600  53.569  0.00  0.00    -0.481 OA
ATOM      8  N3  <0> A   1     -21.241  -2.000  55.292  0.00  0.00    -0.597 N 
ATOM      9  C8  <0> A   1     -22.387  -1.234  55.801  0.00  0.00    +0.274 C 
ATOM     10  C9  <0> A   1     -21.949  -0.463  57.050  0.00  0.00    +0.009 C 
ATOM     11  C10 <0> A   1     -21.347  -1.441  58.062  0.00  0.00    +0.009 C 
ATOM     12  C11 <0> A   1     -20.116  -2.115  57.454  0.00  0.00    +0.021 C 
ATOM     13  C12 <0> A   1     -20.537  -2.908  56.208  0.00  0.00    +0.268 C 
BRANCH  13  14
ATOM     14  C13 <0> A   1     -19.315  -3.465  55.524  0.00  0.00    -0.055 A 
ATOM     15  C14 <0> A   1     -18.140  -2.737  55.506  0.00  0.00    +0.040 A 
ATOM     16  C15 <0> A   1     -17.019  -3.248  54.879  0.00  0.00    -0.005 A 
ATOM     17  C16 <0> A   1     -17.072  -4.488  54.271  0.00  0.00    -0.006 A 
ATOM     18  C17 <0> A   1     -18.247  -5.217  54.289  0.00  0.00    -0.006 A 
ATOM     19  C18 <0> A   1     -19.366  -4.707  54.919  0.00  0.00    -0.003 A 
ENDBRANCH  13  14
ENDBRANCH   5   6
BRANCH   3  20
ATOM     20  C19 <0> A   1     -21.712   2.311  51.722  0.00  0.00    +0.117 A 
ATOM     21  C20 <0> A   1     -22.268   3.335  52.478  0.00  0.00    +0.068 A 
ATOM     22  C21 <0> A   1     -22.125   4.648  52.071  0.00  0.00    +0.020 A 
ATOM     23  C22 <0> A   1     -21.429   4.942  50.911  0.00  0.00    +0.112 A 
ATOM     24  C23 <0> A   1     -20.876   3.921  50.155  0.00  0.00    +0.008 A 
ATOM     25  C24 <0> A   1     -21.010   2.609  50.562  0.00  0.00    +0.070 A 
ATOM     26  F1  <0> A   1     -21.291   6.226  50.514  0.00  0.00    -0.131 F 
ENDBRANCH   3  20
BRANCH   1  28
ATOM     27  C1  <0> A   1     -24.814  -2.092  52.908  0.00  0.00    +0.028 C 
ATOM     28  C2  <0> A   1     -23.468  -2.299  52.210  0.00  0.00    +0.060 C 
ATOM     29  C3  <0> A   1     -23.702  -2.601  50.728  0.00  0.00    +0.025 C 
ENDBRANCH   1  28
BRANCH   2  30
ATOM     30  C25 <0> A   1     -23.960   0.470  50.769  0.00  0.00    +0.127 C 
BRANCH  30  31
ATOM     31  C26 <0> A   1     -25.091   1.169  51.526  0.00  0.00    -0.008 C 
BRANCH  31  32
ATOM     32  C27 <0> A   1     -26.437   0.602  51.069  0.00  0.00    +0.214 C 
BRANCH  32  33
ATOM     33  O5  <0> A   1     -27.310   1.676  50.712  0.00  0.00    -0.540 OA
ATOM     34  H37 <0> A   1     -28.173   1.643  51.146  0.00  0.00    +0.363 HD
ENDBRANCH  32  33
BRANCH  32  35
ATOM     35  C28 <0> A   1     -26.223  -0.306  49.857  0.00  0.00    -0.052 C 
BRANCH  35  36
ATOM     36  C29 <0> A   1     -27.391  -1.288  49.742  0.00  0.00    +0.231 C 
BRANCH  36  37
ATOM     37  O4  <0> A   1     -26.980  -2.429  48.986  0.00  0.00    -0.528 OA
ATOM     38  H36 <0> A   1     -27.713  -2.963  48.651  0.00  0.00    +0.349 HD
ENDBRANCH  36  37
BRANCH  36  39
ATOM     39  C30 <0> A   1     -27.823  -1.732  51.141  0.00  0.00    -0.103 C 
BRANCH  39  40
ATOM     40  C31 <0> A   1     -28.236  -3.181  51.103  0.00  0.00    +0.491 C 
ATOM     41  O2  <0> A   1     -29.324  -3.492  50.650  0.00  0.00    -0.681 OA
ATOM     42  O3  <0> A   1     -27.482  -4.041  51.523  0.00  0.00    -0.713 OA
ENDBRANCH  39  40
ENDBRANCH  36  39
ENDBRANCH  35  36
ENDBRANCH  32  35
ENDBRANCH  31  32
ENDBRANCH  30  31
ENDBRANCH   2  30
TORSDOF 13
