REMARK VINA RESULT:      -7.0     16.529     19.943
REMARK  Name = CHEMBL333904
REMARK  15 active torsions:
REMARK  status: ('A' for Active; 'I' for Inactive)
REMARK    1  A    between atoms: C1_1  and  C2_2
REMARK    2  A    between atoms: C2_2  and  C3_3
REMARK    3  A    between atoms: C2_2  and  C4_4
REMARK    4  A    between atoms: C6_6  and  C22_30
REMARK    5  A    between atoms: C7_7  and  C16_23
REMARK    6  A    between atoms: N1_8  and  C8_9
REMARK    7  A    between atoms: C9_10  and  C10_11
REMARK    8  A    between atoms: C10_11  and  C11_13
REMARK    9  A    between atoms: C10_11  and  O4_22
REMARK   10  A    between atoms: C11_13  and  C12_14
REMARK   11  A    between atoms: C12_14  and  C13_16
REMARK   12  A    between atoms: C12_14  and  O3_21
REMARK   13  A    between atoms: C13_16  and  C14_17
REMARK   14  A    between atoms: C14_17  and  O2_19
REMARK   15  A    between atoms: O2_19  and  C15_20
REMARK                            x       y       z     vdW  Elec       q    Type
REMARK                         _______ _______ _______ _____ _____    ______ ____
ROOT
ATOM      1  C4  <0> A   1     -27.895  -4.204  50.140  0.00  0.00    +0.043 C 
ATOM      2  C5  <0> A   1     -28.502  -3.031  50.401  0.00  0.00    -0.020 C 
ATOM      3  C6  <0> A   1     -27.522  -2.139  50.898  0.00  0.00    -0.112 C 
ATOM      4  C7  <0> A   1     -26.321  -2.833  50.918  0.00  0.00    +0.072 C 
ATOM      5  N1  <0> A   1     -26.569  -4.100  50.455  0.00  0.00    -0.389 N 
ENDROOT
BRANCH   4   6
ATOM      6  C16 <0> A   1     -25.016  -2.305  51.362  0.00  0.00    -0.034 A 
ATOM      7  C17 <0> A   1     -24.094  -1.837  50.424  0.00  0.00    +0.056 A 
ATOM      8  C18 <0> A   1     -22.876  -1.344  50.844  0.00  0.00    -0.011 A 
ATOM      9  C19 <0> A   1     -22.567  -1.314  52.196  0.00  0.00    +0.106 A 
ATOM     10  C20 <0> A   1     -23.479  -1.777  53.131  0.00  0.00    -0.010 A 
ATOM     11  C21 <0> A   1     -24.702  -2.266  52.722  0.00  0.00    +0.069 A 
ATOM     12  F1  <0> A   1     -21.373  -0.830  52.602  0.00  0.00    -0.136 F 
ENDBRANCH   4   6
BRANCH   3  13
ATOM     13  C22 <0> A   1     -27.735  -0.736  51.316  0.00  0.00    +0.041 A 
ATOM     14  C23 <0> A   1     -28.220  -0.432  52.594  0.00  0.00    -0.031 A 
ATOM     15  C24 <0> A   1     -28.404   0.889  52.942  0.00  0.00    +0.255 A 
ATOM     16  N2  <0> A   1     -28.132   1.860  52.089  0.00  0.00    -0.490 NA
ATOM     17  C25 <0> A   1     -27.675   1.616  50.875  0.00  0.00    +0.255 A 
ATOM     18  C26 <0> A   1     -27.455   0.324  50.447  0.00  0.00    -0.031 A 
ENDBRANCH   3  13
BRANCH   1  20
ATOM     19  C1  <0> A   1     -29.057  -6.307  50.756  0.00  0.00    +0.041 C 
ATOM     20  C2  <0> A   1     -28.570  -5.437  49.595  0.00  0.00    +0.050 C 
ATOM     21  C3  <0> A   1     -29.764  -5.024  48.731  0.00  0.00    +0.033 C 
ENDBRANCH   1  20
BRANCH   5  22
ATOM     22  C8  <0> A   1     -25.622  -5.114  50.322  0.00  0.00    +0.201 C 
ATOM     23  C9  <0> A   1     -25.353  -5.904  51.343  0.00  0.00    -0.056 C 
BRANCH  23  24
ATOM     24  C10 <0> A   1     -24.331  -7.002  51.199  0.00  0.00    +0.268 C 
BRANCH  24  25
ATOM     25  O4  <0> A   1     -23.704  -7.236  52.462  0.00  0.00    -0.538 OA
ATOM     26  H21 <0> A   1     -24.229  -7.775  53.069  0.00  0.00    +0.370 HD
ENDBRANCH  24  25
BRANCH  24  27
ATOM     27  C11 <0> A   1     -25.021  -8.283  50.728  0.00  0.00    -0.015 C 
BRANCH  27  28
ATOM     28  C12 <0> A   1     -24.379  -8.758  49.424  0.00  0.00    +0.233 C 
BRANCH  28  29
ATOM     29  O3  <0> A   1     -23.598  -7.701  48.863  0.00  0.00    -0.530 OA
ATOM     30  H20 <0> A   1     -24.110  -7.073  48.335  0.00  0.00    +0.366 HD
ENDBRANCH  28  29
BRANCH  28  31
ATOM     31  C13 <0> A   1     -23.479  -9.962  49.706  0.00  0.00    +0.073 C 
BRANCH  31  32
ATOM     32  C14 <0> A   1     -24.193 -11.228  49.306  0.00  0.00    +0.456 C 
ATOM     33  O1  <0> A   1     -23.846 -11.830  48.317  0.00  0.00    -0.486 OA
BRANCH  32  34
ATOM     34  O2  <0> A   1     -25.212 -11.688  50.049  0.00  0.00    -0.359 OA
ATOM     35  C15 <0> A   1     -24.918 -12.048  51.401  0.00  0.00    +0.258 C 
ENDBRANCH  32  34
ENDBRANCH  31  32
ENDBRANCH  28  31
ENDBRANCH  27  28
ENDBRANCH  24  27
ENDBRANCH  23  24
ENDBRANCH   5  22
TORSDOF 12
