REMARK VINA RESULT:      -8.2     31.692     33.245
REMARK  Name = CHEMBL47301
REMARK  7 active torsions:
REMARK  status: ('A' for Active; 'I' for Inactive)
REMARK    1  A    between atoms: C4_4  and  C7_7
REMARK    2  A    between atoms: C7_7  and  C8_8
REMARK    3  A    between atoms: C8_8  and  O1_9
REMARK    4  A    between atoms: O1_9  and  C9_10
REMARK    5  A    between atoms: C14_15  and  C15_16
REMARK    6  A    between atoms: C16_17  and  C17_18
REMARK    7  A    between atoms: C19_20  and  O4_26
REMARK                            x       y       z     vdW  Elec       q    Type
REMARK                         _______ _______ _______ _____ _____    ______ ____
ROOT
ATOM      1  C9  <0> A   1      -4.128   4.122  45.834  0.00  0.00    +0.171 A 
ATOM      2  C10 <0> A   1      -2.898   3.701  45.357  0.00  0.00    -0.051 A 
ATOM      3  C11 <0> A   1      -2.819   2.613  44.505  0.00  0.00    +0.017 A 
ATOM      4  C12 <0> A   1      -3.967   1.938  44.125  0.00  0.00    +0.011 A 
ATOM      5  C13 <0> A   1      -5.201   2.345  44.592  0.00  0.00    +0.016 A 
ATOM      6  C14 <0> A   1      -5.291   3.439  45.456  0.00  0.00    -0.078 A 
ATOM      7 Cl1  <0> A   1      -6.636   1.496  44.111  0.00  0.00    -0.037 Cl
ATOM      8 Cl2  <0> A   1      -1.273   2.092  43.911  0.00  0.00    -0.049 Cl
ENDROOT
BRANCH   6   9
ATOM      9  C15 <0> A   1      -6.607   3.876  45.965  0.00  0.00    +0.057 C 
ATOM     10  C16 <0> A   1      -7.099   3.341  47.074  0.00  0.00    -0.011 C 
BRANCH  10  11
ATOM     11  C17 <0> A   1      -8.442   3.787  47.594  0.00  0.00    +0.243 C 
ATOM     12  C18 <0> A   1      -8.728   5.212  47.113  0.00  0.00    +0.051 C 
ATOM     13  C19 <0> A   1     -10.075   5.677  47.677  0.00  0.00    +0.186 C 
ATOM     14  C20 <0> A   1     -10.012   5.635  49.209  0.00  0.00    +0.023 C 
ATOM     15  C21 <0> A   1      -9.530   4.263  49.628  0.00  0.00    +0.498 C 
ATOM     16  O2  <0> A   1     -10.114   3.632  50.477  0.00  0.00    -0.451 OA
ATOM     17  O3  <0> A   1      -8.431   3.764  49.026  0.00  0.00    -0.367 OA
BRANCH  13  18
ATOM     18  O4  <0> A   1     -11.113   4.810  47.215  0.00  0.00    -0.564 OA
ATOM     19  H20 <0> A   1     -11.354   4.116  47.844  0.00  0.00    +0.387 HD
ENDBRANCH  13  18
ENDBRANCH  10  11
ENDBRANCH   6   9
BRANCH   1  20
ATOM     20  O1  <0> A   1      -4.206   5.190  46.669  0.00  0.00    -0.296 OA
BRANCH  20  21
ATOM     21  C8  <0> A   1      -3.148   6.148  46.597  0.00  0.00    +0.198 C 
BRANCH  21  22
ATOM     22  C7  <0> A   1      -3.592   7.449  47.271  0.00  0.00    +0.096 C 
BRANCH  22  26
ATOM     23  C1  <0> A   1      -1.285   8.074  50.811  0.00  0.00    +0.005 A 
ATOM     24  C2  <0> A   1      -1.566   6.788  50.387  0.00  0.00    +0.006 A 
ATOM     25  C3  <0> A   1      -2.313   6.586  49.242  0.00  0.00    +0.010 A 
ATOM     26  C4  <0> A   1      -2.779   7.669  48.520  0.00  0.00    -0.088 A 
ATOM     27  C5  <0> A   1      -2.499   8.955  48.945  0.00  0.00    +0.011 A 
ATOM     28  C6  <0> A   1      -1.751   9.157  50.089  0.00  0.00    +0.007 A 
ENDBRANCH  22  26
ENDBRANCH  21  22
ENDBRANCH  20  21
ENDBRANCH   1  20
TORSDOF 7
