MODEL 1
REMARK VINA RESULT:      -8.2      0.000      0.000
REMARK  Name = CHEMBL250180
REMARK  17 active torsions:
REMARK  status: ('A' for Active; 'I' for Inactive)
REMARK    1  A    between atoms: C1_1  and  C2_2
REMARK    2  A    between atoms: C2_2  and  C3_3
REMARK    3  A    between atoms: C2_2  and  C4_4
REMARK    4  A    between atoms: C5_5  and  C19_29
REMARK    5  A    between atoms: N2_7  and  C13_22
REMARK    6  A    between atoms: C6_8  and  O1_9
REMARK    7  A    between atoms: O1_9  and  C7_10
REMARK    8  A    between atoms: C7_10  and  C8_11
REMARK    9  A    between atoms: C8_11  and  C9_13
REMARK   10  A    between atoms: C8_11  and  O5_21
REMARK   11  A    between atoms: C9_13  and  C10_14
REMARK   12  A    between atoms: C10_14  and  C11_16
REMARK   13  A    between atoms: C10_14  and  O4_20
REMARK   14  A    between atoms: C11_16  and  C12_17
REMARK   15  A    between atoms: N3_31  and  C20_32
REMARK   16  A    between atoms: C20_32  and  C21_33
REMARK   17  A    between atoms: C21_33  and  C22_34
REMARK                            x       y       z     vdW  Elec       q    Type
REMARK                         _______ _______ _______ _____ _____    ______ ____
ROOT
ATOM      1  C4  <0> A   1     -15.368   6.748  45.796  0.00  0.00    -0.161 C 
ATOM      2  C5  <0> A   1     -16.282   7.331  46.698  0.00  0.00    +0.044 C 
ATOM      3  N1  <0> A   1     -15.867   8.554  46.969  0.00  0.00    -0.238 NA
ATOM      4  N2  <0> A   1     -14.685   8.784  46.252  0.00  0.00    -0.318 N 
ATOM      5  C6  <0> A   1     -14.397   7.658  45.543  0.00  0.00    +0.260 C 
ENDROOT
BRANCH   4   6
ATOM      6  C13 <0> A   1     -13.930   9.964  46.267  0.00  0.00    +0.126 A 
ATOM      7  C14 <0> A   1     -14.241  11.000  45.397  0.00  0.00    +0.064 A 
ATOM      8  C15 <0> A   1     -13.495  12.162  45.413  0.00  0.00    +0.005 A 
ATOM      9  C16 <0> A   1     -12.435  12.293  46.295  0.00  0.00    +0.106 A 
ATOM     10  C17 <0> A   1     -12.122  11.260  47.164  0.00  0.00    +0.020 A 
ATOM     11  C18 <0> A   1     -12.871  10.099  47.155  0.00  0.00    +0.073 A 
ATOM     12  F1  <0> A   1     -11.705  13.430  46.310  0.00  0.00    -0.133 F 
ENDBRANCH   4   6
BRANCH   2  13
ATOM     13  C19 <0> A   1     -17.494   6.686  47.244  0.00  0.00    +0.605 C 
ATOM     14  O6  <0> A   1     -18.541   6.740  46.629  0.00  0.00    -0.514 OA
ATOM     15  N3  <0> A   1     -17.438   6.039  48.425  0.00  0.00    -0.718 N 
ATOM     16  H22 <0> A   1     -16.603   5.997  48.916  0.00  0.00    +0.408 HD
BRANCH  15  17
ATOM     17  C20 <0> A   1     -18.639   5.400  48.967  0.00  0.00    +0.273 C 
BRANCH  17  18
ATOM     18  C21 <0> A   1     -18.241   4.423  50.076  0.00  0.00    +0.070 C 
BRANCH  18  19
ATOM     19  C22 <0> A   1     -19.456   3.655  50.529  0.00  0.00    -0.083 A 
ATOM     20  C23 <0> A   1     -20.654   3.795  49.854  0.00  0.00    +0.009 A 
ATOM     21  C24 <0> A   1     -21.768   3.091  50.269  0.00  0.00    +0.004 A 
ATOM     22  C25 <0> A   1     -21.684   2.244  51.359  0.00  0.00    -0.000 A 
ATOM     23  C26 <0> A   1     -20.486   2.103  52.034  0.00  0.00    +0.004 A 
ATOM     24  C27 <0> A   1     -19.371   2.805  51.615  0.00  0.00    +0.009 A 
ENDBRANCH  18  19
ENDBRANCH  17  18
ENDBRANCH  15  17
ENDBRANCH   2  13
BRANCH   1  26
ATOM     25  C1  <0> A   1     -15.725   5.444  43.717  0.00  0.00    +0.029 C 
ATOM     26  C2  <0> A   1     -15.454   5.357  45.219  0.00  0.00    +0.077 C 
ATOM     27  C3  <0> A   1     -14.132   4.625  45.458  0.00  0.00    +0.021 C 
ENDBRANCH   1  26
BRANCH   5  28
ATOM     28  O1  <0> A   1     -13.326   7.481  44.726  0.00  0.00    -0.282 OA
BRANCH  28  29
ATOM     29  C7  <0> A   1     -13.424   8.013  43.404  0.00  0.00    +0.155 C 
BRANCH  29  30
ATOM     30  C8  <0> A   1     -12.266   7.485  42.554  0.00  0.00    +0.232 C 
BRANCH  30  31
ATOM     31  O5  <0> A   1     -12.328   6.058  42.499  0.00  0.00    -0.529 OA
ATOM     32  H17 <0> A   1     -12.791   5.656  43.247  0.00  0.00    +0.363 HD
ENDBRANCH  30  31
BRANCH  30  33
ATOM     33  C9  <0> A   1     -12.370   8.056  41.139  0.00  0.00    -0.040 C 
BRANCH  33  34
ATOM     34  C10 <0> A   1     -12.912   9.485  41.204  0.00  0.00    +0.237 C 
BRANCH  34  35
ATOM     35  O4  <0> A   1     -11.820  10.408  41.220  0.00  0.00    -0.526 OA
ATOM     36  H16 <0> A   1     -11.607  10.750  42.099  0.00  0.00    +0.350 HD
ENDBRANCH  34  35
BRANCH  34  37
ATOM     37  C11 <0> A   1     -13.788   9.755  39.979  0.00  0.00    -0.101 C 
BRANCH  37  38
ATOM     38  C12 <0> A   1     -13.896  11.241  39.756  0.00  0.00    +0.491 C 
ATOM     39  O2  <0> A   1     -14.598  11.918  40.488  0.00  0.00    -0.680 OA
ATOM     40  O3  <0> A   1     -13.280  11.768  38.845  0.00  0.00    -0.712 OA
ENDBRANCH  37  38
ENDBRANCH  34  37
ENDBRANCH  33  34
ENDBRANCH  30  33
ENDBRANCH  29  30
ENDBRANCH  28  29
ENDBRANCH   5  28
TORSDOF 15
ENDMDL
MODEL 2
REMARK VINA RESULT:      -8.1      1.547      2.553
REMARK  Name = CHEMBL250180
REMARK  17 active torsions:
REMARK  status: ('A' for Active; 'I' for Inactive)
REMARK    1  A    between atoms: C1_1  and  C2_2
REMARK    2  A    between atoms: C2_2  and  C3_3
REMARK    3  A    between atoms: C2_2  and  C4_4
REMARK    4  A    between atoms: C5_5  and  C19_29
REMARK    5  A    between atoms: N2_7  and  C13_22
REMARK    6  A    between atoms: C6_8  and  O1_9
REMARK    7  A    between atoms: O1_9  and  C7_10
REMARK    8  A    between atoms: C7_10  and  C8_11
REMARK    9  A    between atoms: C8_11  and  C9_13
REMARK   10  A    between atoms: C8_11  and  O5_21
REMARK   11  A    between atoms: C9_13  and  C10_14
REMARK   12  A    between atoms: C10_14  and  C11_16
REMARK   13  A    between atoms: C10_14  and  O4_20
REMARK   14  A    between atoms: C11_16  and  C12_17
REMARK   15  A    between atoms: N3_31  and  C20_32
REMARK   16  A    between atoms: C20_32  and  C21_33
REMARK   17  A    between atoms: C21_33  and  C22_34
REMARK                            x       y       z     vdW  Elec       q    Type
REMARK                         _______ _______ _______ _____ _____    ______ ____
ROOT
ATOM      1  C4  <0> A   1     -15.280   6.665  45.814  0.00  0.00    -0.161 C 
ATOM      2  C5  <0> A   1     -16.180   7.256  46.726  0.00  0.00    +0.044 C 
ATOM      3  N1  <0> A   1     -15.773   8.488  46.964  0.00  0.00    -0.238 NA
ATOM      4  N2  <0> A   1     -14.611   8.718  46.215  0.00  0.00    -0.318 N 
ATOM      5  C6  <0> A   1     -14.325   7.581  45.521  0.00  0.00    +0.260 C 
ENDROOT
BRANCH   4   6
ATOM      6  C13 <0> A   1     -13.869   9.906  46.190  0.00  0.00    +0.126 A 
ATOM      7  C14 <0> A   1     -12.727  10.030  46.971  0.00  0.00    +0.064 A 
ATOM      8  C15 <0> A   1     -11.998  11.202  46.945  0.00  0.00    +0.005 A 
ATOM      9  C16 <0> A   1     -12.405  12.254  46.142  0.00  0.00    +0.106 A 
ATOM     10  C17 <0> A   1     -13.544  12.133  45.362  0.00  0.00    +0.020 A 
ATOM     11  C18 <0> A   1     -14.272  10.960  45.381  0.00  0.00    +0.073 A 
ATOM     12  F1  <0> A   1     -11.690  13.401  46.118  0.00  0.00    -0.133 F 
ENDBRANCH   4   6
BRANCH   2  13
ATOM     13  C19 <0> A   1     -17.370   6.608  47.313  0.00  0.00    +0.605 C 
ATOM     14  O6  <0> A   1     -18.455   6.730  46.777  0.00  0.00    -0.514 OA
ATOM     15  N3  <0> A   1     -17.254   5.883  48.443  0.00  0.00    -0.718 N 
ATOM     16  H22 <0> A   1     -16.389   5.786  48.871  0.00  0.00    +0.408 HD
BRANCH  15  17
ATOM     17  C20 <0> A   1     -18.434   5.240  49.026  0.00  0.00    +0.273 C 
BRANCH  17  18
ATOM     18  C21 <0> A   1     -18.553   5.630  50.500  0.00  0.00    +0.070 C 
BRANCH  18  19
ATOM     19  C22 <0> A   1     -19.138   7.014  50.609  0.00  0.00    -0.083 A 
ATOM     20  C23 <0> A   1     -18.346   8.068  51.025  0.00  0.00    +0.009 A 
ATOM     21  C24 <0> A   1     -18.882   9.338  51.125  0.00  0.00    +0.004 A 
ATOM     22  C25 <0> A   1     -20.211   9.555  50.808  0.00  0.00    -0.000 A 
ATOM     23  C26 <0> A   1     -21.003   8.501  50.391  0.00  0.00    +0.004 A 
ATOM     24  C27 <0> A   1     -20.464   7.232  50.287  0.00  0.00    +0.009 A 
ENDBRANCH  18  19
ENDBRANCH  17  18
ENDBRANCH  15  17
ENDBRANCH   2  13
BRANCH   1  26
ATOM     25  C1  <0> A   1     -15.626   5.318  43.762  0.00  0.00    +0.029 C 
ATOM     26  C2  <0> A   1     -15.362   5.263  45.267  0.00  0.00    +0.077 C 
ATOM     27  C3  <0> A   1     -14.041   4.536  45.527  0.00  0.00    +0.021 C 
ENDBRANCH   1  26
BRANCH   5  28
ATOM     28  O1  <0> A   1     -13.272   7.400  44.683  0.00  0.00    -0.282 OA
BRANCH  28  29
ATOM     29  C7  <0> A   1     -13.399   7.924  43.360  0.00  0.00    +0.155 C 
BRANCH  29  30
ATOM     30  C8  <0> A   1     -12.235   7.425  42.501  0.00  0.00    +0.232 C 
BRANCH  30  31
ATOM     31  O5  <0> A   1     -12.266   5.998  42.439  0.00  0.00    -0.529 OA
ATOM     32  H17 <0> A   1     -11.436   5.575  42.698  0.00  0.00    +0.363 HD
ENDBRANCH  30  31
BRANCH  30  33
ATOM     33  C9  <0> A   1     -12.361   8.000  41.089  0.00  0.00    -0.040 C 
BRANCH  33  34
ATOM     34  C10 <0> A   1     -12.909   9.426  41.166  0.00  0.00    +0.237 C 
BRANCH  34  35
ATOM     35  O4  <0> A   1     -11.821  10.350  41.260  0.00  0.00    -0.526 OA
ATOM     36  H16 <0> A   1     -11.330  10.296  42.091  0.00  0.00    +0.350 HD
ENDBRANCH  34  35
BRANCH  34  37
ATOM     37  C11 <0> A   1     -13.725   9.729  39.908  0.00  0.00    -0.101 C 
BRANCH  37  38
ATOM     38  C12 <0> A   1     -13.720  11.213  39.650  0.00  0.00    +0.491 C 
ATOM     39  O2  <0> A   1     -12.941  11.690  38.842  0.00  0.00    -0.680 OA
ATOM     40  O3  <0> A   1     -14.496  11.939  40.249  0.00  0.00    -0.712 OA
ENDBRANCH  37  38
ENDBRANCH  34  37
ENDBRANCH  33  34
ENDBRANCH  30  33
ENDBRANCH  29  30
ENDBRANCH  28  29
ENDBRANCH   5  28
TORSDOF 15
ENDMDL
MODEL 3
REMARK VINA RESULT:      -7.9     12.075     15.848
REMARK  Name = CHEMBL250180
REMARK  17 active torsions:
REMARK  status: ('A' for Active; 'I' for Inactive)
REMARK    1  A    between atoms: C1_1  and  C2_2
REMARK    2  A    between atoms: C2_2  and  C3_3
REMARK    3  A    between atoms: C2_2  and  C4_4
REMARK    4  A    between atoms: C5_5  and  C19_29
REMARK    5  A    between atoms: N2_7  and  C13_22
REMARK    6  A    between atoms: C6_8  and  O1_9
REMARK    7  A    between atoms: O1_9  and  C7_10
REMARK    8  A    between atoms: C7_10  and  C8_11
REMARK    9  A    between atoms: C8_11  and  C9_13
REMARK   10  A    between atoms: C8_11  and  O5_21
REMARK   11  A    between atoms: C9_13  and  C10_14
REMARK   12  A    between atoms: C10_14  and  C11_16
REMARK   13  A    between atoms: C10_14  and  O4_20
REMARK   14  A    between atoms: C11_16  and  C12_17
REMARK   15  A    between atoms: N3_31  and  C20_32
REMARK   16  A    between atoms: C20_32  and  C21_33
REMARK   17  A    between atoms: C21_33  and  C22_34
REMARK                            x       y       z     vdW  Elec       q    Type
REMARK                         _______ _______ _______ _____ _____    ______ ____
ROOT
ATOM      1  C4  <0> A   1      -2.868   6.192  49.120  0.00  0.00    -0.161 C 
ATOM      2  C5  <0> A   1      -2.564   6.781  50.366  0.00  0.00    +0.044 C 
ATOM      3  N1  <0> A   1      -3.252   6.148  51.298  0.00  0.00    -0.238 NA
ATOM      4  N2  <0> A   1      -4.008   5.144  50.678  0.00  0.00    -0.318 N 
ATOM      5  C6  <0> A   1      -3.759   5.195  49.340  0.00  0.00    +0.260 C 
ENDROOT
BRANCH   4   6
ATOM      6  C13 <0> A   1      -4.873   4.249  51.321  0.00  0.00    +0.126 A 
ATOM      7  C14 <0> A   1      -4.481   2.934  51.533  0.00  0.00    +0.064 A 
ATOM      8  C15 <0> A   1      -5.336   2.054  52.167  0.00  0.00    +0.005 A 
ATOM      9  C16 <0> A   1      -6.584   2.481  52.589  0.00  0.00    +0.106 A 
ATOM     10  C17 <0> A   1      -6.977   3.793  52.378  0.00  0.00    +0.020 A 
ATOM     11  C18 <0> A   1      -6.122   4.678  51.750  0.00  0.00    +0.073 A 
ATOM     12  F1  <0> A   1      -7.419   1.618  53.209  0.00  0.00    -0.133 F 
ENDBRANCH   4   6
BRANCH   2  13
ATOM     13  C19 <0> A   1      -1.638   7.909  50.589  0.00  0.00    +0.605 C 
ATOM     14  O6  <0> A   1      -1.908   9.012  50.154  0.00  0.00    -0.514 OA
ATOM     15  N3  <0> A   1      -0.494   7.717  51.274  0.00  0.00    -0.718 N 
ATOM     16  H22 <0> A   1      -0.278   6.837  51.621  0.00  0.00    +0.408 HD
BRANCH  15  17
ATOM     17  C20 <0> A   1       0.425   8.835  51.495  0.00  0.00    +0.273 C 
BRANCH  17  18
ATOM     18  C21 <0> A   1       1.299   8.546  52.717  0.00  0.00    +0.070 C 
BRANCH  18  19
ATOM     19  C22 <0> A   1       2.681   8.151  52.266  0.00  0.00    -0.083 A 
ATOM     20  C23 <0> A   1       3.085   8.410  50.969  0.00  0.00    +0.009 A 
ATOM     21  C24 <0> A   1       4.352   8.048  50.555  0.00  0.00    +0.004 A 
ATOM     22  C25 <0> A   1       5.218   7.428  51.437  0.00  0.00    -0.000 A 
ATOM     23  C26 <0> A   1       4.815   7.170  52.734  0.00  0.00    +0.004 A 
ATOM     24  C27 <0> A   1       3.548   7.536  53.149  0.00  0.00    +0.009 A 
ENDBRANCH  18  19
ENDBRANCH  17  18
ENDBRANCH  15  17
ENDBRANCH   2  13
BRANCH   1  26
ATOM     25  C1  <0> A   1      -1.763   5.370  47.059  0.00  0.00    +0.029 C 
ATOM     26  C2  <0> A   1      -2.306   6.602  47.784  0.00  0.00    +0.077 C 
ATOM     27  C3  <0> A   1      -3.412   7.243  46.941  0.00  0.00    +0.021 C 
ENDBRANCH   1  26
BRANCH   5  28
ATOM     28  O1  <0> A   1      -4.305   4.387  48.395  0.00  0.00    -0.282 OA
BRANCH  28  29
ATOM     29  C7  <0> A   1      -5.731   4.359  48.310  0.00  0.00    +0.155 C 
BRANCH  29  30
ATOM     30  C8  <0> A   1      -6.156   4.421  46.841  0.00  0.00    +0.232 C 
BRANCH  30  31
ATOM     31  O5  <0> A   1      -6.601   5.743  46.530  0.00  0.00    -0.529 OA
ATOM     32  H17 <0> A   1      -7.161   5.794  45.743  0.00  0.00    +0.363 HD
ENDBRANCH  30  31
BRANCH  30  33
ATOM     33  C9  <0> A   1      -4.966   4.061  45.950  0.00  0.00    -0.040 C 
BRANCH  33  34
ATOM     34  C10 <0> A   1      -5.463   3.305  44.716  0.00  0.00    +0.237 C 
BRANCH  34  35
ATOM     35  O4  <0> A   1      -4.363   2.640  44.090  0.00  0.00    -0.526 OA
ATOM     36  H16 <0> A   1      -3.800   3.221  43.561  0.00  0.00    +0.350 HD
ENDBRANCH  34  35
BRANCH  34  37
ATOM     37  C11 <0> A   1      -6.509   2.272  45.137  0.00  0.00    -0.101 C 
BRANCH  37  38
ATOM     38  C12 <0> A   1      -6.172   0.937  44.526  0.00  0.00    +0.491 C 
ATOM     39  O2  <0> A   1      -6.762   0.555  43.529  0.00  0.00    -0.680 OA
ATOM     40  O3  <0> A   1      -5.308   0.238  45.026  0.00  0.00    -0.712 OA
ENDBRANCH  37  38
ENDBRANCH  34  37
ENDBRANCH  33  34
ENDBRANCH  30  33
ENDBRANCH  29  30
ENDBRANCH  28  29
ENDBRANCH   5  28
TORSDOF 15
ENDMDL
MODEL 4
REMARK VINA RESULT:      -7.9     15.253     21.375
REMARK  Name = CHEMBL250180
REMARK  17 active torsions:
REMARK  status: ('A' for Active; 'I' for Inactive)
REMARK    1  A    between atoms: C1_1  and  C2_2
REMARK    2  A    between atoms: C2_2  and  C3_3
REMARK    3  A    between atoms: C2_2  and  C4_4
REMARK    4  A    between atoms: C5_5  and  C19_29
REMARK    5  A    between atoms: N2_7  and  C13_22
REMARK    6  A    between atoms: C6_8  and  O1_9
REMARK    7  A    between atoms: O1_9  and  C7_10
REMARK    8  A    between atoms: C7_10  and  C8_11
REMARK    9  A    between atoms: C8_11  and  C9_13
REMARK   10  A    between atoms: C8_11  and  O5_21
REMARK   11  A    between atoms: C9_13  and  C10_14
REMARK   12  A    between atoms: C10_14  and  C11_16
REMARK   13  A    between atoms: C10_14  and  O4_20
REMARK   14  A    between atoms: C11_16  and  C12_17
REMARK   15  A    between atoms: N3_31  and  C20_32
REMARK   16  A    between atoms: C20_32  and  C21_33
REMARK   17  A    between atoms: C21_33  and  C22_34
REMARK                            x       y       z     vdW  Elec       q    Type
REMARK                         _______ _______ _______ _____ _____    ______ ____
ROOT
ATOM      1  C4  <0> A   1     -26.527  -5.967  51.262  0.00  0.00    -0.161 C 
ATOM      2  C5  <0> A   1     -25.384  -5.362  50.698  0.00  0.00    +0.044 C 
ATOM      3  N1  <0> A   1     -24.694  -6.295  50.069  0.00  0.00    -0.238 NA
ATOM      4  N2  <0> A   1     -25.373  -7.512  50.211  0.00  0.00    -0.318 N 
ATOM      5  C6  <0> A   1     -26.493  -7.286  50.952  0.00  0.00    +0.260 C 
ENDROOT
BRANCH   4   6
ATOM      6  C13 <0> A   1     -24.967  -8.747  49.688  0.00  0.00    +0.126 A 
ATOM      7  C14 <0> A   1     -25.254  -9.071  48.369  0.00  0.00    +0.064 A 
ATOM      8  C15 <0> A   1     -24.854 -10.289  47.856  0.00  0.00    +0.005 A 
ATOM      9  C16 <0> A   1     -24.168 -11.188  48.656  0.00  0.00    +0.106 A 
ATOM     10  C17 <0> A   1     -23.881 -10.866  49.973  0.00  0.00    +0.020 A 
ATOM     11  C18 <0> A   1     -24.274  -9.646  50.488  0.00  0.00    +0.073 A 
ATOM     12  F1  <0> A   1     -23.777 -12.379  48.152  0.00  0.00    -0.133 F 
ENDBRANCH   4   6
BRANCH   2  13
ATOM     13  C19 <0> A   1     -25.021  -3.934  50.796  0.00  0.00    +0.605 C 
ATOM     14  O6  <0> A   1     -24.016  -3.601  51.395  0.00  0.00    -0.514 OA
ATOM     15  N3  <0> A   1     -25.804  -3.000  50.222  0.00  0.00    -0.718 N 
ATOM     16  H22 <0> A   1     -26.606  -3.264  49.745  0.00  0.00    +0.408 HD
BRANCH  15  17
ATOM     17  C20 <0> A   1     -25.445  -1.583  50.319  0.00  0.00    +0.273 C 
BRANCH  17  18
ATOM     18  C21 <0> A   1     -26.565  -0.730  49.719  0.00  0.00    +0.070 C 
BRANCH  18  19
ATOM     19  C22 <0> A   1     -26.686   0.558  50.493  0.00  0.00    -0.083 A 
ATOM     20  C23 <0> A   1     -27.887   1.241  50.514  0.00  0.00    +0.009 A 
ATOM     21  C24 <0> A   1     -27.998   2.422  51.223  0.00  0.00    +0.004 A 
ATOM     22  C25 <0> A   1     -26.908   2.919  51.914  0.00  0.00    -0.000 A 
ATOM     23  C26 <0> A   1     -25.707   2.235  51.895  0.00  0.00    +0.004 A 
ATOM     24  C27 <0> A   1     -25.598   1.051  51.188  0.00  0.00    +0.009 A 
ENDBRANCH  18  19
ENDBRANCH  17  18
ENDBRANCH  15  17
ENDBRANCH   2  13
BRANCH   1  26
ATOM     25  C1  <0> A   1     -28.817  -5.020  51.187  0.00  0.00    +0.029 C 
ATOM     26  C2  <0> A   1     -27.593  -5.272  52.069  0.00  0.00    +0.077 C 
ATOM     27  C3  <0> A   1     -27.992  -6.154  53.254  0.00  0.00    +0.021 C 
ENDBRANCH   1  26
BRANCH   5  28
ATOM     28  O1  <0> A   1     -27.413  -8.217  51.314  0.00  0.00    -0.282 OA
BRANCH  28  29
ATOM     29  C7  <0> A   1     -28.451  -8.502  50.375  0.00  0.00    +0.155 C 
BRANCH  29  30
ATOM     30  C8  <0> A   1     -29.317  -9.648  50.904  0.00  0.00    +0.232 C 
BRANCH  30  31
ATOM     31  O5  <0> A   1     -28.489 -10.777  51.191  0.00  0.00    -0.529 OA
ATOM     32  H17 <0> A   1     -27.654 -10.551  51.623  0.00  0.00    +0.363 HD
ENDBRANCH  30  31
BRANCH  30  33
ATOM     33  C9  <0> A   1     -30.031  -9.200  52.180  0.00  0.00    -0.040 C 
BRANCH  33  34
ATOM     34  C10 <0> A   1     -31.247 -10.095  52.426  0.00  0.00    +0.237 C 
BRANCH  34  35
ATOM     35  O4  <0> A   1     -31.522 -10.858  51.249  0.00  0.00    -0.526 OA
ATOM     36  H16 <0> A   1     -30.901 -10.702  50.525  0.00  0.00    +0.350 HD
ENDBRANCH  34  35
BRANCH  34  37
ATOM     37  C11 <0> A   1     -30.955 -11.044  53.590  0.00  0.00    -0.101 C 
BRANCH  37  38
ATOM     38  C12 <0> A   1     -30.923 -12.463  53.085  0.00  0.00    +0.491 C 
ATOM     39  O2  <0> A   1     -31.860 -13.212  53.311  0.00  0.00    -0.680 OA
ATOM     40  O3  <0> A   1     -29.963 -12.864  52.451  0.00  0.00    -0.712 OA
ENDBRANCH  37  38
ENDBRANCH  34  37
ENDBRANCH  33  34
ENDBRANCH  30  33
ENDBRANCH  29  30
ENDBRANCH  28  29
ENDBRANCH   5  28
TORSDOF 15
ENDMDL
MODEL 5
REMARK VINA RESULT:      -7.9     15.508     21.069
REMARK  Name = CHEMBL250180
REMARK  17 active torsions:
REMARK  status: ('A' for Active; 'I' for Inactive)
REMARK    1  A    between atoms: C1_1  and  C2_2
REMARK    2  A    between atoms: C2_2  and  C3_3
REMARK    3  A    between atoms: C2_2  and  C4_4
REMARK    4  A    between atoms: C5_5  and  C19_29
REMARK    5  A    between atoms: N2_7  and  C13_22
REMARK    6  A    between atoms: C6_8  and  O1_9
REMARK    7  A    between atoms: O1_9  and  C7_10
REMARK    8  A    between atoms: C7_10  and  C8_11
REMARK    9  A    between atoms: C8_11  and  C9_13
REMARK   10  A    between atoms: C8_11  and  O5_21
REMARK   11  A    between atoms: C9_13  and  C10_14
REMARK   12  A    between atoms: C10_14  and  C11_16
REMARK   13  A    between atoms: C10_14  and  O4_20
REMARK   14  A    between atoms: C11_16  and  C12_17
REMARK   15  A    between atoms: N3_31  and  C20_32
REMARK   16  A    between atoms: C20_32  and  C21_33
REMARK   17  A    between atoms: C21_33  and  C22_34
REMARK                            x       y       z     vdW  Elec       q    Type
REMARK                         _______ _______ _______ _____ _____    ______ ____
ROOT
ATOM      1  C4  <0> A   1     -26.483  -5.370  51.230  0.00  0.00    -0.161 C 
ATOM      2  C5  <0> A   1     -25.272  -4.829  50.748  0.00  0.00    +0.044 C 
ATOM      3  N1  <0> A   1     -24.553  -5.815  50.247  0.00  0.00    -0.238 NA
ATOM      4  N2  <0> A   1     -25.279  -7.004  50.392  0.00  0.00    -0.318 N 
ATOM      5  C6  <0> A   1     -26.459  -6.706  51.003  0.00  0.00    +0.260 C 
ENDROOT
BRANCH   4   6
ATOM      6  C13 <0> A   1     -24.862  -8.279  49.986  0.00  0.00    +0.126 A 
ATOM      7  C14 <0> A   1     -24.269  -9.140  50.899  0.00  0.00    +0.064 A 
ATOM      8  C15 <0> A   1     -23.858 -10.395  50.497  0.00  0.00    +0.005 A 
ATOM      9  C16 <0> A   1     -24.035 -10.795  49.182  0.00  0.00    +0.106 A 
ATOM     10  C17 <0> A   1     -24.626  -9.936  48.269  0.00  0.00    +0.020 A 
ATOM     11  C18 <0> A   1     -25.044  -8.683  48.670  0.00  0.00    +0.073 A 
ATOM     12  F1  <0> A   1     -23.632 -12.024  48.790  0.00  0.00    -0.133 F 
ENDBRANCH   4   6
BRANCH   2  13
ATOM     13  C19 <0> A   1     -24.877  -3.406  50.797  0.00  0.00    +0.605 C 
ATOM     14  O6  <0> A   1     -23.971  -3.052  51.527  0.00  0.00    -0.514 OA
ATOM     15  N3  <0> A   1     -25.521  -2.502  50.035  0.00  0.00    -0.718 N 
ATOM     16  H22 <0> A   1     -26.244  -2.784  49.453  0.00  0.00    +0.408 HD
BRANCH  15  17
ATOM     17  C20 <0> A   1     -25.130  -1.091  50.083  0.00  0.00    +0.273 C 
BRANCH  17  18
ATOM     18  C21 <0> A   1     -26.382  -0.217  50.182  0.00  0.00    +0.070 C 
BRANCH  18  19
ATOM     19  C22 <0> A   1     -27.142  -0.566  51.435  0.00  0.00    -0.083 A 
ATOM     20  C23 <0> A   1     -28.507  -0.778  51.379  0.00  0.00    +0.009 A 
ATOM     21  C24 <0> A   1     -29.204  -1.097  52.529  0.00  0.00    +0.004 A 
ATOM     22  C25 <0> A   1     -28.536  -1.207  53.735  0.00  0.00    -0.000 A 
ATOM     23  C26 <0> A   1     -27.172  -0.996  53.791  0.00  0.00    +0.004 A 
ATOM     24  C27 <0> A   1     -26.474  -0.680  52.639  0.00  0.00    +0.009 A 
ENDBRANCH  18  19
ENDBRANCH  17  18
ENDBRANCH  15  17
ENDBRANCH   2  13
BRANCH   1  26
ATOM     25  C1  <0> A   1     -28.711  -4.346  50.862  0.00  0.00    +0.029 C 
ATOM     26  C2  <0> A   1     -27.601  -4.600  51.884  0.00  0.00    +0.077 C 
ATOM     27  C3  <0> A   1     -28.161  -5.411  53.054  0.00  0.00    +0.021 C 
ENDBRANCH   1  26
BRANCH   5  28
ATOM     28  O1  <0> A   1     -27.438  -7.590  51.325  0.00  0.00    -0.282 OA
BRANCH  28  29
ATOM     29  C7  <0> A   1     -28.351  -7.953  50.288  0.00  0.00    +0.155 C 
BRANCH  29  30
ATOM     30  C8  <0> A   1     -28.849  -9.381  50.524  0.00  0.00    +0.232 C 
BRANCH  30  31
ATOM     31  O5  <0> A   1     -27.730 -10.249  50.718  0.00  0.00    -0.529 OA
ATOM     32  H17 <0> A   1     -26.873  -9.807  50.650  0.00  0.00    +0.363 HD
ENDBRANCH  30  31
BRANCH  30  33
ATOM     33  C9  <0> A   1     -29.740  -9.411  51.767  0.00  0.00    -0.040 C 
BRANCH  33  34
ATOM     34  C10 <0> A   1     -30.686 -10.610  51.688  0.00  0.00    +0.237 C 
BRANCH  34  35
ATOM     35  O4  <0> A   1     -30.475 -11.302  50.456  0.00  0.00    -0.526 OA
ATOM     36  H16 <0> A   1     -30.314 -10.721  49.700  0.00  0.00    +0.350 HD
ENDBRANCH  34  35
BRANCH  34  37
ATOM     37  C11 <0> A   1     -30.410 -11.557  52.857  0.00  0.00    -0.101 C 
BRANCH  37  38
ATOM     38  C12 <0> A   1     -29.691 -12.781  52.353  0.00  0.00    +0.491 C 
ATOM     39  O2  <0> A   1     -30.312 -13.811  52.148  0.00  0.00    -0.680 OA
ATOM     40  O3  <0> A   1     -28.490 -12.743  52.150  0.00  0.00    -0.712 OA
ENDBRANCH  37  38
ENDBRANCH  34  37
ENDBRANCH  33  34
ENDBRANCH  30  33
ENDBRANCH  29  30
ENDBRANCH  28  29
ENDBRANCH   5  28
TORSDOF 15
ENDMDL
MODEL 6
REMARK VINA RESULT:      -7.8     25.633     27.795
REMARK  Name = CHEMBL250180
REMARK  17 active torsions:
REMARK  status: ('A' for Active; 'I' for Inactive)
REMARK    1  A    between atoms: C1_1  and  C2_2
REMARK    2  A    between atoms: C2_2  and  C3_3
REMARK    3  A    between atoms: C2_2  and  C4_4
REMARK    4  A    between atoms: C5_5  and  C19_29
REMARK    5  A    between atoms: N2_7  and  C13_22
REMARK    6  A    between atoms: C6_8  and  O1_9
REMARK    7  A    between atoms: O1_9  and  C7_10
REMARK    8  A    between atoms: C7_10  and  C8_11
REMARK    9  A    between atoms: C8_11  and  C9_13
REMARK   10  A    between atoms: C8_11  and  O5_21
REMARK   11  A    between atoms: C9_13  and  C10_14
REMARK   12  A    between atoms: C10_14  and  C11_16
REMARK   13  A    between atoms: C10_14  and  O4_20
REMARK   14  A    between atoms: C11_16  and  C12_17
REMARK   15  A    between atoms: N3_31  and  C20_32
REMARK   16  A    between atoms: C20_32  and  C21_33
REMARK   17  A    between atoms: C21_33  and  C22_34
REMARK                            x       y       z     vdW  Elec       q    Type
REMARK                         _______ _______ _______ _____ _____    ______ ____
ROOT
ATOM      1  C4  <0> A   1       4.386  22.229  34.056  0.00  0.00    -0.161 C 
ATOM      2  C5  <0> A   1       5.351  21.274  33.670  0.00  0.00    +0.044 C 
ATOM      3  N1  <0> A   1       6.140  21.048  34.703  0.00  0.00    -0.238 NA
ATOM      4  N2  <0> A   1       5.705  21.846  35.769  0.00  0.00    -0.318 N 
ATOM      5  C6  <0> A   1       4.630  22.566  35.345  0.00  0.00    +0.260 C 
ENDROOT
BRANCH   4   6
ATOM      6  C13 <0> A   1       6.280  21.900  37.046  0.00  0.00    +0.126 A 
ATOM      7  C14 <0> A   1       6.856  20.762  37.597  0.00  0.00    +0.064 A 
ATOM      8  C15 <0> A   1       7.421  20.817  38.855  0.00  0.00    +0.005 A 
ATOM      9  C16 <0> A   1       7.413  22.004  39.569  0.00  0.00    +0.106 A 
ATOM     10  C17 <0> A   1       6.839  23.140  39.021  0.00  0.00    +0.020 A 
ATOM     11  C18 <0> A   1       6.278  23.090  37.760  0.00  0.00    +0.073 A 
ATOM     12  F1  <0> A   1       7.967  22.056  40.801  0.00  0.00    -0.133 F 
ENDBRANCH   4   6
BRANCH   2  13
ATOM     13  C19 <0> A   1       5.458  20.637  32.342  0.00  0.00    +0.605 C 
ATOM     14  O6  <0> A   1       5.916  21.261  31.404  0.00  0.00    -0.514 OA
ATOM     15  N3  <0> A   1       5.049  19.365  32.169  0.00  0.00    -0.718 N 
ATOM     16  H22 <0> A   1       4.684  18.867  32.917  0.00  0.00    +0.408 HD
BRANCH  15  17
ATOM     17  C20 <0> A   1       5.155  18.733  30.852  0.00  0.00    +0.273 C 
BRANCH  17  18
ATOM     18  C21 <0> A   1       4.473  17.364  30.886  0.00  0.00    +0.070 C 
BRANCH  18  19
ATOM     19  C22 <0> A   1       4.760  16.627  29.603  0.00  0.00    -0.083 A 
ATOM     20  C23 <0> A   1       3.814  16.601  28.595  0.00  0.00    +0.009 A 
ATOM     21  C24 <0> A   1       4.077  15.925  27.418  0.00  0.00    +0.004 A 
ATOM     22  C25 <0> A   1       5.287  15.277  27.248  0.00  0.00    -0.000 A 
ATOM     23  C26 <0> A   1       6.233  15.304  28.255  0.00  0.00    +0.004 A 
ATOM     24  C27 <0> A   1       5.971  15.984  29.431  0.00  0.00    +0.009 A 
ENDBRANCH  18  19
ENDBRANCH  17  18
ENDBRANCH  15  17
ENDBRANCH   2  13
BRANCH   1  26
ATOM     25  C1  <0> A   1       3.881  23.735  32.152  0.00  0.00    +0.029 C 
ATOM     26  C2  <0> A   1       3.285  22.779  33.186  0.00  0.00    +0.077 C 
ATOM     27  C3  <0> A   1       2.579  21.627  32.468  0.00  0.00    +0.021 C 
ENDBRANCH   1  26
BRANCH   5  28
ATOM     28  O1  <0> A   1       3.925  23.461  36.085  0.00  0.00    -0.282 OA
BRANCH  28  29
ATOM     29  C7  <0> A   1       2.867  22.944  36.893  0.00  0.00    +0.155 C 
BRANCH  29  30
ATOM     30  C8  <0> A   1       1.520  23.297  36.256  0.00  0.00    +0.232 C 
BRANCH  30  31
ATOM     31  O5  <0> A   1       0.461  22.844  37.102  0.00  0.00    -0.529 OA
ATOM     32  H17 <0> A   1       0.702  22.097  37.668  0.00  0.00    +0.363 HD
ENDBRANCH  30  31
BRANCH  30  33
ATOM     33  C9  <0> A   1       1.421  24.813  36.081  0.00  0.00    -0.040 C 
BRANCH  33  34
ATOM     34  C10 <0> A   1       0.080  25.165  35.433  0.00  0.00    +0.237 C 
BRANCH  34  35
ATOM     35  O4  <0> A   1      -0.229  26.536  35.692  0.00  0.00    -0.526 OA
ATOM     36  H16 <0> A   1      -1.006  26.666  36.251  0.00  0.00    +0.350 HD
ENDBRANCH  34  35
BRANCH  34  37
ATOM     37  C11 <0> A   1       0.168  24.940  33.922  0.00  0.00    -0.101 C 
BRANCH  37  38
ATOM     38  C12 <0> A   1       0.157  26.270  33.215  0.00  0.00    +0.491 C 
ATOM     39  O2  <0> A   1       1.204  26.864  33.018  0.00  0.00    -0.680 OA
ATOM     40  O3  <0> A   1      -0.897  26.751  32.837  0.00  0.00    -0.712 OA
ENDBRANCH  37  38
ENDBRANCH  34  37
ENDBRANCH  33  34
ENDBRANCH  30  33
ENDBRANCH  29  30
ENDBRANCH  28  29
ENDBRANCH   5  28
TORSDOF 15
ENDMDL
MODEL 7
REMARK VINA RESULT:      -7.8     14.266     17.589
REMARK  Name = CHEMBL250180
REMARK  17 active torsions:
REMARK  status: ('A' for Active; 'I' for Inactive)
REMARK    1  A    between atoms: C1_1  and  C2_2
REMARK    2  A    between atoms: C2_2  and  C3_3
REMARK    3  A    between atoms: C2_2  and  C4_4
REMARK    4  A    between atoms: C5_5  and  C19_29
REMARK    5  A    between atoms: N2_7  and  C13_22
REMARK    6  A    between atoms: C6_8  and  O1_9
REMARK    7  A    between atoms: O1_9  and  C7_10
REMARK    8  A    between atoms: C7_10  and  C8_11
REMARK    9  A    between atoms: C8_11  and  C9_13
REMARK   10  A    between atoms: C8_11  and  O5_21
REMARK   11  A    between atoms: C9_13  and  C10_14
REMARK   12  A    between atoms: C10_14  and  C11_16
REMARK   13  A    between atoms: C10_14  and  O4_20
REMARK   14  A    between atoms: C11_16  and  C12_17
REMARK   15  A    between atoms: N3_31  and  C20_32
REMARK   16  A    between atoms: C20_32  and  C21_33
REMARK   17  A    between atoms: C21_33  and  C22_34
REMARK                            x       y       z     vdW  Elec       q    Type
REMARK                         _______ _______ _______ _____ _____    ______ ____
ROOT
ATOM      1  C4  <0> A   1     -26.225  -4.712  51.449  0.00  0.00    -0.161 C 
ATOM      2  C5  <0> A   1     -24.873  -5.012  51.180  0.00  0.00    +0.044 C 
ATOM      3  N1  <0> A   1     -24.185  -3.887  51.227  0.00  0.00    -0.238 NA
ATOM      4  N2  <0> A   1     -25.072  -2.845  51.527  0.00  0.00    -0.318 N 
ATOM      5  C6  <0> A   1     -26.320  -3.376  51.653  0.00  0.00    +0.260 C 
ENDROOT
BRANCH   4   6
ATOM      6  C13 <0> A   1     -24.735  -1.492  51.666  0.00  0.00    +0.126 A 
ATOM      7  C14 <0> A   1     -24.823  -0.878  52.908  0.00  0.00    +0.064 A 
ATOM      8  C15 <0> A   1     -24.491   0.456  53.043  0.00  0.00    +0.005 A 
ATOM      9  C16 <0> A   1     -24.073   1.181  51.939  0.00  0.00    +0.106 A 
ATOM     10  C17 <0> A   1     -23.986   0.571  50.699  0.00  0.00    +0.020 A 
ATOM     11  C18 <0> A   1     -24.311  -0.765  50.562  0.00  0.00    +0.073 A 
ATOM     12  F1  <0> A   1     -23.749   2.487  52.072  0.00  0.00    -0.133 F 
ENDBRANCH   4   6
BRANCH   2  13
ATOM     13  C19 <0> A   1     -24.322  -6.353  50.894  0.00  0.00    +0.605 C 
ATOM     14  O6  <0> A   1     -23.862  -7.026  51.797  0.00  0.00    -0.514 OA
ATOM     15  N3  <0> A   1     -24.329  -6.830  49.634  0.00  0.00    -0.718 N 
ATOM     16  H22 <0> A   1     -24.695  -6.293  48.914  0.00  0.00    +0.408 HD
BRANCH  15  17
ATOM     17  C20 <0> A   1     -23.783  -8.159  49.350  0.00  0.00    +0.273 C 
BRANCH  17  18
ATOM     18  C21 <0> A   1     -24.894  -9.065  48.816  0.00  0.00    +0.070 C 
BRANCH  18  19
ATOM     19  C22 <0> A   1     -24.781 -10.427  49.451  0.00  0.00    -0.083 A 
ATOM     20  C23 <0> A   1     -25.073 -10.591  50.792  0.00  0.00    +0.009 A 
ATOM     21  C24 <0> A   1     -24.970 -11.840  51.374  0.00  0.00    +0.004 A 
ATOM     22  C25 <0> A   1     -24.575 -12.927  50.614  0.00  0.00    -0.000 A 
ATOM     23  C26 <0> A   1     -24.284 -12.763  49.273  0.00  0.00    +0.004 A 
ATOM     24  C27 <0> A   1     -24.392 -11.514  48.690  0.00  0.00    +0.009 A 
ENDBRANCH  18  19
ENDBRANCH  17  18
ENDBRANCH  15  17
ENDBRANCH   2  13
BRANCH   1  26
ATOM     25  C1  <0> A   1     -28.218  -5.435  52.734  0.00  0.00    +0.029 C 
ATOM     26  C2  <0> A   1     -27.362  -5.701  51.496  0.00  0.00    +0.077 C 
ATOM     27  C3  <0> A   1     -28.221  -5.548  50.239  0.00  0.00    +0.021 C 
ENDBRANCH   1  26
BRANCH   5  28
ATOM     28  O1  <0> A   1     -27.456  -2.688  51.936  0.00  0.00    -0.282 OA
BRANCH  28  29
ATOM     29  C7  <0> A   1     -28.073  -1.982  50.858  0.00  0.00    +0.155 C 
BRANCH  29  30
ATOM     30  C8  <0> A   1     -28.484  -0.586  51.332  0.00  0.00    +0.232 C 
BRANCH  30  31
ATOM     31  O5  <0> A   1     -28.234  -0.467  52.735  0.00  0.00    -0.529 OA
ATOM     32  H17 <0> A   1     -27.751  -1.215  53.112  0.00  0.00    +0.363 HD
ENDBRANCH  30  31
BRANCH  30  33
ATOM     33  C9  <0> A   1     -27.673   0.468  50.578  0.00  0.00    -0.040 C 
BRANCH  33  34
ATOM     34  C10 <0> A   1     -28.402   1.812  50.637  0.00  0.00    +0.237 C 
BRANCH  34  35
ATOM     35  O4  <0> A   1     -29.690   1.629  51.230  0.00  0.00    -0.526 OA
ATOM     36  H16 <0> A   1     -30.403   2.097  50.775  0.00  0.00    +0.350 HD
ENDBRANCH  34  35
BRANCH  34  37
ATOM     37  C11 <0> A   1     -27.590   2.798  51.478  0.00  0.00    -0.101 C 
BRANCH  37  38
ATOM     38  C12 <0> A   1     -28.350   3.131  52.735  0.00  0.00    +0.491 C 
ATOM     39  O2  <0> A   1     -29.054   4.127  52.777  0.00  0.00    -0.680 OA
ATOM     40  O3  <0> A   1     -28.264   2.406  53.711  0.00  0.00    -0.712 OA
ENDBRANCH  37  38
ENDBRANCH  34  37
ENDBRANCH  33  34
ENDBRANCH  30  33
ENDBRANCH  29  30
ENDBRANCH  28  29
ENDBRANCH   5  28
TORSDOF 15
ENDMDL
MODEL 8
REMARK VINA RESULT:      -7.8     14.289     17.633
REMARK  Name = CHEMBL250180
REMARK  17 active torsions:
REMARK  status: ('A' for Active; 'I' for Inactive)
REMARK    1  A    between atoms: C1_1  and  C2_2
REMARK    2  A    between atoms: C2_2  and  C3_3
REMARK    3  A    between atoms: C2_2  and  C4_4
REMARK    4  A    between atoms: C5_5  and  C19_29
REMARK    5  A    between atoms: N2_7  and  C13_22
REMARK    6  A    between atoms: C6_8  and  O1_9
REMARK    7  A    between atoms: O1_9  and  C7_10
REMARK    8  A    between atoms: C7_10  and  C8_11
REMARK    9  A    between atoms: C8_11  and  C9_13
REMARK   10  A    between atoms: C8_11  and  O5_21
REMARK   11  A    between atoms: C9_13  and  C10_14
REMARK   12  A    between atoms: C10_14  and  C11_16
REMARK   13  A    between atoms: C10_14  and  O4_20
REMARK   14  A    between atoms: C11_16  and  C12_17
REMARK   15  A    between atoms: N3_31  and  C20_32
REMARK   16  A    between atoms: C20_32  and  C21_33
REMARK   17  A    between atoms: C21_33  and  C22_34
REMARK                            x       y       z     vdW  Elec       q    Type
REMARK                         _______ _______ _______ _____ _____    ______ ____
ROOT
ATOM      1  C4  <0> A   1     -26.221  -4.789  51.580  0.00  0.00    -0.161 C 
ATOM      2  C5  <0> A   1     -24.882  -5.068  51.234  0.00  0.00    +0.044 C 
ATOM      3  N1  <0> A   1     -24.213  -3.931  51.231  0.00  0.00    -0.238 NA
ATOM      4  N2  <0> A   1     -25.100  -2.901  51.573  0.00  0.00    -0.318 N 
ATOM      5  C6  <0> A   1     -26.328  -3.453  51.777  0.00  0.00    +0.260 C 
ENDROOT
BRANCH   4   6
ATOM      6  C13 <0> A   1     -24.780  -1.541  51.679  0.00  0.00    +0.126 A 
ATOM      7  C14 <0> A   1     -24.386  -0.829  50.554  0.00  0.00    +0.064 A 
ATOM      8  C15 <0> A   1     -24.071   0.511  50.661  0.00  0.00    +0.005 A 
ATOM      9  C16 <0> A   1     -24.146   1.145  51.891  0.00  0.00    +0.106 A 
ATOM     10  C17 <0> A   1     -24.539   0.436  53.015  0.00  0.00    +0.020 A 
ATOM     11  C18 <0> A   1     -24.861  -0.903  52.910  0.00  0.00    +0.073 A 
ATOM     12  F1  <0> A   1     -23.838   2.456  51.994  0.00  0.00    -0.133 F 
ENDBRANCH   4   6
BRANCH   2  13
ATOM     13  C19 <0> A   1     -24.325  -6.402  50.928  0.00  0.00    +0.605 C 
ATOM     14  O6  <0> A   1     -23.879  -7.094  51.823  0.00  0.00    -0.514 OA
ATOM     15  N3  <0> A   1     -24.309  -6.850  49.658  0.00  0.00    -0.718 N 
ATOM     16  H22 <0> A   1     -24.664  -6.298  48.943  0.00  0.00    +0.408 HD
BRANCH  15  17
ATOM     17  C20 <0> A   1     -23.757  -8.172  49.354  0.00  0.00    +0.273 C 
BRANCH  17  18
ATOM     18  C21 <0> A   1     -24.868  -9.081  48.824  0.00  0.00    +0.070 C 
BRANCH  18  19
ATOM     19  C22 <0> A   1     -24.763 -10.436  49.476  0.00  0.00    -0.083 A 
ATOM     20  C23 <0> A   1     -24.357 -11.530  48.735  0.00  0.00    +0.009 A 
ATOM     21  C24 <0> A   1     -24.261 -12.772  49.332  0.00  0.00    +0.004 A 
ATOM     22  C25 <0> A   1     -24.569 -12.921  50.672  0.00  0.00    -0.000 A 
ATOM     23  C26 <0> A   1     -24.974 -11.827  51.413  0.00  0.00    +0.004 A 
ATOM     24  C27 <0> A   1     -25.066 -10.584  50.816  0.00  0.00    +0.009 A 
ENDBRANCH  18  19
ENDBRANCH  17  18
ENDBRANCH  15  17
ENDBRANCH   2  13
BRANCH   1  26
ATOM     25  C1  <0> A   1     -28.176  -5.479  52.939  0.00  0.00    +0.029 C 
ATOM     26  C2  <0> A   1     -27.335  -5.797  51.703  0.00  0.00    +0.077 C 
ATOM     27  C3  <0> A   1     -28.218  -5.735  50.454  0.00  0.00    +0.021 C 
ENDBRANCH   1  26
BRANCH   5  28
ATOM     28  O1  <0> A   1     -27.458  -2.783  52.121  0.00  0.00    -0.282 OA
BRANCH  28  29
ATOM     29  C7  <0> A   1     -28.193  -2.164  51.064  0.00  0.00    +0.155 C 
BRANCH  29  30
ATOM     30  C8  <0> A   1     -28.569  -0.738  51.470  0.00  0.00    +0.232 C 
BRANCH  30  31
ATOM     31  O5  <0> A   1     -28.298  -0.552  52.861  0.00  0.00    -0.529 OA
ATOM     32  H17 <0> A   1     -27.422  -0.857  53.135  0.00  0.00    +0.363 HD
ENDBRANCH  30  31
BRANCH  30  33
ATOM     33  C9  <0> A   1     -27.746   0.259  50.653  0.00  0.00    -0.040 C 
BRANCH  33  34
ATOM     34  C10 <0> A   1     -28.436   1.625  50.669  0.00  0.00    +0.237 C 
BRANCH  34  35
ATOM     35  O4  <0> A   1     -29.703   1.510  51.320  0.00  0.00    -0.526 OA
ATOM     36  H16 <0> A   1     -30.284   0.840  50.936  0.00  0.00    +0.350 HD
ENDBRANCH  34  35
BRANCH  34  37
ATOM     37  C11 <0> A   1     -27.564   2.628  51.426  0.00  0.00    -0.101 C 
BRANCH  37  38
ATOM     38  C12 <0> A   1     -28.266   3.050  52.691  0.00  0.00    +0.491 C 
ATOM     39  O2  <0> A   1     -28.192   2.355  53.690  0.00  0.00    -0.680 OA
ATOM     40  O3  <0> A   1     -28.908   4.086  52.716  0.00  0.00    -0.712 OA
ENDBRANCH  37  38
ENDBRANCH  34  37
ENDBRANCH  33  34
ENDBRANCH  30  33
ENDBRANCH  29  30
ENDBRANCH  28  29
ENDBRANCH   5  28
TORSDOF 15
ENDMDL
MODEL 9
REMARK VINA RESULT:      -7.8     15.682     20.409
REMARK  Name = CHEMBL250180
REMARK  17 active torsions:
REMARK  status: ('A' for Active; 'I' for Inactive)
REMARK    1  A    between atoms: C1_1  and  C2_2
REMARK    2  A    between atoms: C2_2  and  C3_3
REMARK    3  A    between atoms: C2_2  and  C4_4
REMARK    4  A    between atoms: C5_5  and  C19_29
REMARK    5  A    between atoms: N2_7  and  C13_22
REMARK    6  A    between atoms: C6_8  and  O1_9
REMARK    7  A    between atoms: O1_9  and  C7_10
REMARK    8  A    between atoms: C7_10  and  C8_11
REMARK    9  A    between atoms: C8_11  and  C9_13
REMARK   10  A    between atoms: C8_11  and  O5_21
REMARK   11  A    between atoms: C9_13  and  C10_14
REMARK   12  A    between atoms: C10_14  and  C11_16
REMARK   13  A    between atoms: C10_14  and  O4_20
REMARK   14  A    between atoms: C11_16  and  C12_17
REMARK   15  A    between atoms: N3_31  and  C20_32
REMARK   16  A    between atoms: C20_32  and  C21_33
REMARK   17  A    between atoms: C21_33  and  C22_34
REMARK                            x       y       z     vdW  Elec       q    Type
REMARK                         _______ _______ _______ _____ _____    ______ ____
ROOT
ATOM      1  C4  <0> A   1     -27.682  -6.908  51.009  0.00  0.00    -0.161 C 
ATOM      2  C5  <0> A   1     -28.113  -6.251  52.181  0.00  0.00    +0.044 C 
ATOM      3  N1  <0> A   1     -27.385  -5.162  52.333  0.00  0.00    -0.238 NA
ATOM      4  N2  <0> A   1     -26.475  -5.092  51.270  0.00  0.00    -0.318 N 
ATOM      5  C6  <0> A   1     -26.673  -6.178  50.473  0.00  0.00    +0.260 C 
ENDROOT
BRANCH   4   6
ATOM      6  C13 <0> A   1     -25.523  -4.084  51.066  0.00  0.00    +0.126 A 
ATOM      7  C14 <0> A   1     -24.193  -4.308  51.394  0.00  0.00    +0.064 A 
ATOM      8  C15 <0> A   1     -23.256  -3.313  51.193  0.00  0.00    +0.005 A 
ATOM      9  C16 <0> A   1     -23.644  -2.092  50.666  0.00  0.00    +0.106 A 
ATOM     10  C17 <0> A   1     -24.971  -1.867  50.339  0.00  0.00    +0.020 A 
ATOM     11  C18 <0> A   1     -25.909  -2.862  50.532  0.00  0.00    +0.073 A 
ATOM     12  F1  <0> A   1     -22.726  -1.120  50.470  0.00  0.00    -0.133 F 
ENDBRANCH   4   6
BRANCH   2  13
ATOM     13  C19 <0> A   1     -29.193  -6.705  53.082  0.00  0.00    +0.605 C 
ATOM     14  O6  <0> A   1     -28.921  -7.148  54.181  0.00  0.00    -0.514 OA
ATOM     15  N3  <0> A   1     -30.478  -6.628  52.685  0.00  0.00    -0.718 N 
ATOM     16  H22 <0> A   1     -30.695  -6.275  51.808  0.00  0.00    +0.408 HD
BRANCH  15  17
ATOM     17  C20 <0> A   1     -31.549  -7.078  53.578  0.00  0.00    +0.273 C 
BRANCH  17  18
ATOM     18  C21 <0> A   1     -32.410  -8.118  52.859  0.00  0.00    +0.070 C 
BRANCH  18  19
ATOM     19  C22 <0> A   1     -31.596  -9.361  52.608  0.00  0.00    -0.083 A 
ATOM     20  C23 <0> A   1     -31.442  -9.839  51.321  0.00  0.00    +0.009 A 
ATOM     21  C24 <0> A   1     -30.695 -10.978  51.091  0.00  0.00    +0.004 A 
ATOM     22  C25 <0> A   1     -30.099 -11.640  52.149  0.00  0.00    -0.000 A 
ATOM     23  C26 <0> A   1     -30.251 -11.161  53.437  0.00  0.00    +0.004 A 
ATOM     24  C27 <0> A   1     -30.995 -10.019  53.665  0.00  0.00    +0.009 A 
ENDBRANCH  18  19
ENDBRANCH  17  18
ENDBRANCH  15  17
ENDBRANCH   2  13
BRANCH   1  26
ATOM     25  C1  <0> A   1     -28.380  -8.076  48.937  0.00  0.00    +0.029 C 
ATOM     26  C2  <0> A   1     -28.239  -8.194  50.455  0.00  0.00    +0.077 C 
ATOM     27  C3  <0> A   1     -27.291  -9.347  50.792  0.00  0.00    +0.021 C 
ENDBRANCH   1  26
BRANCH   5  28
ATOM     28  O1  <0> A   1     -25.985  -6.475  49.341  0.00  0.00    -0.282 OA
BRANCH  28  29
ATOM     29  C7  <0> A   1     -24.757  -7.188  49.497  0.00  0.00    +0.155 C 
BRANCH  29  30
ATOM     30  C8  <0> A   1     -24.683  -8.309  48.457  0.00  0.00    +0.232 C 
BRANCH  30  31
ATOM     31  O5  <0> A   1     -23.911  -7.869  47.337  0.00  0.00    -0.529 OA
ATOM     32  H17 <0> A   1     -23.361  -8.560  46.944  0.00  0.00    +0.363 HD
ENDBRANCH  30  31
BRANCH  30  33
ATOM     33  C9  <0> A   1     -24.022  -9.540  49.080  0.00  0.00    -0.040 C 
BRANCH  33  34
ATOM     34  C10 <0> A   1     -24.630 -10.807  48.477  0.00  0.00    +0.237 C 
BRANCH  34  35
ATOM     35  O4  <0> A   1     -24.623 -10.706  47.051  0.00  0.00    -0.526 OA
ATOM     36  H16 <0> A   1     -24.132  -9.945  46.712  0.00  0.00    +0.350 HD
ENDBRANCH  34  35
BRANCH  34  37
ATOM     37  C11 <0> A   1     -23.806 -12.023  48.904  0.00  0.00    -0.101 C 
BRANCH  37  38
ATOM     38  C12 <0> A   1     -24.507 -12.733  50.033  0.00  0.00    +0.491 C 
ATOM     39  O2  <0> A   1     -25.407 -13.521  49.792  0.00  0.00    -0.680 OA
ATOM     40  O3  <0> A   1     -24.175 -12.523  51.186  0.00  0.00    -0.712 OA
ENDBRANCH  37  38
ENDBRANCH  34  37
ENDBRANCH  33  34
ENDBRANCH  30  33
ENDBRANCH  29  30
ENDBRANCH  28  29
ENDBRANCH   5  28
TORSDOF 15
ENDMDL
MODEL 10
REMARK VINA RESULT:      -7.7     23.523     27.534
REMARK  Name = CHEMBL250180
REMARK  17 active torsions:
REMARK  status: ('A' for Active; 'I' for Inactive)
REMARK    1  A    between atoms: C1_1  and  C2_2
REMARK    2  A    between atoms: C2_2  and  C3_3
REMARK    3  A    between atoms: C2_2  and  C4_4
REMARK    4  A    between atoms: C5_5  and  C19_29
REMARK    5  A    between atoms: N2_7  and  C13_22
REMARK    6  A    between atoms: C6_8  and  O1_9
REMARK    7  A    between atoms: O1_9  and  C7_10
REMARK    8  A    between atoms: C7_10  and  C8_11
REMARK    9  A    between atoms: C8_11  and  C9_13
REMARK   10  A    between atoms: C8_11  and  O5_21
REMARK   11  A    between atoms: C9_13  and  C10_14
REMARK   12  A    between atoms: C10_14  and  C11_16
REMARK   13  A    between atoms: C10_14  and  O4_20
REMARK   14  A    between atoms: C11_16  and  C12_17
REMARK   15  A    between atoms: N3_31  and  C20_32
REMARK   16  A    between atoms: C20_32  and  C21_33
REMARK   17  A    between atoms: C21_33  and  C22_34
REMARK                            x       y       z     vdW  Elec       q    Type
REMARK                         _______ _______ _______ _____ _____    ______ ____
ROOT
ATOM      1  C4  <0> A   1       4.781  21.251  33.698  0.00  0.00    -0.161 C 
ATOM      2  C5  <0> A   1       4.434  20.895  32.377  0.00  0.00    +0.044 C 
ATOM      3  N1  <0> A   1       3.693  21.862  31.872  0.00  0.00    -0.238 NA
ATOM      4  N2  <0> A   1       3.547  22.857  32.849  0.00  0.00    -0.318 N 
ATOM      5  C6  <0> A   1       4.220  22.455  33.963  0.00  0.00    +0.260 C 
ENDROOT
BRANCH   4   6
ATOM      6  C13 <0> A   1       2.829  24.051  32.706  0.00  0.00    +0.126 A 
ATOM      7  C14 <0> A   1       1.690  24.273  33.469  0.00  0.00    +0.064 A 
ATOM      8  C15 <0> A   1       0.983  25.450  33.327  0.00  0.00    +0.005 A 
ATOM      9  C16 <0> A   1       1.409  26.410  32.423  0.00  0.00    +0.106 A 
ATOM     10  C17 <0> A   1       2.545  26.190  31.660  0.00  0.00    +0.020 A 
ATOM     11  C18 <0> A   1       3.257  25.016  31.805  0.00  0.00    +0.073 A 
ATOM     12  F1  <0> A   1       0.716  27.562  32.284  0.00  0.00    -0.133 F 
ENDBRANCH   4   6
BRANCH   2  13
ATOM     13  C19 <0> A   1       4.832  19.654  31.681  0.00  0.00    +0.605 C 
ATOM     14  O6  <0> A   1       5.653  19.697  30.784  0.00  0.00    -0.514 OA
ATOM     15  N3  <0> A   1       4.285  18.476  32.037  0.00  0.00    -0.718 N 
ATOM     16  H22 <0> A   1       3.629  18.442  32.751  0.00  0.00    +0.408 HD
BRANCH  15  17
ATOM     17  C20 <0> A   1       4.678  17.246  31.347  0.00  0.00    +0.273 C 
BRANCH  17  18
ATOM     18  C21 <0> A   1       3.742  17.003  30.161  0.00  0.00    +0.070 C 
BRANCH  18  19
ATOM     19  C22 <0> A   1       4.476  16.242  29.088  0.00  0.00    -0.083 A 
ATOM     20  C23 <0> A   1       5.715  15.690  29.356  0.00  0.00    +0.009 A 
ATOM     21  C24 <0> A   1       6.388  14.993  28.371  0.00  0.00    +0.004 A 
ATOM     22  C25 <0> A   1       5.823  14.846  27.117  0.00  0.00    -0.000 A 
ATOM     23  C26 <0> A   1       4.584  15.397  26.850  0.00  0.00    +0.004 A 
ATOM     24  C27 <0> A   1       3.908  16.090  27.837  0.00  0.00    +0.009 A 
ENDBRANCH  18  19
ENDBRANCH  17  18
ENDBRANCH  15  17
ENDBRANCH   2  13
BRANCH   1  26
ATOM     25  C1  <0> A   1       6.656  21.338  35.317  0.00  0.00    +0.029 C 
ATOM     26  C2  <0> A   1       5.621  20.434  34.646  0.00  0.00    +0.077 C 
ATOM     27  C3  <0> A   1       4.721  19.810  35.715  0.00  0.00    +0.021 C 
ENDBRANCH   1  26
BRANCH   5  28
ATOM     28  O1  <0> A   1       4.313  23.143  35.131  0.00  0.00    -0.282 OA
BRANCH  28  29
ATOM     29  C7  <0> A   1       3.710  22.551  36.282  0.00  0.00    +0.155 C 
BRANCH  29  30
ATOM     30  C8  <0> A   1       3.226  23.652  37.227  0.00  0.00    +0.232 C 
BRANCH  30  31
ATOM     31  O5  <0> A   1       4.132  24.756  37.175  0.00  0.00    -0.529 OA
ATOM     32  H17 <0> A   1       3.907  25.478  37.778  0.00  0.00    +0.363 HD
ENDBRANCH  30  31
BRANCH  30  33
ATOM     33  C9  <0> A   1       1.832  24.116  36.799  0.00  0.00    -0.040 C 
BRANCH  33  34
ATOM     34  C10 <0> A   1       0.873  22.924  36.810  0.00  0.00    +0.237 C 
BRANCH  34  35
ATOM     35  O4  <0> A   1       0.627  22.524  38.160  0.00  0.00    -0.526 OA
ATOM     36  H16 <0> A   1       0.918  21.625  38.363  0.00  0.00    +0.350 HD
ENDBRANCH  34  35
BRANCH  34  37
ATOM     37  C11 <0> A   1      -0.448  23.326  36.150  0.00  0.00    -0.101 C 
BRANCH  37  38
ATOM     38  C12 <0> A   1      -1.276  22.094  35.892  0.00  0.00    +0.491 C 
ATOM     39  O2  <0> A   1      -1.674  21.420  36.827  0.00  0.00    -0.680 OA
ATOM     40  O3  <0> A   1      -1.549  21.771  34.749  0.00  0.00    -0.712 OA
ENDBRANCH  37  38
ENDBRANCH  34  37
ENDBRANCH  33  34
ENDBRANCH  30  33
ENDBRANCH  29  30
ENDBRANCH  28  29
ENDBRANCH   5  28
TORSDOF 15
ENDMDL
