REMARK VINA RESULT:      -8.2     32.539     34.399
REMARK  Name = CHEMBL355889
REMARK  10 active torsions:
REMARK  status: ('A' for Active; 'I' for Inactive)
REMARK    1  A    between atoms: C1_1  and  C2_2
REMARK    2  A    between atoms: C4_5  and  O4_28
REMARK    3  A    between atoms: C6_8  and  C13_17
REMARK    4  A    between atoms: C7_10  and  C12_16
REMARK    5  A    between atoms: C13_17  and  C14_18
REMARK    6  A    between atoms: C14_18  and  C15_19
REMARK    7  A    between atoms: C17_21  and  O3_27
REMARK    8  A    between atoms: O4_28  and  C20_29
REMARK    9  A    between atoms: C20_29  and  O6_31
REMARK   10  A    between atoms: O6_31  and  C21_32
REMARK                            x       y       z     vdW  Elec       q    Type
REMARK                         _______ _______ _______ _____ _____    ______ ____
ROOT
ATOM      1  C1  <0> A   1     -32.091  18.662  31.990  0.00  0.00    +0.035 C 
ATOM      2  C2  <0> A   1     -32.552  19.858  32.826  0.00  0.00    +0.027 C 
ATOM      3  C3  <0> A   1     -31.332  20.637  33.337  0.00  0.00    +0.023 C 
ATOM      4  C4  <0> A   1     -31.829  21.835  34.143  0.00  0.00    +0.191 C 
ATOM      5  C5  <0> A   1     -32.689  21.411  35.311  0.00  0.00    +0.044 C 
ATOM      6  C6  <0> A   1     -31.903  21.394  36.623  0.00  0.00    +0.012 C 
ATOM      7  C7  <0> A   1     -32.883  21.187  37.780  0.00  0.00    +0.023 C 
ATOM      8  C8  <0> A   1     -33.797  20.027  37.529  0.00  0.00    -0.030 C 
ATOM      9  C9  <0> A   1     -34.030  19.511  36.335  0.00  0.00    -0.005 C 
ATOM     10  C10 <0> A   1     -33.352  20.076  35.145  0.00  0.00    -0.085 C 
ATOM     11  C11 <0> A   1     -33.325  19.375  34.027  0.00  0.00    -0.019 C 
ATOM     12  C12 <0> A   1     -33.723  22.454  37.955  0.00  0.00    +0.030 C 
ENDROOT
BRANCH   6  13
ATOM     13  C13 <0> A   1     -31.169  22.724  36.800  0.00  0.00    +0.060 C 
BRANCH  13  14
ATOM     14  C14 <0> A   1     -30.061  22.562  37.842  0.00  0.00    +0.044 C 
BRANCH  14  15
ATOM     15  C15 <0> A   1     -29.730  23.925  38.453  0.00  0.00    +0.196 C 
ATOM     16  C16 <0> A   1     -30.968  24.482  39.162  0.00  0.00    +0.038 C 
ATOM     17  C17 <0> A   1     -30.644  25.865  39.736  0.00  0.00    +0.182 C 
ATOM     18  C18 <0> A   1     -30.227  26.793  38.588  0.00  0.00    +0.018 C 
ATOM     19  C19 <0> A   1     -29.135  26.108  37.796  0.00  0.00    +0.496 C 
ATOM     20  O1  <0> A   1     -28.114  26.690  37.514  0.00  0.00    -0.454 OA
ATOM     21  O2  <0> A   1     -29.333  24.830  37.415  0.00  0.00    -0.367 OA
BRANCH  17  22
ATOM     22  O3  <0> A   1     -29.575  25.755  40.678  0.00  0.00    -0.562 OA
ATOM     23  H27 <0> A   1     -29.535  24.900  41.128  0.00  0.00    +0.385 HD
ENDBRANCH  17  22
ENDBRANCH  14  15
ENDBRANCH  13  14
ENDBRANCH   6  13
BRANCH   4  24
ATOM     24  O4  <0> A   1     -30.704  22.564  34.637  0.00  0.00    -0.284 OA
BRANCH  24  25
ATOM     25  C20 <0> A   1     -30.223  23.548  33.857  0.00  0.00    +0.582 C 
ATOM     26  O5  <0> A   1     -30.678  24.671  33.947  0.00  0.00    -0.529 OA
BRANCH  25  27
ATOM     27  O6  <0> A   1     -29.238  23.290  32.978  0.00  0.00    -0.266 OA
BRANCH  27  28
ATOM     28  C21 <0> A   1     -27.974  23.666  33.306  0.00  0.00    +0.090 A 
ATOM     29  C22 <0> A   1     -27.587  23.720  34.637  0.00  0.00    +0.023 A 
ATOM     30  C23 <0> A   1     -26.302  24.101  34.967  0.00  0.00    +0.026 A 
ATOM     31  C24 <0> A   1     -25.399  24.428  33.972  0.00  0.00    +0.022 A 
ATOM     32  C25 <0> A   1     -25.781  24.374  32.644  0.00  0.00    +0.028 A 
ATOM     33  C26 <0> A   1     -27.065  23.989  32.308  0.00  0.00    +0.021 A 
ENDBRANCH  27  28
ENDBRANCH  25  27
ENDBRANCH  24  25
ENDBRANCH   4  24
TORSDOF 8
