REMARK VINA RESULT:      -7.9     13.641     16.746
REMARK  Name = CHEMBL253357
REMARK  15 active torsions:
REMARK  status: ('A' for Active; 'I' for Inactive)
REMARK    1  A    between atoms: C1_1  and  C2_2
REMARK    2  A    between atoms: C2_2  and  C3_3
REMARK    3  A    between atoms: C2_2  and  C4_4
REMARK    4  A    between atoms: C5_5  and  C25_30
REMARK    5  A    between atoms: N1_6  and  C19_23
REMARK    6  A    between atoms: C6_8  and  C7_9
REMARK    7  A    between atoms: C11_15  and  C13_17
REMARK    8  A    between atoms: C25_30  and  C26_31
REMARK    9  A    between atoms: C26_31  and  C27_32
REMARK   10  A    between atoms: C27_32  and  C28_34
REMARK   11  A    between atoms: C27_32  and  O5_42
REMARK   12  A    between atoms: C28_34  and  C29_35
REMARK   13  A    between atoms: C29_35  and  C30_37
REMARK   14  A    between atoms: C29_35  and  O4_41
REMARK   15  A    between atoms: C30_37  and  C31_38
REMARK                            x       y       z     vdW  Elec       q    Type
REMARK                         _______ _______ _______ _____ _____    ______ ____
ROOT
ATOM      1  C4  <0> A   1      -1.136   8.474  51.058  0.00  0.00    -0.148 C 
ATOM      2  C5  <0> A   1       0.130   8.778  51.426  0.00  0.00    +0.037 C 
ATOM      3  N1  <0> A   1       0.785   7.604  51.619  0.00  0.00    -0.241 N 
ATOM      4  N2  <0> A   1      -0.005   6.616  51.392  0.00  0.00    -0.258 NA
ATOM      5  C6  <0> A   1      -1.200   7.059  51.050  0.00  0.00    +0.011 C 
ENDROOT
BRANCH   5   6
ATOM      6  C7  <0> A   1      -2.379   6.237  50.718  0.00  0.00    +0.618 C 
ATOM      7  O1  <0> A   1      -3.229   6.026  51.562  0.00  0.00    -0.519 OA
ATOM      8  N3  <0> A   1      -2.515   5.720  49.481  0.00  0.00    -0.602 N 
ATOM      9  C8  <0> A   1      -1.442   5.866  48.488  0.00  0.00    +0.267 C 
ATOM     10  C9  <0> A   1      -2.030   6.482  47.214  0.00  0.00    +0.014 C 
ATOM     11  C10 <0> A   1      -3.214   5.635  46.742  0.00  0.00    +0.027 C 
ATOM     12  C11 <0> A   1      -4.300   5.626  47.820  0.00  0.00    +0.022 C 
ATOM     13  C12 <0> A   1      -3.735   4.995  49.102  0.00  0.00    +0.292 C 
BRANCH  12  14
ATOM     14  C13 <0> A   1      -5.478   4.818  47.340  0.00  0.00    -0.075 A 
ATOM     15  C14 <0> A   1      -6.080   3.904  48.186  0.00  0.00    +0.008 A 
ATOM     16  C15 <0> A   1      -7.160   3.163  47.746  0.00  0.00    +0.004 A 
ATOM     17  C16 <0> A   1      -7.639   3.335  46.461  0.00  0.00    -0.003 A 
ATOM     18  C17 <0> A   1      -7.037   4.248  45.615  0.00  0.00    +0.003 A 
ATOM     19  C18 <0> A   1      -5.960   4.993  46.056  0.00  0.00    +0.008 A 
ENDBRANCH  12  14
ENDBRANCH   5   6
BRANCH   3  20
ATOM     20  C19 <0> A   1       2.126   7.486  52.008  0.00  0.00    +0.121 A 
ATOM     21  C20 <0> A   1       2.442   7.111  53.307  0.00  0.00    +0.067 A 
ATOM     22  C21 <0> A   1       3.764   6.996  53.690  0.00  0.00    +0.020 A 
ATOM     23  C22 <0> A   1       4.774   7.254  52.778  0.00  0.00    +0.111 A 
ATOM     24  C23 <0> A   1       4.460   7.628  51.482  0.00  0.00    +0.008 A 
ATOM     25  C24 <0> A   1       3.140   7.738  51.095  0.00  0.00    +0.071 A 
ATOM     26  F1  <0> A   1       6.066   7.141  53.153  0.00  0.00    -0.131 F 
ENDBRANCH   3  20
BRANCH   1  28
ATOM     27  C1  <0> A   1      -2.778   9.149  49.327  0.00  0.00    +0.030 C 
ATOM     28  C2  <0> A   1      -2.248   9.438  50.733  0.00  0.00    +0.062 C 
ATOM     29  C3  <0> A   1      -3.380   9.272  51.748  0.00  0.00    +0.024 C 
ENDBRANCH   1  28
BRANCH   2  30
ATOM     30  C25 <0> A   1       0.707  10.161  51.588  0.00  0.00    +0.128 C 
BRANCH  30  31
ATOM     31  C26 <0> A   1       1.224  10.334  53.018  0.00  0.00    -0.008 C 
BRANCH  31  32
ATOM     32  C27 <0> A   1       0.061  10.701  53.941  0.00  0.00    +0.215 C 
BRANCH  32  33
ATOM     33  O5  <0> A   1       0.570  11.119  55.208  0.00  0.00    -0.540 OA
ATOM     34  H37 <0> A   1       1.462  10.797  55.399  0.00  0.00    +0.363 HD
ENDBRANCH  32  33
BRANCH  32  35
ATOM     35  C28 <0> A   1      -0.747  11.840  53.315  0.00  0.00    -0.052 C 
BRANCH  35  36
ATOM     36  C29 <0> A   1      -2.151  11.865  53.924  0.00  0.00    +0.231 C 
BRANCH  36  37
ATOM     37  O4  <0> A   1      -2.264  10.830  54.903  0.00  0.00    -0.528 OA
ATOM     38  H36 <0> A   1      -1.585  10.865  55.591  0.00  0.00    +0.350 HD
ENDBRANCH  36  37
BRANCH  36  39
ATOM     39  C30 <0> A   1      -2.397  13.223  54.585  0.00  0.00    -0.103 C 
BRANCH  39  40
ATOM     40  C31 <0> A   1      -2.319  13.074  56.082  0.00  0.00    +0.491 C 
ATOM     41  O2  <0> A   1      -1.234  12.978  56.630  0.00  0.00    -0.681 OA
ATOM     42  O3  <0> A   1      -3.341  13.050  56.747  0.00  0.00    -0.713 OA
ENDBRANCH  39  40
ENDBRANCH  36  39
ENDBRANCH  35  36
ENDBRANCH  32  35
ENDBRANCH  31  32
ENDBRANCH  30  31
ENDBRANCH   2  30
TORSDOF 13
