REMARK VINA RESULT:      -7.9      1.532      2.176
REMARK  Name = CHEMBL312626
REMARK  9 active torsions:
REMARK  status: ('A' for Active; 'I' for Inactive)
REMARK    1  A    between atoms: C1_1  and  C2_2
REMARK    2  A    between atoms: C4_5  and  O4_29
REMARK    3  A    between atoms: C6_9  and  C13_18
REMARK    4  A    between atoms: C7_11  and  C12_17
REMARK    5  A    between atoms: C13_18  and  C14_19
REMARK    6  A    between atoms: C14_19  and  C15_20
REMARK    7  A    between atoms: C17_22  and  O3_28
REMARK    8  A    between atoms: O4_29  and  C20_30
REMARK    9  A    between atoms: C20_30  and  C21_31
REMARK                            x       y       z     vdW  Elec       q    Type
REMARK                         _______ _______ _______ _____ _____    ______ ____
ROOT
ATOM      1  C1  <0> A   1     -25.169   2.916  52.261  0.00  0.00    +0.028 C 
ATOM      2  C2  <0> A   1     -24.309   1.845  51.586  0.00  0.00    +0.020 C 
ATOM      3  C3  <0> A   1     -25.189   0.663  51.159  0.00  0.00    +0.009 C 
ATOM      4  C4  <0> A   1     -24.303  -0.373  50.469  0.00  0.00    +0.153 C 
ATOM      5  C5  <0> A   1     -23.196  -0.861  51.373  0.00  0.00    +0.039 C 
ATOM      6  C6  <0> A   1     -23.535  -2.206  52.018  0.00  0.00    +0.012 C 
ATOM      7  C7  <0> A   1     -22.288  -2.742  52.723  0.00  0.00    +0.017 C 
ATOM      8  C8  <0> A   1     -21.670  -1.708  53.613  0.00  0.00    -0.033 C 
ATOM      9  C9  <0> A   1     -21.890  -0.409  53.506  0.00  0.00    -0.011 C 
ATOM     10  C10 <0> A   1     -22.829   0.086  52.477  0.00  0.00    -0.085 C 
ATOM     11  C11 <0> A   1     -23.281   1.327  52.560  0.00  0.00    -0.032 C 
ATOM     12  C12 <0> A   1     -21.264  -3.168  51.669  0.00  0.00    +0.028 C 
ENDROOT
BRANCH   6  13
ATOM     13  C13 <0> A   1     -23.983  -3.194  50.938  0.00  0.00    +0.074 C 
BRANCH  13  14
ATOM     14  C14 <0> A   1     -24.837  -4.292  51.575  0.00  0.00    +0.030 C 
BRANCH  14  15
ATOM     15  C15 <0> A   1     -24.383  -5.657  51.054  0.00  0.00    +0.198 C 
ATOM     16  C16 <0> A   1     -25.388  -6.169  50.018  0.00  0.00    +0.034 C 
ATOM     17  C17 <0> A   1     -24.952  -7.555  49.530  0.00  0.00    +0.181 C 
ATOM     18  C18 <0> A   1     -24.894  -8.509  50.731  0.00  0.00    +0.014 C 
ATOM     19  C19 <0> A   1     -24.048  -7.865  51.808  0.00  0.00    +0.497 C 
ATOM     20  O1  <0> A   1     -23.161  -8.478  52.351  0.00  0.00    -0.454 OA
ATOM     21  O2  <0> A   1     -24.312  -6.585  52.143  0.00  0.00    -0.363 OA
BRANCH  17  22
ATOM     22  O3  <0> A   1     -23.661  -7.465  48.924  0.00  0.00    -0.558 OA
ATOM     23  H27 <0> A   1     -23.685  -7.330  47.967  0.00  0.00    +0.384 HD
ENDBRANCH  17  22
ENDBRANCH  14  15
ENDBRANCH  13  14
ENDBRANCH   6  13
BRANCH   4  24
ATOM     24  O4  <0> A   1     -25.108  -1.487  50.078  0.00  0.00    -0.345 OA
BRANCH  24  25
ATOM     25  C20 <0> A   1     -26.431  -1.134  49.671  0.00  0.00    +0.206 C 
BRANCH  25  26
ATOM     26  C21 <0> A   1     -27.418  -2.097  50.276  0.00  0.00    -0.101 A 
ATOM     27  C22 <0> A   1     -28.024  -3.055  49.484  0.00  0.00    +0.070 A 
ATOM     28  C23 <0> A   1     -28.929  -3.941  50.039  0.00  0.00    -0.015 A 
ATOM     29  C24 <0> A   1     -29.228  -3.868  51.388  0.00  0.00    +0.108 A 
ATOM     30  C25 <0> A   1     -28.620  -2.909  52.181  0.00  0.00    -0.025 A 
ATOM     31  C26 <0> A   1     -27.712  -2.029  51.625  0.00  0.00    +0.059 A 
ATOM     32  F1  <0> A   1     -30.113  -4.733  51.931  0.00  0.00    -0.140 F 
ENDBRANCH  25  26
ENDBRANCH  24  25
ENDBRANCH   4  24
TORSDOF 7
