REMARK  Name = CHEMBL466326
REMARK  14 active torsions:
REMARK  status: ('A' for Active; 'I' for Inactive)
REMARK    1  A    between atoms: C1_1  and  C2_2
REMARK    2  A    between atoms: C2_2  and  C3_3
REMARK    3  A    between atoms: C2_2  and  C4_4
REMARK    4  A    between atoms: C5_5  and  C18_25
REMARK    5  A    between atoms: C6_6  and  C12_18
REMARK    6  A    between atoms: N3_10  and  C8_11
REMARK    7  A    between atoms: N6_16  and  C11_17
REMARK    8  A    between atoms: C19_26  and  C20_27
REMARK    9  A    between atoms: C20_27  and  C21_29
REMARK   10  A    between atoms: C20_27  and  O4_37
REMARK   11  A    between atoms: C21_29  and  C22_30
REMARK   12  A    between atoms: C22_30  and  C23_32
REMARK   13  A    between atoms: C22_30  and  O3_36
REMARK   14  A    between atoms: C23_32  and  C24_33
REMARK                            x       y       z     vdW  Elec       q    Type
REMARK                         _______ _______ _______ _____ _____    ______ ____
ROOT
ATOM      1  C4  <0> A   1      -1.401  -0.509   0.022  0.00  0.00    +0.238 A 
ATOM      2  C5  <0> A   1      -1.856  -1.324  -1.019  0.00  0.00    -0.181 A 
ATOM      3  C6  <0> A   1      -3.184  -1.793  -0.965  0.00  0.00    +0.268 A 
ATOM      4  N1  <0> A   1      -3.946  -1.444   0.068  0.00  0.00    -0.550 NA
ATOM      5  C7  <0> A   1      -3.469  -0.670   1.029  0.00  0.00    +0.570 A 
ATOM      6  N2  <0> A   1      -2.224  -0.215   1.014  0.00  0.00    -0.545 NA
ATOM      7  N3  <0> A   1      -4.295  -0.329   2.088  0.00  0.00    -0.517 N 
ATOM      8  C8  <0> A   1      -3.790   0.527   3.165  0.00  0.00    +0.343 C 
ATOM      9  C9  <0> A   1      -5.598  -0.797   2.129  0.00  0.00    +0.517 C 
ATOM     10  N4  <0> A   1      -6.016  -1.871   2.765  0.00  0.00    -0.527 NA
ATOM     11  C10 <0> A   1      -7.329  -2.016   2.586  0.00  0.00    +0.429 C 
ATOM     12  N5  <0> A   1      -7.770  -1.042   1.837  0.00  0.00    -0.304 NA
ATOM     13  N6  <0> A   1      -6.666  -0.230   1.529  0.00  0.00    -0.368 N 
ATOM     14  C11 <0> A   1      -6.671   0.988   0.715  0.00  0.00    +0.360 C 
ENDROOT
BRANCH   3  15
ATOM     15  C12 <0> A   1      -3.721  -2.660  -2.039  0.00  0.00    -0.075 A 
ATOM     16  C13 <0> A   1      -3.313  -2.471  -3.360  0.00  0.00    +0.098 A 
ATOM     17  C14 <0> A   1      -3.816  -3.281  -4.357  0.00  0.00    -0.015 A 
ATOM     18  C15 <0> A   1      -4.726  -4.280  -4.048  0.00  0.00    +0.122 A 
ATOM     19  C16 <0> A   1      -5.134  -4.471  -2.737  0.00  0.00    -0.024 A 
ATOM     20  C17 <0> A   1      -4.633  -3.670  -1.733  0.00  0.00    +0.091 A 
ATOM     21  F1  <0> A   1      -5.216  -5.071  -5.028  0.00  0.00    -0.135 F 
ENDBRANCH   3  15
BRANCH   1  23
ATOM     22  C1  <0> A   1      -0.022   1.552   0.022  0.00  0.00    +0.044 C 
ATOM     23  C2  <0> A   1       0.009   0.022   0.017  0.00  0.00    +0.051 C 
ATOM     24  C3  <0> A   1       0.747  -0.477   1.261  0.00  0.00    +0.044 C 
ENDBRANCH   1  23
BRANCH   2  25
ATOM     25  C18 <0> A   1      -0.969  -1.682  -2.144  0.00  0.00    +0.012 C 
ATOM     26  C19 <0> A   1      -0.846  -2.950  -2.513  0.00  0.00    -0.036 C 
BRANCH  26  27
ATOM     27  C20 <0> A   1       0.059  -3.316  -3.662  0.00  0.00    +0.252 C 
BRANCH  27  28
ATOM     28  O4  <0> A   1       0.755  -2.151  -4.109  0.00  0.00    -0.537 OA
ATOM     29  H28 <0> A   1       1.308  -1.739  -3.430  0.00  0.00    +0.366 HD
ENDBRANCH  27  28
BRANCH  27  30
ATOM     30  C21 <0> A   1       1.068  -4.369  -3.200  0.00  0.00    -0.041 C 
BRANCH  30  31
ATOM     31  C22 <0> A   1       1.905  -4.831  -4.395  0.00  0.00    +0.231 C 
BRANCH  31  32
ATOM     32  O3  <0> A   1       2.691  -3.740  -4.877  0.00  0.00    -0.528 OA
ATOM     33  H27 <0> A   1       3.304  -3.377  -4.223  0.00  0.00    +0.350 HD
ENDBRANCH  31  32
BRANCH  31  34
ATOM     34  C23 <0> A   1       2.828  -5.971  -3.960  0.00  0.00    -0.102 C 
BRANCH  34  35
ATOM     35  C24 <0> A   1       3.562  -6.509  -5.161  0.00  0.00    +0.491 C 
ATOM     36  O1  <0> A   1       3.366  -6.025  -6.263  0.00  0.00    -0.681 OA
ATOM     37  O2  <0> A   1       4.353  -7.428  -5.031  0.00  0.00    -0.713 OA
ENDBRANCH  34  35
ENDBRANCH  31  34
ENDBRANCH  30  31
ENDBRANCH  27  30
ENDBRANCH  26  27
ENDBRANCH   2  25
TORSDOF 10
