REMARK VINA RESULT:      -7.9     23.941     27.214
REMARK  Name = CHEMBL298174
REMARK  6 active torsions:
REMARK  status: ('A' for Active; 'I' for Inactive)
REMARK    1  A    between atoms: C4_4  and  C7_7
REMARK    2  A    between atoms: C7_7  and  C8_8
REMARK    3  A    between atoms: C8_8  and  C9_9
REMARK    4  A    between atoms: C14_14  and  C15_15
REMARK    5  A    between atoms: C16_16  and  C17_17
REMARK    6  A    between atoms: C19_19  and  O3_25
REMARK                            x       y       z     vdW  Elec       q    Type
REMARK                         _______ _______ _______ _____ _____    ______ ____
ROOT
ATOM      1  C9  <0> A   1     -23.199  -0.572  51.134  0.00  0.00    -0.045 A 
ATOM      2  C10 <0> A   1     -22.874   0.648  51.690  0.00  0.00    +0.041 A 
ATOM      3  C11 <0> A   1     -21.899   0.727  52.670  0.00  0.00    -0.021 A 
ATOM      4  C12 <0> A   1     -21.243  -0.415  53.097  0.00  0.00    +0.041 A 
ATOM      5  C13 <0> A   1     -21.559  -1.641  52.547  0.00  0.00    -0.018 A 
ATOM      6  C14 <0> A   1     -22.546  -1.728  51.563  0.00  0.00    -0.040 A 
ATOM      7 Cl1  <0> A   1     -20.736  -3.072  53.082  0.00  0.00    -0.048 Cl
ATOM      8 Cl2  <0> A   1     -21.497   2.266  53.366  0.00  0.00    -0.054 Cl
ENDROOT
BRANCH   6   9
ATOM      9  C15 <0> A   1     -22.895  -3.038  50.975  0.00  0.00    +0.039 C 
ATOM     10  C16 <0> A   1     -23.868  -3.765  51.506  0.00  0.00    -0.000 C 
BRANCH  10  11
ATOM     11  C17 <0> A   1     -24.224  -5.101  50.907  0.00  0.00    +0.243 C 
ATOM     12  C18 <0> A   1     -25.735  -5.170  50.671  0.00  0.00    +0.051 C 
ATOM     13  C19 <0> A   1     -26.098  -6.544  50.099  0.00  0.00    +0.186 C 
ATOM     14  C20 <0> A   1     -25.667  -7.626  51.098  0.00  0.00    +0.023 C 
ATOM     15  C21 <0> A   1     -24.214  -7.394  51.452  0.00  0.00    +0.497 C 
ATOM     16  O1  <0> A   1     -23.414  -8.298  51.419  0.00  0.00    -0.449 OA
ATOM     17  O2  <0> A   1     -23.839  -6.147  51.806  0.00  0.00    -0.369 OA
BRANCH  13  18
ATOM     18  O3  <0> A   1     -25.421  -6.740  48.857  0.00  0.00    -0.564 OA
ATOM     19  H20 <0> A   1     -25.713  -6.146  48.152  0.00  0.00    +0.387 HD
ENDBRANCH  13  18
ENDBRANCH  10  11
ENDBRANCH   6   9
BRANCH   1  20
ATOM     20  C8  <0> A   1     -24.261  -0.656  50.067  0.00  0.00    +0.091 C 
BRANCH  20  21
ATOM     21  C7  <0> A   1     -25.529   0.048  50.554  0.00  0.00    +0.076 C 
BRANCH  21  25
ATOM     22  C1  <0> A   1     -28.384  -2.871  51.810  0.00  0.00    -0.003 A 
ATOM     23  C2  <0> A   1     -27.562  -2.263  52.741  0.00  0.00    +0.002 A 
ATOM     24  C3  <0> A   1     -26.638  -1.319  52.334  0.00  0.00    +0.007 A 
ATOM     25  C4  <0> A   1     -26.536  -0.983  50.997  0.00  0.00    -0.083 A 
ATOM     26  C5  <0> A   1     -27.358  -1.591  50.067  0.00  0.00    +0.005 A 
ATOM     27  C6  <0> A   1     -28.283  -2.534  50.474  0.00  0.00    +0.003 A 
ENDBRANCH  21  25
ENDBRANCH  20  21
ENDBRANCH   1  20
TORSDOF 6
