REMARK  Name = CHEMBL46057
REMARK  6 active torsions:
REMARK  status: ('A' for Active; 'I' for Inactive)
REMARK    1  A    between atoms: C4_4  and  C7_7
REMARK    2  A    between atoms: C7_7  and  O1_8
REMARK    3  A    between atoms: O1_8  and  C8_9
REMARK    4  A    between atoms: C11_12  and  C14_16
REMARK    5  A    between atoms: C15_17  and  C16_18
REMARK    6  A    between atoms: C18_20  and  O4_26
REMARK                            x       y       z     vdW  Elec       q    Type
REMARK                         _______ _______ _______ _____ _____    ______ ____
ROOT
ATOM      1  C8  <0> A   1       5.318  -1.605   1.466  0.00  0.00    +0.160 A 
ATOM      2  C9  <0> A   1       6.046  -2.006   0.354  0.00  0.00    -0.051 A 
ATOM      3  C10 <0> A   1       7.242  -2.675   0.514  0.00  0.00    +0.025 A 
ATOM      4  C11 <0> A   1       7.721  -2.948   1.798  0.00  0.00    -0.078 A 
ATOM      5  C12 <0> A   1       6.985  -2.542   2.914  0.00  0.00    +0.019 A 
ATOM      6  C13 <0> A   1       5.793  -1.869   2.744  0.00  0.00    +0.013 A 
ATOM      7 Cl1  <0> A   1       7.574  -2.879   4.512  0.00  0.00    -0.037 Cl
ATOM      8 Cl2  <0> A   1       8.150  -3.177  -0.877  0.00  0.00    -0.042 Cl
ENDROOT
BRANCH   4   9
ATOM      9  C14 <0> A   1       9.001  -3.665   1.974  0.00  0.00    +0.046 C 
ATOM     10  C15 <0> A   1       9.926  -3.178   2.790  0.00  0.00    -0.003 C 
BRANCH  10  11
ATOM     11  C16 <0> A   1      11.232  -3.908   2.970  0.00  0.00    +0.243 C 
ATOM     12  C17 <0> A   1      12.394  -2.961   2.661  0.00  0.00    +0.051 C 
ATOM     13  C18 <0> A   1      13.718  -3.719   2.805  0.00  0.00    +0.186 C 
ATOM     14  C19 <0> A   1      13.722  -4.902   1.828  0.00  0.00    +0.024 C 
ATOM     15  C20 <0> A   1      12.452  -5.696   2.040  0.00  0.00    +0.497 C 
ATOM     16  O2  <0> A   1      12.485  -6.897   2.172  0.00  0.00    -0.451 OA
ATOM     17  O3  <0> A   1      11.281  -5.026   2.076  0.00  0.00    -0.368 OA
BRANCH  13  18
ATOM     18  O4  <0> A   1      13.851  -4.201   4.144  0.00  0.00    -0.564 OA
ATOM     19  H18 <0> A   1      14.669  -4.691   4.306  0.00  0.00    +0.387 HD
ENDBRANCH  13  18
ENDBRANCH  10  11
ENDBRANCH   4   9
BRANCH   1  20
ATOM     20  O1  <0> A   1       4.141  -0.946   1.304  0.00  0.00    -0.297 OA
BRANCH  20  21
ATOM     21  C7  <0> A   1       3.711  -0.707  -0.038  0.00  0.00    +0.252 C 
BRANCH  21  25
ATOM     22  C1  <0> A   1      -0.017   1.378   0.010  0.00  0.00    +0.019 A 
ATOM     23  C2  <0> A   1       1.171   2.086   0.002  0.00  0.00    +0.004 A 
ATOM     24  C3  <0> A   1       2.377   1.411  -0.013  0.00  0.00    +0.031 A 
ATOM     25  C4  <0> A   1       2.396   0.029  -0.020  0.00  0.00    -0.101 A 
ATOM     26  C5  <0> A   1       1.208  -0.679  -0.012  0.00  0.00    +0.031 A 
ATOM     27  C6  <0> A   1       0.002  -0.004   0.002  0.00  0.00    +0.004 A 
ENDBRANCH  21  25
ENDBRANCH  20  21
ENDBRANCH   1  20
TORSDOF 6
