REMARK VINA RESULT:      -7.4     24.712     26.167
REMARK  Name = CHEMBL400576
REMARK  14 active torsions:
REMARK  status: ('A' for Active; 'I' for Inactive)
REMARK    1  A    between atoms: C1_1  and  C2_2
REMARK    2  A    between atoms: C2_2  and  C3_3
REMARK    3  A    between atoms: C2_2  and  C4_4
REMARK    4  A    between atoms: C5_5  and  C19_29
REMARK    5  A    between atoms: N2_7  and  C13_22
REMARK    6  A    between atoms: C6_8  and  O1_9
REMARK    7  A    between atoms: O1_9  and  C7_10
REMARK    8  A    between atoms: C7_10  and  C8_11
REMARK    9  A    between atoms: C8_11  and  C9_13
REMARK   10  A    between atoms: C8_11  and  O5_21
REMARK   11  A    between atoms: C9_13  and  C10_14
REMARK   12  A    between atoms: C10_14  and  C11_16
REMARK   13  A    between atoms: C10_14  and  O4_20
REMARK   14  A    between atoms: C11_16  and  C12_17
REMARK                            x       y       z     vdW  Elec       q    Type
REMARK                         _______ _______ _______ _____ _____    ______ ____
ROOT
ATOM      1  C4  <0> A   1       4.298  21.971  32.601  0.00  0.00    -0.182 C 
ATOM      2  C5  <0> A   1       3.679  22.824  33.539  0.00  0.00    +0.060 C 
ATOM      3  N1  <0> A   1       4.018  22.416  34.748  0.00  0.00    -0.234 NA
ATOM      4  N2  <0> A   1       4.857  21.302  34.616  0.00  0.00    -0.327 N 
ATOM      5  C6  <0> A   1       5.010  21.044  33.288  0.00  0.00    +0.269 C 
ENDROOT
BRANCH   2   6
ATOM      6  C19 <0> A   1       2.805  23.971  33.225  0.00  0.00    +0.610 C 
ATOM      7  O6  <0> A   1       3.142  24.779  32.380  0.00  0.00    -0.516 OA
ATOM      8  N3  <0> A   1       1.634  24.124  33.873  0.00  0.00    -0.599 N 
ATOM      9  C20 <0> A   1       1.260  23.216  34.966  0.00  0.00    +0.265 C 
ATOM     10  C21 <0> A   1       0.913  24.050  36.204  0.00  0.00    +0.011 C 
ATOM     11  C22 <0> A   1      -0.165  25.073  35.839  0.00  0.00    +0.012 C 
ATOM     12  C23 <0> A   1       0.367  26.014  34.756  0.00  0.00    +0.011 C 
ATOM     13  C24 <0> A   1       0.710  25.206  33.506  0.00  0.00    +0.279 C 
ENDBRANCH   2   6
BRANCH   4  14
ATOM     14  C13 <0> A   1       5.432  20.576  35.667  0.00  0.00    +0.128 A 
ATOM     15  C14 <0> A   1       4.720  19.552  36.277  0.00  0.00    +0.066 A 
ATOM     16  C15 <0> A   1       5.289  18.837  37.312  0.00  0.00    +0.008 A 
ATOM     17  C16 <0> A   1       6.569  19.143  37.744  0.00  0.00    +0.107 A 
ATOM     18  C17 <0> A   1       7.281  20.165  37.138  0.00  0.00    +0.018 A 
ATOM     19  C18 <0> A   1       6.718  20.877  36.097  0.00  0.00    +0.065 A 
ATOM     20  F1  <0> A   1       7.124  18.443  38.758  0.00  0.00    -0.132 F 
ENDBRANCH   4  14
BRANCH   1  22
ATOM     21  C1  <0> A   1       5.583  22.083  30.482  0.00  0.00    +0.025 C 
ATOM     22  C2  <0> A   1       4.184  22.069  31.102  0.00  0.00    +0.062 C 
ATOM     23  C3  <0> A   1       3.402  20.867  30.569  0.00  0.00    +0.036 C 
ENDBRANCH   1  22
BRANCH   5  24
ATOM     24  O1  <0> A   1       5.747  20.040  32.748  0.00  0.00    -0.283 OA
BRANCH  24  25
ATOM     25  C7  <0> A   1       5.128  18.755  32.663  0.00  0.00    +0.155 C 
BRANCH  25  26
ATOM     26  C8  <0> A   1       5.327  18.185  31.257  0.00  0.00    +0.230 C 
BRANCH  26  27
ATOM     27  O5  <0> A   1       6.545  17.439  31.213  0.00  0.00    -0.527 OA
ATOM     28  H17 <0> A   1       6.481  16.557  31.604  0.00  0.00    +0.364 HD
ENDBRANCH  26  27
BRANCH  26  29
ATOM     29  C9  <0> A   1       4.154  17.267  30.908  0.00  0.00    -0.040 C 
BRANCH  29  30
ATOM     30  C10 <0> A   1       4.021  17.163  29.387  0.00  0.00    +0.236 C 
BRANCH  30  31
ATOM     31  O4  <0> A   1       4.781  18.204  28.771  0.00  0.00    -0.526 OA
ATOM     32  H16 <0> A   1       4.312  18.668  28.064  0.00  0.00    +0.351 HD
ENDBRANCH  30  31
BRANCH  30  33
ATOM     33  C11 <0> A   1       4.545  15.804  28.921  0.00  0.00    -0.101 C 
BRANCH  33  34
ATOM     34  C12 <0> A   1       5.644  16.009  27.910  0.00  0.00    +0.491 C 
ATOM     35  O2  <0> A   1       6.793  16.171  28.283  0.00  0.00    -0.680 OA
ATOM     36  O3  <0> A   1       5.383  16.014  26.719  0.00  0.00    -0.712 OA
ENDBRANCH  33  34
ENDBRANCH  30  33
ENDBRANCH  29  30
ENDBRANCH  26  29
ENDBRANCH  25  26
ENDBRANCH  24  25
ENDBRANCH   5  24
TORSDOF 12
