MODEL 1
REMARK VINA RESULT:      -8.4      0.000      0.000
REMARK  Name = CHEMBL142436
REMARK  13 active torsions:
REMARK  status: ('A' for Active; 'I' for Inactive)
REMARK    1  A    between atoms: C1_1  and  C2_2
REMARK    2  A    between atoms: C4_4  and  C17_24
REMARK    3  A    between atoms: C5_5  and  C10_12
REMARK    4  A    between atoms: C6_6  and  C7_9
REMARK    5  A    between atoms: C7_9  and  C8_10
REMARK    6  A    between atoms: C7_9  and  C9_11
REMARK    7  A    between atoms: C11_13  and  C12_14
REMARK    8  A    between atoms: C12_14  and  C13_15
REMARK    9  A    between atoms: C12_14  and  O5_23
REMARK   10  A    between atoms: C13_15  and  C14_16
REMARK   11  A    between atoms: C14_16  and  C15_18
REMARK   12  A    between atoms: C14_16  and  O4_22
REMARK   13  A    between atoms: C15_18  and  C16_19
REMARK                            x       y       z     vdW  Elec       q    Type
REMARK                         _______ _______ _______ _____ _____    ______ ____
ROOT
ATOM      1  C1  <0> A   1     -17.568   7.350  47.958  0.00  0.00    +0.156 C 
ATOM      2  C2  <0> A   1     -16.362   7.462  47.060  0.00  0.00    +0.101 A 
ATOM      3  C3  <0> A   1     -15.667   8.653  47.005  0.00  0.00    +0.042 A 
ATOM      4  C4  <0> A   1     -14.550   8.750  46.172  0.00  0.00    +0.005 A 
ATOM      5  C5  <0> A   1     -14.182   7.617  45.419  0.00  0.00    -0.041 A 
ATOM      6  C6  <0> A   1     -14.945   6.456  45.538  0.00  0.00    +0.125 A 
ATOM      7  N1  <0> A   1     -15.987   6.417  46.344  0.00  0.00    -0.114 N 
ATOM      8  O1  <0> A   1     -16.732   5.217  46.442  0.00  0.00    -0.533 OA
ENDROOT
BRANCH   4   9
ATOM      9  C17 <0> A   1     -13.775  10.010  46.083  0.00  0.00    -0.073 A 
ATOM     10  C18 <0> A   1     -12.653  10.200  46.889  0.00  0.00    +0.083 A 
ATOM     11  C19 <0> A   1     -11.934  11.373  46.802  0.00  0.00    -0.008 A 
ATOM     12  C20 <0> A   1     -12.324  12.363  45.914  0.00  0.00    +0.114 A 
ATOM     13  C21 <0> A   1     -13.438  12.179  45.111  0.00  0.00    -0.014 A 
ATOM     14  C22 <0> A   1     -14.160  11.006  45.187  0.00  0.00    +0.064 A 
ATOM     15  F1  <0> A   1     -11.616  13.511  45.833  0.00  0.00    -0.135 F 
ENDBRANCH   4   9
BRANCH   6  16
ATOM     16  C7  <0> A   1     -14.569   5.232  44.743  0.00  0.00    +0.055 C 
ATOM     17  C8  <0> A   1     -14.192   4.099  45.699  0.00  0.00    +0.044 C 
ATOM     18  C9  <0> A   1     -15.759   4.800  43.884  0.00  0.00    +0.044 C 
ENDBRANCH   6  16
BRANCH   5  19
ATOM     19  C10 <0> A   1     -13.012   7.658  44.521  0.00  0.00    +0.002 C 
ATOM     20  C11 <0> A   1     -13.180   7.553  43.208  0.00  0.00    -0.015 C 
BRANCH  20  21
ATOM     21  C12 <0> A   1     -11.985   7.594  42.290  0.00  0.00    +0.253 C 
BRANCH  21  22
ATOM     22  O5  <0> A   1     -11.427   6.284  42.174  0.00  0.00    -0.536 OA
ATOM     23  H21 <0> A   1     -11.410   5.789  43.006  0.00  0.00    +0.367 HD
ENDBRANCH  21  22
BRANCH  21  24
ATOM     24  C13 <0> A   1     -12.419   8.088  40.909  0.00  0.00    -0.040 C 
BRANCH  24  25
ATOM     25  C14 <0> A   1     -12.961   9.514  41.023  0.00  0.00    +0.232 C 
BRANCH  25  26
ATOM     26  O4  <0> A   1     -11.871  10.430  41.142  0.00  0.00    -0.528 OA
ATOM     27  H20 <0> A   1     -11.040  10.018  41.414  0.00  0.00    +0.351 HD
ENDBRANCH  25  26
BRANCH  25  28
ATOM     28  C15 <0> A   1     -13.777   9.851  39.773  0.00  0.00    -0.101 C 
BRANCH  28  29
ATOM     29  C16 <0> A   1     -13.901  11.348  39.643  0.00  0.00    +0.491 C 
ATOM     30  O2  <0> A   1     -14.570  11.976  40.446  0.00  0.00    -0.681 OA
ATOM     31  O3  <0> A   1     -13.332  11.930  38.735  0.00  0.00    -0.712 OA
ENDBRANCH  28  29
ENDBRANCH  25  28
ENDBRANCH  24  25
ENDBRANCH  21  24
ENDBRANCH  20  21
ENDBRANCH   5  19
TORSDOF 10
ENDMDL
MODEL 2
REMARK VINA RESULT:      -7.7      2.974      5.018
REMARK  Name = CHEMBL142436
REMARK  13 active torsions:
REMARK  status: ('A' for Active; 'I' for Inactive)
REMARK    1  A    between atoms: C1_1  and  C2_2
REMARK    2  A    between atoms: C4_4  and  C17_24
REMARK    3  A    between atoms: C5_5  and  C10_12
REMARK    4  A    between atoms: C6_6  and  C7_9
REMARK    5  A    between atoms: C7_9  and  C8_10
REMARK    6  A    between atoms: C7_9  and  C9_11
REMARK    7  A    between atoms: C11_13  and  C12_14
REMARK    8  A    between atoms: C12_14  and  C13_15
REMARK    9  A    between atoms: C12_14  and  O5_23
REMARK   10  A    between atoms: C13_15  and  C14_16
REMARK   11  A    between atoms: C14_16  and  C15_18
REMARK   12  A    between atoms: C14_16  and  O4_22
REMARK   13  A    between atoms: C15_18  and  C16_19
REMARK                            x       y       z     vdW  Elec       q    Type
REMARK                         _______ _______ _______ _____ _____    ______ ____
ROOT
ATOM      1  C1  <0> A   1     -13.703   9.225  49.967  0.00  0.00    +0.156 C 
ATOM      2  C2  <0> A   1     -13.577   8.994  48.483  0.00  0.00    +0.101 A 
ATOM      3  C3  <0> A   1     -14.212   7.912  47.908  0.00  0.00    +0.042 A 
ATOM      4  C4  <0> A   1     -14.093   7.704  46.533  0.00  0.00    +0.005 A 
ATOM      5  C5  <0> A   1     -13.320   8.617  45.787  0.00  0.00    -0.041 A 
ATOM      6  C6  <0> A   1     -12.713   9.682  46.453  0.00  0.00    +0.125 A 
ATOM      7  N1  <0> A   1     -12.864   9.834  47.754  0.00  0.00    -0.114 N 
ATOM      8  O1  <0> A   1     -12.236  10.932  48.392  0.00  0.00    -0.533 OA
ENDROOT
BRANCH   4   9
ATOM      9  C17 <0> A   1     -14.759   6.555  45.876  0.00  0.00    -0.073 A 
ATOM     10  C18 <0> A   1     -16.052   6.691  45.371  0.00  0.00    +0.083 A 
ATOM     11  C19 <0> A   1     -16.668   5.619  44.760  0.00  0.00    -0.008 A 
ATOM     12  C20 <0> A   1     -16.003   4.408  44.646  0.00  0.00    +0.114 A 
ATOM     13  C21 <0> A   1     -14.718   4.268  45.146  0.00  0.00    -0.014 A 
ATOM     14  C22 <0> A   1     -14.092   5.336  45.754  0.00  0.00    +0.064 A 
ATOM     15  F1  <0> A   1     -16.611   3.360  44.046  0.00  0.00    -0.135 F 
ENDBRANCH   4   9
BRANCH   6  16
ATOM     16  C7  <0> A   1     -11.883  10.671  45.677  0.00  0.00    +0.055 C 
ATOM     17  C8  <0> A   1     -12.442  12.080  45.884  0.00  0.00    +0.044 C 
ATOM     18  C9  <0> A   1     -10.436  10.618  46.170  0.00  0.00    +0.044 C 
ENDBRANCH   6  16
BRANCH   5  19
ATOM     19  C10 <0> A   1     -13.155   8.451  44.331  0.00  0.00    +0.002 C 
ATOM     20  C11 <0> A   1     -12.090   7.820  43.851  0.00  0.00    -0.015 C 
BRANCH  20  21
ATOM     21  C12 <0> A   1     -11.921   7.649  42.364  0.00  0.00    +0.253 C 
BRANCH  21  22
ATOM     22  O5  <0> A   1     -11.719   6.267  42.062  0.00  0.00    -0.536 OA
ATOM     23  H21 <0> A   1     -10.922   6.091  41.542  0.00  0.00    +0.367 HD
ENDBRANCH  21  22
BRANCH  21  24
ATOM     24  C13 <0> A   1     -13.177   8.150  41.647  0.00  0.00    -0.040 C 
BRANCH  24  25
ATOM     25  C14 <0> A   1     -12.792   9.234  40.639  0.00  0.00    +0.232 C 
BRANCH  25  26
ATOM     26  O4  <0> A   1     -13.285   8.878  39.346  0.00  0.00    -0.528 OA
ATOM     27  H20 <0> A   1     -13.465   9.635  38.772  0.00  0.00    +0.351 HD
ENDBRANCH  25  26
BRANCH  25  28
ATOM     28  C15 <0> A   1     -13.404  10.569  41.069  0.00  0.00    -0.101 C 
BRANCH  28  29
ATOM     29  C16 <0> A   1     -14.020  11.247  39.871  0.00  0.00    +0.491 C 
ATOM     30  O2  <0> A   1     -15.226  11.195  39.695  0.00  0.00    -0.681 OA
ATOM     31  O3  <0> A   1     -13.314  11.848  39.080  0.00  0.00    -0.712 OA
ENDBRANCH  28  29
ENDBRANCH  25  28
ENDBRANCH  24  25
ENDBRANCH  21  24
ENDBRANCH  20  21
ENDBRANCH   5  19
TORSDOF 10
ENDMDL
MODEL 3
REMARK VINA RESULT:      -7.3      2.980      5.738
REMARK  Name = CHEMBL142436
REMARK  13 active torsions:
REMARK  status: ('A' for Active; 'I' for Inactive)
REMARK    1  A    between atoms: C1_1  and  C2_2
REMARK    2  A    between atoms: C4_4  and  C17_24
REMARK    3  A    between atoms: C5_5  and  C10_12
REMARK    4  A    between atoms: C6_6  and  C7_9
REMARK    5  A    between atoms: C7_9  and  C8_10
REMARK    6  A    between atoms: C7_9  and  C9_11
REMARK    7  A    between atoms: C11_13  and  C12_14
REMARK    8  A    between atoms: C12_14  and  C13_15
REMARK    9  A    between atoms: C12_14  and  O5_23
REMARK   10  A    between atoms: C13_15  and  C14_16
REMARK   11  A    between atoms: C14_16  and  C15_18
REMARK   12  A    between atoms: C14_16  and  O4_22
REMARK   13  A    between atoms: C15_18  and  C16_19
REMARK                            x       y       z     vdW  Elec       q    Type
REMARK                         _______ _______ _______ _____ _____    ______ ____
ROOT
ATOM      1  C1  <0> A   1     -13.232  12.746  47.627  0.00  0.00    +0.156 C 
ATOM      2  C2  <0> A   1     -13.213  11.545  46.715  0.00  0.00    +0.101 A 
ATOM      3  C3  <0> A   1     -13.306  11.730  45.351  0.00  0.00    +0.042 A 
ATOM      4  C4  <0> A   1     -13.286  10.615  44.510  0.00  0.00    +0.005 A 
ATOM      5  C5  <0> A   1     -13.172   9.339  45.102  0.00  0.00    -0.041 A 
ATOM      6  C6  <0> A   1     -13.083   9.250  46.490  0.00  0.00    +0.125 A 
ATOM      7  N1  <0> A   1     -13.101  10.337  47.236  0.00  0.00    -0.114 N 
ATOM      8  O1  <0> A   1     -13.003  10.204  48.642  0.00  0.00    -0.533 OA
ENDROOT
BRANCH   4   9
ATOM      9  C17 <0> A   1     -13.384  10.767  43.040  0.00  0.00    -0.073 A 
ATOM     10  C18 <0> A   1     -12.352  10.311  42.219  0.00  0.00    +0.083 A 
ATOM     11  C19 <0> A   1     -12.447  10.454  40.851  0.00  0.00    -0.008 A 
ATOM     12  C20 <0> A   1     -13.567  11.049  40.291  0.00  0.00    +0.114 A 
ATOM     13  C21 <0> A   1     -14.594  11.504  41.102  0.00  0.00    -0.014 A 
ATOM     14  C22 <0> A   1     -14.510  11.360  42.471  0.00  0.00    +0.064 A 
ATOM     15  F1  <0> A   1     -13.655  11.188  38.950  0.00  0.00    -0.135 F 
ENDBRANCH   4   9
BRANCH   6  16
ATOM     16  C7  <0> A   1     -12.959   7.898  47.144  0.00  0.00    +0.055 C 
ATOM     17  C8  <0> A   1     -11.628   7.813  47.893  0.00  0.00    +0.044 C 
ATOM     18  C9  <0> A   1     -14.112   7.702  48.130  0.00  0.00    +0.044 C 
ENDBRANCH   6  16
BRANCH   5  19
ATOM     19  C10 <0> A   1     -13.145   8.123  44.267  0.00  0.00    +0.002 C 
ATOM     20  C11 <0> A   1     -14.283   7.532  43.919  0.00  0.00    -0.015 C 
BRANCH  20  21
ATOM     21  C12 <0> A   1     -14.257   6.290  43.068  0.00  0.00    +0.253 C 
BRANCH  21  22
ATOM     22  O5  <0> A   1     -12.901   5.931  42.789  0.00  0.00    -0.536 OA
ATOM     23  H21 <0> A   1     -12.604   6.175  41.901  0.00  0.00    +0.367 HD
ENDBRANCH  21  22
BRANCH  21  24
ATOM     24  C13 <0> A   1     -14.945   5.145  43.813  0.00  0.00    -0.040 C 
BRANCH  24  25
ATOM     25  C14 <0> A   1     -16.103   5.700  44.644  0.00  0.00    +0.232 C 
BRANCH  25  26
ATOM     26  O4  <0> A   1     -17.343   5.279  44.073  0.00  0.00    -0.528 OA
ATOM     27  H20 <0> A   1     -17.787   4.578  44.569  0.00  0.00    +0.351 HD
ENDBRANCH  25  26
BRANCH  25  28
ATOM     28  C15 <0> A   1     -15.998   5.176  46.078  0.00  0.00    -0.101 C 
BRANCH  28  29
ATOM     29  C16 <0> A   1     -17.025   5.866  46.941  0.00  0.00    +0.491 C 
ATOM     30  O2  <0> A   1     -17.819   6.643  46.439  0.00  0.00    -0.681 OA
ATOM     31  O3  <0> A   1     -17.060   5.647  48.140  0.00  0.00    -0.712 OA
ENDBRANCH  28  29
ENDBRANCH  25  28
ENDBRANCH  24  25
ENDBRANCH  21  24
ENDBRANCH  20  21
ENDBRANCH   5  19
TORSDOF 10
ENDMDL
MODEL 4
REMARK VINA RESULT:      -7.3      2.545      6.591
REMARK  Name = CHEMBL142436
REMARK  13 active torsions:
REMARK  status: ('A' for Active; 'I' for Inactive)
REMARK    1  A    between atoms: C1_1  and  C2_2
REMARK    2  A    between atoms: C4_4  and  C17_24
REMARK    3  A    between atoms: C5_5  and  C10_12
REMARK    4  A    between atoms: C6_6  and  C7_9
REMARK    5  A    between atoms: C7_9  and  C8_10
REMARK    6  A    between atoms: C7_9  and  C9_11
REMARK    7  A    between atoms: C11_13  and  C12_14
REMARK    8  A    between atoms: C12_14  and  C13_15
REMARK    9  A    between atoms: C12_14  and  O5_23
REMARK   10  A    between atoms: C13_15  and  C14_16
REMARK   11  A    between atoms: C14_16  and  C15_18
REMARK   12  A    between atoms: C14_16  and  O4_22
REMARK   13  A    between atoms: C15_18  and  C16_19
REMARK                            x       y       z     vdW  Elec       q    Type
REMARK                         _______ _______ _______ _____ _____    ______ ____
ROOT
ATOM      1  C1  <0> A   1     -13.077   8.074  41.106  0.00  0.00    +0.156 C 
ATOM      2  C2  <0> A   1     -13.433   8.083  42.571  0.00  0.00    +0.101 A 
ATOM      3  C3  <0> A   1     -13.062   9.159  43.352  0.00  0.00    +0.042 A 
ATOM      4  C4  <0> A   1     -13.395   9.162  44.708  0.00  0.00    +0.005 A 
ATOM      5  C5  <0> A   1     -14.101   8.055  45.221  0.00  0.00    -0.041 A 
ATOM      6  C6  <0> A   1     -14.433   7.012  44.357  0.00  0.00    +0.125 A 
ATOM      7  N1  <0> A   1     -14.098   7.063  43.083  0.00  0.00    -0.114 N 
ATOM      8  O1  <0> A   1     -14.459   5.987  42.237  0.00  0.00    -0.533 OA
ENDROOT
BRANCH   4   9
ATOM      9  C17 <0> A   1     -13.017  10.297  45.582  0.00  0.00    -0.073 A 
ATOM     10  C18 <0> A   1     -13.869  11.393  45.714  0.00  0.00    +0.083 A 
ATOM     11  C19 <0> A   1     -13.513  12.447  46.529  0.00  0.00    -0.008 A 
ATOM     12  C20 <0> A   1     -12.311  12.417  47.218  0.00  0.00    +0.114 A 
ATOM     13  C21 <0> A   1     -11.461  11.330  47.091  0.00  0.00    -0.014 A 
ATOM     14  C22 <0> A   1     -11.811  10.269  46.282  0.00  0.00    +0.064 A 
ATOM     15  F1  <0> A   1     -11.967  13.452  48.016  0.00  0.00    -0.135 F 
ENDBRANCH   4   9
BRANCH   6  16
ATOM     16  C7  <0> A   1     -15.188   5.819  44.884  0.00  0.00    +0.055 C 
ATOM     17  C8  <0> A   1     -16.490   5.651  44.098  0.00  0.00    +0.044 C 
ATOM     18  C9  <0> A   1     -14.329   4.562  44.722  0.00  0.00    +0.044 C 
ENDBRANCH   6  16
BRANCH   5  19
ATOM     19  C10 <0> A   1     -14.481   7.999  46.646  0.00  0.00    +0.002 C 
ATOM     20  C11 <0> A   1     -15.648   8.495  47.040  0.00  0.00    -0.015 C 
BRANCH  20  21
ATOM     21  C12 <0> A   1     -16.037   8.439  48.495  0.00  0.00    +0.253 C 
BRANCH  21  22
ATOM     22  O5  <0> A   1     -16.853   9.568  48.814  0.00  0.00    -0.536 OA
ATOM     23  H21 <0> A   1     -17.768   9.342  49.036  0.00  0.00    +0.367 HD
ENDBRANCH  21  22
BRANCH  21  24
ATOM     24  C13 <0> A   1     -16.818   7.152  48.765  0.00  0.00    -0.040 C 
BRANCH  24  25
ATOM     25  C14 <0> A   1     -18.216   7.265  48.153  0.00  0.00    +0.232 C 
BRANCH  25  26
ATOM     26  O4  <0> A   1     -18.329   6.359  47.054  0.00  0.00    -0.528 OA
ATOM     27  H20 <0> A   1     -17.978   5.477  47.233  0.00  0.00    +0.351 HD
ENDBRANCH  25  26
BRANCH  25  28
ATOM     28  C15 <0> A   1     -19.265   6.917  49.211  0.00  0.00    -0.101 C 
BRANCH  28  29
ATOM     29  C16 <0> A   1     -19.891   5.586  48.879  0.00  0.00    +0.491 C 
ATOM     30  O2  <0> A   1     -20.844   5.533  48.120  0.00  0.00    -0.681 OA
ATOM     31  O3  <0> A   1     -19.444   4.563  49.369  0.00  0.00    -0.712 OA
ENDBRANCH  28  29
ENDBRANCH  25  28
ENDBRANCH  24  25
ENDBRANCH  21  24
ENDBRANCH  20  21
ENDBRANCH   5  19
TORSDOF 10
ENDMDL
MODEL 5
REMARK VINA RESULT:      -7.3     13.005     15.540
REMARK  Name = CHEMBL142436
REMARK  13 active torsions:
REMARK  status: ('A' for Active; 'I' for Inactive)
REMARK    1  A    between atoms: C1_1  and  C2_2
REMARK    2  A    between atoms: C4_4  and  C17_24
REMARK    3  A    between atoms: C5_5  and  C10_12
REMARK    4  A    between atoms: C6_6  and  C7_9
REMARK    5  A    between atoms: C7_9  and  C8_10
REMARK    6  A    between atoms: C7_9  and  C9_11
REMARK    7  A    between atoms: C11_13  and  C12_14
REMARK    8  A    between atoms: C12_14  and  C13_15
REMARK    9  A    between atoms: C12_14  and  O5_23
REMARK   10  A    between atoms: C13_15  and  C14_16
REMARK   11  A    between atoms: C14_16  and  C15_18
REMARK   12  A    between atoms: C14_16  and  O4_22
REMARK   13  A    between atoms: C15_18  and  C16_19
REMARK                            x       y       z     vdW  Elec       q    Type
REMARK                         _______ _______ _______ _____ _____    ______ ____
ROOT
ATOM      1  C1  <0> A   1      -0.211  13.083  56.072  0.00  0.00    +0.156 C 
ATOM      2  C2  <0> A   1      -0.643  12.068  55.045  0.00  0.00    +0.101 A 
ATOM      3  C3  <0> A   1       0.314  11.337  54.370  0.00  0.00    +0.042 A 
ATOM      4  C4  <0> A   1      -0.091  10.397  53.421  0.00  0.00    +0.005 A 
ATOM      5  C5  <0> A   1      -1.474  10.236  53.194  0.00  0.00    -0.041 A 
ATOM      6  C6  <0> A   1      -2.368  11.019  53.923  0.00  0.00    +0.125 A 
ATOM      7  N1  <0> A   1      -1.931  11.888  54.812  0.00  0.00    -0.114 N 
ATOM      8  O1  <0> A   1      -2.871  12.660  55.535  0.00  0.00    -0.533 OA
ENDROOT
BRANCH   4   9
ATOM      9  C17 <0> A   1       0.903   9.591  52.674  0.00  0.00    -0.073 A 
ATOM     10  C18 <0> A   1       1.391  10.045  51.449  0.00  0.00    +0.083 A 
ATOM     11  C19 <0> A   1       2.317   9.292  50.756  0.00  0.00    -0.008 A 
ATOM     12  C20 <0> A   1       2.762   8.088  51.278  0.00  0.00    +0.114 A 
ATOM     13  C21 <0> A   1       2.280   7.634  52.494  0.00  0.00    -0.014 A 
ATOM     14  C22 <0> A   1       1.358   8.382  53.196  0.00  0.00    +0.064 A 
ATOM     15  F1  <0> A   1       3.669   7.354  50.596  0.00  0.00    -0.135 F 
ENDBRANCH   4   9
BRANCH   6  16
ATOM     16  C7  <0> A   1      -3.851  10.864  53.697  0.00  0.00    +0.055 C 
ATOM     17  C8  <0> A   1      -4.557  10.696  55.043  0.00  0.00    +0.044 C 
ATOM     18  C9  <0> A   1      -4.390  12.108  52.989  0.00  0.00    +0.044 C 
ENDBRANCH   6  16
BRANCH   5  19
ATOM     19  C10 <0> A   1      -1.965   9.259  52.203  0.00  0.00    +0.002 C 
ATOM     20  C11 <0> A   1      -2.299   9.662  50.983  0.00  0.00    -0.015 C 
BRANCH  20  21
ATOM     21  C12 <0> A   1      -2.801   8.665  49.971  0.00  0.00    +0.253 C 
BRANCH  21  22
ATOM     22  O5  <0> A   1      -2.876   9.285  48.686  0.00  0.00    -0.536 OA
ATOM     23  H21 <0> A   1      -3.293   8.736  48.008  0.00  0.00    +0.367 HD
ENDBRANCH  21  22
BRANCH  21  24
ATOM     24  C13 <0> A   1      -1.841   7.475  49.908  0.00  0.00    -0.040 C 
BRANCH  24  25
ATOM     25  C14 <0> A   1      -2.532   6.297  49.218  0.00  0.00    +0.232 C 
BRANCH  25  26
ATOM     26  O4  <0> A   1      -3.906   6.617  48.993  0.00  0.00    -0.528 OA
ATOM     27  H20 <0> A   1      -4.333   6.068  48.321  0.00  0.00    +0.351 HD
ENDBRANCH  25  26
BRANCH  25  28
ATOM     28  C15 <0> A   1      -1.847   6.017  47.880  0.00  0.00    -0.101 C 
BRANCH  28  29
ATOM     29  C16 <0> A   1      -2.807   6.306  46.754  0.00  0.00    +0.491 C 
ATOM     30  O2  <0> A   1      -3.472   5.404  46.273  0.00  0.00    -0.681 OA
ATOM     31  O3  <0> A   1      -2.918   7.441  46.325  0.00  0.00    -0.712 OA
ENDBRANCH  28  29
ENDBRANCH  25  28
ENDBRANCH  24  25
ENDBRANCH  21  24
ENDBRANCH  20  21
ENDBRANCH   5  19
TORSDOF 10
ENDMDL
MODEL 6
REMARK VINA RESULT:      -7.3      2.994      4.997
REMARK  Name = CHEMBL142436
REMARK  13 active torsions:
REMARK  status: ('A' for Active; 'I' for Inactive)
REMARK    1  A    between atoms: C1_1  and  C2_2
REMARK    2  A    between atoms: C4_4  and  C17_24
REMARK    3  A    between atoms: C5_5  and  C10_12
REMARK    4  A    between atoms: C6_6  and  C7_9
REMARK    5  A    between atoms: C7_9  and  C8_10
REMARK    6  A    between atoms: C7_9  and  C9_11
REMARK    7  A    between atoms: C11_13  and  C12_14
REMARK    8  A    between atoms: C12_14  and  C13_15
REMARK    9  A    between atoms: C12_14  and  O5_23
REMARK   10  A    between atoms: C13_15  and  C14_16
REMARK   11  A    between atoms: C14_16  and  C15_18
REMARK   12  A    between atoms: C14_16  and  O4_22
REMARK   13  A    between atoms: C15_18  and  C16_19
REMARK                            x       y       z     vdW  Elec       q    Type
REMARK                         _______ _______ _______ _____ _____    ______ ____
ROOT
ATOM      1  C1  <0> A   1     -17.459   8.682  50.363  0.00  0.00    +0.156 C 
ATOM      2  C2  <0> A   1     -16.691   8.855  49.078  0.00  0.00    +0.101 A 
ATOM      3  C3  <0> A   1     -16.333   7.740  48.347  0.00  0.00    +0.042 A 
ATOM      4  C4  <0> A   1     -15.623   7.906  47.157  0.00  0.00    +0.005 A 
ATOM      5  C5  <0> A   1     -15.300   9.218  46.753  0.00  0.00    -0.041 A 
ATOM      6  C6  <0> A   1     -15.702  10.284  47.556  0.00  0.00    +0.125 A 
ATOM      7  N1  <0> A   1     -16.376  10.071  48.669  0.00  0.00    -0.114 N 
ATOM      8  O1  <0> A   1     -16.771  11.181  49.454  0.00  0.00    -0.533 OA
ENDROOT
BRANCH   4   9
ATOM      9  C17 <0> A   1     -15.220   6.737  46.341  0.00  0.00    -0.073 A 
ATOM     10  C18 <0> A   1     -16.016   6.319  45.275  0.00  0.00    +0.083 A 
ATOM     11  C19 <0> A   1     -15.637   5.231  44.518  0.00  0.00    -0.008 A 
ATOM     12  C20 <0> A   1     -14.465   4.553  44.815  0.00  0.00    +0.114 A 
ATOM     13  C21 <0> A   1     -13.671   4.964  45.872  0.00  0.00    -0.014 A 
ATOM     14  C22 <0> A   1     -14.039   6.055  46.632  0.00  0.00    +0.064 A 
ATOM     15  F1  <0> A   1     -14.098   3.487  44.070  0.00  0.00    -0.135 F 
ENDBRANCH   4   9
BRANCH   6  16
ATOM     16  C7  <0> A   1     -15.368  11.696  47.145  0.00  0.00    +0.055 C 
ATOM     17  C8  <0> A   1     -16.617  12.571  47.265  0.00  0.00    +0.044 C 
ATOM     18  C9  <0> A   1     -14.270  12.245  48.057  0.00  0.00    +0.044 C 
ENDBRANCH   6  16
BRANCH   5  19
ATOM     19  C10 <0> A   1     -14.550   9.459  45.505  0.00  0.00    +0.002 C 
ATOM     20  C11 <0> A   1     -13.222   9.485  45.524  0.00  0.00    -0.015 C 
BRANCH  20  21
ATOM     21  C12 <0> A   1     -12.457   9.731  44.250  0.00  0.00    +0.253 C 
BRANCH  21  22
ATOM     22  O5  <0> A   1     -11.561   8.643  44.015  0.00  0.00    -0.536 OA
ATOM     23  H21 <0> A   1     -11.881   8.003  43.364  0.00  0.00    +0.367 HD
ENDBRANCH  21  22
BRANCH  21  24
ATOM     24  C13 <0> A   1     -13.436   9.847  43.080  0.00  0.00    -0.040 C 
BRANCH  24  25
ATOM     25  C14 <0> A   1     -12.879  10.824  42.042  0.00  0.00    +0.232 C 
BRANCH  25  26
ATOM     26  O4  <0> A   1     -11.566  10.410  41.656  0.00  0.00    -0.528 OA
ATOM     27  H20 <0> A   1     -11.109  11.039  41.082  0.00  0.00    +0.351 HD
ENDBRANCH  25  26
BRANCH  25  28
ATOM     28  C15 <0> A   1     -13.791  10.838  40.814  0.00  0.00    -0.101 C 
BRANCH  28  29
ATOM     29  C16 <0> A   1     -12.953  10.952  39.567  0.00  0.00    +0.491 C 
ATOM     30  O2  <0> A   1     -12.435  12.017  39.276  0.00  0.00    -0.681 OA
ATOM     31  O3  <0> A   1     -12.792   9.980  38.849  0.00  0.00    -0.712 OA
ENDBRANCH  28  29
ENDBRANCH  25  28
ENDBRANCH  24  25
ENDBRANCH  21  24
ENDBRANCH  20  21
ENDBRANCH   5  19
TORSDOF 10
ENDMDL
MODEL 7
REMARK VINA RESULT:      -7.2     11.916     14.610
REMARK  Name = CHEMBL142436
REMARK  13 active torsions:
REMARK  status: ('A' for Active; 'I' for Inactive)
REMARK    1  A    between atoms: C1_1  and  C2_2
REMARK    2  A    between atoms: C4_4  and  C17_24
REMARK    3  A    between atoms: C5_5  and  C10_12
REMARK    4  A    between atoms: C6_6  and  C7_9
REMARK    5  A    between atoms: C7_9  and  C8_10
REMARK    6  A    between atoms: C7_9  and  C9_11
REMARK    7  A    between atoms: C11_13  and  C12_14
REMARK    8  A    between atoms: C12_14  and  C13_15
REMARK    9  A    between atoms: C12_14  and  O5_23
REMARK   10  A    between atoms: C13_15  and  C14_16
REMARK   11  A    between atoms: C14_16  and  C15_18
REMARK   12  A    between atoms: C14_16  and  O4_22
REMARK   13  A    between atoms: C15_18  and  C16_19
REMARK                            x       y       z     vdW  Elec       q    Type
REMARK                         _______ _______ _______ _____ _____    ______ ____
ROOT
ATOM      1  C1  <0> A   1      -0.132  13.008  55.545  0.00  0.00    +0.156 C 
ATOM      2  C2  <0> A   1      -0.689  11.996  54.577  0.00  0.00    +0.101 A 
ATOM      3  C3  <0> A   1      -2.043  11.727  54.582  0.00  0.00    +0.042 A 
ATOM      4  C4  <0> A   1      -2.554  10.790  53.682  0.00  0.00    +0.005 A 
ATOM      5  C5  <0> A   1      -1.654  10.154  52.802  0.00  0.00    -0.041 A 
ATOM      6  C6  <0> A   1      -0.302  10.489  52.869  0.00  0.00    +0.125 A 
ATOM      7  N1  <0> A   1       0.126  11.386  53.735  0.00  0.00    -0.114 N 
ATOM      8  O1  <0> A   1       1.505  11.702  53.768  0.00  0.00    -0.533 OA
ENDROOT
BRANCH   4   9
ATOM      9  C17 <0> A   1      -4.001  10.471  53.654  0.00  0.00    -0.073 A 
ATOM     10  C18 <0> A   1      -4.893  11.326  53.007  0.00  0.00    +0.083 A 
ATOM     11  C19 <0> A   1      -6.238  11.025  52.982  0.00  0.00    -0.008 A 
ATOM     12  C20 <0> A   1      -6.704   9.875  53.599  0.00  0.00    +0.114 A 
ATOM     13  C21 <0> A   1      -5.822   9.023  54.243  0.00  0.00    -0.014 A 
ATOM     14  C22 <0> A   1      -4.474   9.312  54.268  0.00  0.00    +0.064 A 
ATOM     15  F1  <0> A   1      -8.024   9.585  53.572  0.00  0.00    -0.135 F 
ENDBRANCH   4   9
BRANCH   6  16
ATOM     16  C7  <0> A   1       0.678   9.823  51.938  0.00  0.00    +0.055 C 
ATOM     17  C8  <0> A   1       1.225  10.855  50.951  0.00  0.00    +0.044 C 
ATOM     18  C9  <0> A   1       1.831   9.233  52.751  0.00  0.00    +0.044 C 
ENDBRANCH   6  16
BRANCH   5  19
ATOM     19  C10 <0> A   1      -2.133   9.154  51.828  0.00  0.00    +0.002 C 
ATOM     20  C11 <0> A   1      -2.499   9.537  50.610  0.00  0.00    -0.015 C 
BRANCH  20  21
ATOM     21  C12 <0> A   1      -2.988   8.517  49.616  0.00  0.00    +0.253 C 
BRANCH  21  22
ATOM     22  O5  <0> A   1      -3.080   9.117  48.323  0.00  0.00    -0.536 OA
ATOM     23  H21 <0> A   1      -2.230   9.403  47.960  0.00  0.00    +0.367 HD
ENDBRANCH  21  22
BRANCH  21  24
ATOM     24  C13 <0> A   1      -2.008   7.343  49.564  0.00  0.00    -0.040 C 
BRANCH  24  25
ATOM     25  C14 <0> A   1      -2.706   6.119  48.969  0.00  0.00    +0.232 C 
BRANCH  25  26
ATOM     26  O4  <0> A   1      -4.085   6.421  48.744  0.00  0.00    -0.528 OA
ATOM     27  H20 <0> A   1      -4.483   6.974  49.429  0.00  0.00    +0.351 HD
ENDBRANCH  25  26
BRANCH  25  28
ATOM     28  C15 <0> A   1      -2.042   5.749  47.642  0.00  0.00    -0.101 C 
BRANCH  28  29
ATOM     29  C16 <0> A   1      -2.959   6.112  46.502  0.00  0.00    +0.491 C 
ATOM     30  O2  <0> A   1      -3.014   7.264  46.107  0.00  0.00    -0.681 OA
ATOM     31  O3  <0> A   1      -3.646   5.253  45.975  0.00  0.00    -0.712 OA
ENDBRANCH  28  29
ENDBRANCH  25  28
ENDBRANCH  24  25
ENDBRANCH  21  24
ENDBRANCH  20  21
ENDBRANCH   5  19
TORSDOF 10
ENDMDL
MODEL 8
REMARK VINA RESULT:      -7.2      9.918     12.509
REMARK  Name = CHEMBL142436
REMARK  13 active torsions:
REMARK  status: ('A' for Active; 'I' for Inactive)
REMARK    1  A    between atoms: C1_1  and  C2_2
REMARK    2  A    between atoms: C4_4  and  C17_24
REMARK    3  A    between atoms: C5_5  and  C10_12
REMARK    4  A    between atoms: C6_6  and  C7_9
REMARK    5  A    between atoms: C7_9  and  C8_10
REMARK    6  A    between atoms: C7_9  and  C9_11
REMARK    7  A    between atoms: C11_13  and  C12_14
REMARK    8  A    between atoms: C12_14  and  C13_15
REMARK    9  A    between atoms: C12_14  and  O5_23
REMARK   10  A    between atoms: C13_15  and  C14_16
REMARK   11  A    between atoms: C14_16  and  C15_18
REMARK   12  A    between atoms: C14_16  and  O4_22
REMARK   13  A    between atoms: C15_18  and  C16_19
REMARK                            x       y       z     vdW  Elec       q    Type
REMARK                         _______ _______ _______ _____ _____    ______ ____
ROOT
ATOM      1  C1  <0> A   1      -0.817   2.886  44.267  0.00  0.00    +0.156 C 
ATOM      2  C2  <0> A   1      -2.106   3.344  44.900  0.00  0.00    +0.101 A 
ATOM      3  C3  <0> A   1      -2.066   4.268  45.924  0.00  0.00    +0.042 A 
ATOM      4  C4  <0> A   1      -3.262   4.691  46.507  0.00  0.00    +0.005 A 
ATOM      5  C5  <0> A   1      -4.468   4.147  46.017  0.00  0.00    -0.041 A 
ATOM      6  C6  <0> A   1      -4.411   3.218  44.979  0.00  0.00    +0.125 A 
ATOM      7  N1  <0> A   1      -3.253   2.859  44.461  0.00  0.00    -0.114 N 
ATOM      8  O1  <0> A   1      -3.239   1.917  43.404  0.00  0.00    -0.533 OA
ENDROOT
BRANCH   4   9
ATOM      9  C17 <0> A   1      -3.265   5.681  47.609  0.00  0.00    -0.073 A 
ATOM     10  C18 <0> A   1      -3.248   7.046  47.323  0.00  0.00    +0.083 A 
ATOM     11  C19 <0> A   1      -3.251   7.964  48.352  0.00  0.00    -0.008 A 
ATOM     12  C20 <0> A   1      -3.272   7.532  49.668  0.00  0.00    +0.114 A 
ATOM     13  C21 <0> A   1      -3.290   6.178  49.957  0.00  0.00    -0.014 A 
ATOM     14  C22 <0> A   1      -3.292   5.252  48.935  0.00  0.00    +0.064 A 
ATOM     15  F1  <0> A   1      -3.275   8.436  50.673  0.00  0.00    -0.135 F 
ENDBRANCH   4   9
BRANCH   6  16
ATOM     16  C7  <0> A   1      -5.687   2.625  44.439  0.00  0.00    +0.055 C 
ATOM     17  C8  <0> A   1      -6.167   1.512  45.372  0.00  0.00    +0.044 C 
ATOM     18  C9  <0> A   1      -6.757   3.714  44.351  0.00  0.00    +0.044 C 
ENDBRANCH   6  16
BRANCH   5  19
ATOM     19  C10 <0> A   1      -5.765   4.553  46.592  0.00  0.00    +0.002 C 
ATOM     20  C11 <0> A   1      -6.264   3.896  47.632  0.00  0.00    -0.015 C 
BRANCH  20  21
ATOM     21  C12 <0> A   1      -7.589   4.310  48.219  0.00  0.00    +0.253 C 
BRANCH  21  22
ATOM     22  O5  <0> A   1      -8.647   3.872  47.364  0.00  0.00    -0.536 OA
ATOM     23  H21 <0> A   1      -8.664   2.916  47.218  0.00  0.00    +0.367 HD
ENDBRANCH  21  22
BRANCH  21  24
ATOM     24  C13 <0> A   1      -7.755   3.677  49.601  0.00  0.00    -0.040 C 
BRANCH  24  25
ATOM     25  C14 <0> A   1      -6.406   3.664  50.323  0.00  0.00    +0.232 C 
BRANCH  25  26
ATOM     26  O4  <0> A   1      -6.241   4.886  51.045  0.00  0.00    -0.528 OA
ATOM     27  H20 <0> A   1      -5.717   5.551  50.579  0.00  0.00    +0.351 HD
ENDBRANCH  25  26
BRANCH  25  28
ATOM     28  C15 <0> A   1      -6.360   2.485  51.297  0.00  0.00    -0.101 C 
BRANCH  28  29
ATOM     29  C16 <0> A   1      -4.960   1.927  51.343  0.00  0.00    +0.491 C 
ATOM     30  O2  <0> A   1      -4.779   0.726  51.234  0.00  0.00    -0.681 OA
ATOM     31  O3  <0> A   1      -4.010   2.676  51.490  0.00  0.00    -0.712 OA
ENDBRANCH  28  29
ENDBRANCH  25  28
ENDBRANCH  24  25
ENDBRANCH  21  24
ENDBRANCH  20  21
ENDBRANCH   5  19
TORSDOF 10
ENDMDL
MODEL 9
REMARK VINA RESULT:      -7.1     16.896     21.442
REMARK  Name = CHEMBL142436
REMARK  13 active torsions:
REMARK  status: ('A' for Active; 'I' for Inactive)
REMARK    1  A    between atoms: C1_1  and  C2_2
REMARK    2  A    between atoms: C4_4  and  C17_24
REMARK    3  A    between atoms: C5_5  and  C10_12
REMARK    4  A    between atoms: C6_6  and  C7_9
REMARK    5  A    between atoms: C7_9  and  C8_10
REMARK    6  A    between atoms: C7_9  and  C9_11
REMARK    7  A    between atoms: C11_13  and  C12_14
REMARK    8  A    between atoms: C12_14  and  C13_15
REMARK    9  A    between atoms: C12_14  and  O5_23
REMARK   10  A    between atoms: C13_15  and  C14_16
REMARK   11  A    between atoms: C14_16  and  C15_18
REMARK   12  A    between atoms: C14_16  and  O4_22
REMARK   13  A    between atoms: C15_18  and  C16_19
REMARK                            x       y       z     vdW  Elec       q    Type
REMARK                         _______ _______ _______ _____ _____    ______ ____
ROOT
ATOM      1  C1  <0> A   1     -27.013  -0.742  52.885  0.00  0.00    +0.156 C 
ATOM      2  C2  <0> A   1     -26.449  -2.053  52.401  0.00  0.00    +0.101 A 
ATOM      3  C3  <0> A   1     -27.285  -3.143  52.269  0.00  0.00    +0.042 A 
ATOM      4  C4  <0> A   1     -26.758  -4.355  51.819  0.00  0.00    +0.005 A 
ATOM      5  C5  <0> A   1     -25.381  -4.410  51.519  0.00  0.00    -0.041 A 
ATOM      6  C6  <0> A   1     -24.613  -3.258  51.683  0.00  0.00    +0.125 A 
ATOM      7  N1  <0> A   1     -25.164  -2.138  52.106  0.00  0.00    -0.114 N 
ATOM      8  O1  <0> A   1     -24.350  -0.988  52.255  0.00  0.00    -0.533 OA
ENDROOT
BRANCH   4   9
ATOM      9  C17 <0> A   1     -27.621  -5.549  51.662  0.00  0.00    -0.073 A 
ATOM     10  C18 <0> A   1     -28.041  -6.261  52.785  0.00  0.00    +0.083 A 
ATOM     11  C19 <0> A   1     -28.844  -7.372  52.635  0.00  0.00    -0.008 A 
ATOM     12  C20 <0> A   1     -29.235  -7.780  51.370  0.00  0.00    +0.114 A 
ATOM     13  C21 <0> A   1     -28.821  -7.076  50.251  0.00  0.00    -0.014 A 
ATOM     14  C22 <0> A   1     -28.022  -5.961  50.392  0.00  0.00    +0.064 A 
ATOM     15  F1  <0> A   1     -30.022  -8.870  51.227  0.00  0.00    -0.135 F 
ENDBRANCH   4   9
BRANCH   6  16
ATOM     16  C7  <0> A   1     -23.140  -3.293  51.368  0.00  0.00    +0.055 C 
ATOM     17  C8  <0> A   1     -22.802  -2.173  50.382  0.00  0.00    +0.044 C 
ATOM     18  C9  <0> A   1     -22.339  -3.098  52.657  0.00  0.00    +0.044 C 
ENDBRANCH   6  16
BRANCH   5  19
ATOM     19  C10 <0> A   1     -24.765  -5.662  51.039  0.00  0.00    +0.002 C 
ATOM     20  C11 <0> A   1     -24.523  -6.651  51.892  0.00  0.00    -0.015 C 
BRANCH  20  21
ATOM     21  C12 <0> A   1     -23.894  -7.930  51.403  0.00  0.00    +0.253 C 
BRANCH  21  22
ATOM     22  O5  <0> A   1     -23.176  -8.547  52.473  0.00  0.00    -0.536 OA
ATOM     23  H21 <0> A   1     -23.503  -8.313  53.353  0.00  0.00    +0.367 HD
ENDBRANCH  21  22
BRANCH  21  24
ATOM     24  C13 <0> A   1     -24.986  -8.879  50.907  0.00  0.00    -0.040 C 
BRANCH  24  25
ATOM     25  C14 <0> A   1     -24.371  -9.921  49.971  0.00  0.00    +0.232 C 
BRANCH  25  26
ATOM     26  O4  <0> A   1     -22.998  -9.600  49.738  0.00  0.00    -0.528 OA
ATOM     27  H20 <0> A   1     -22.488 -10.320  49.343  0.00  0.00    +0.351 HD
ENDBRANCH  25  26
BRANCH  25  28
ATOM     28  C15 <0> A   1     -24.470 -11.306  50.614  0.00  0.00    -0.101 C 
BRANCH  28  29
ATOM     29  C16 <0> A   1     -24.390 -12.364  49.542  0.00  0.00    +0.491 C 
ATOM     30  O2  <0> A   1     -23.610 -12.233  48.614  0.00  0.00    -0.681 OA
ATOM     31  O3  <0> A   1     -25.105 -13.349  49.605  0.00  0.00    -0.712 OA
ENDBRANCH  28  29
ENDBRANCH  25  28
ENDBRANCH  24  25
ENDBRANCH  21  24
ENDBRANCH  20  21
ENDBRANCH   5  19
TORSDOF 10
ENDMDL
MODEL 10
REMARK VINA RESULT:      -7.1     16.546     19.190
REMARK  Name = CHEMBL142436
REMARK  13 active torsions:
REMARK  status: ('A' for Active; 'I' for Inactive)
REMARK    1  A    between atoms: C1_1  and  C2_2
REMARK    2  A    between atoms: C4_4  and  C17_24
REMARK    3  A    between atoms: C5_5  and  C10_12
REMARK    4  A    between atoms: C6_6  and  C7_9
REMARK    5  A    between atoms: C7_9  and  C8_10
REMARK    6  A    between atoms: C7_9  and  C9_11
REMARK    7  A    between atoms: C11_13  and  C12_14
REMARK    8  A    between atoms: C12_14  and  C13_15
REMARK    9  A    between atoms: C12_14  and  O5_23
REMARK   10  A    between atoms: C13_15  and  C14_16
REMARK   11  A    between atoms: C14_16  and  C15_18
REMARK   12  A    between atoms: C14_16  and  O4_22
REMARK   13  A    between atoms: C15_18  and  C16_19
REMARK                            x       y       z     vdW  Elec       q    Type
REMARK                         _______ _______ _______ _____ _____    ______ ____
ROOT
ATOM      1  C1  <0> A   1     -29.211  -3.446  50.683  0.00  0.00    +0.156 C 
ATOM      2  C2  <0> A   1     -27.714  -3.557  50.822  0.00  0.00    +0.101 A 
ATOM      3  C3  <0> A   1     -27.114  -4.796  50.722  0.00  0.00    +0.042 A 
ATOM      4  C4  <0> A   1     -25.727  -4.893  50.850  0.00  0.00    +0.005 A 
ATOM      5  C5  <0> A   1     -24.997  -3.708  51.079  0.00  0.00    -0.041 A 
ATOM      6  C6  <0> A   1     -25.688  -2.501  51.166  0.00  0.00    +0.125 A 
ATOM      7  N1  <0> A   1     -26.999  -2.466  51.032  0.00  0.00    -0.114 N 
ATOM      8  O1  <0> A   1     -27.663  -1.219  51.121  0.00  0.00    -0.533 OA
ENDROOT
BRANCH   4   9
ATOM      9  C17 <0> A   1     -25.043  -6.203  50.750  0.00  0.00    -0.073 A 
ATOM     10  C18 <0> A   1     -24.633  -6.869  51.905  0.00  0.00    +0.083 A 
ATOM     11  C19 <0> A   1     -23.996  -8.088  51.806  0.00  0.00    -0.008 A 
ATOM     12  C20 <0> A   1     -23.766  -8.653  50.562  0.00  0.00    +0.114 A 
ATOM     13  C21 <0> A   1     -24.172  -7.996  49.412  0.00  0.00    -0.014 A 
ATOM     14  C22 <0> A   1     -24.814  -6.779  49.501  0.00  0.00    +0.064 A 
ATOM     15  F1  <0> A   1     -23.142  -9.849  50.471  0.00  0.00    -0.135 F 
ENDBRANCH   4   9
BRANCH   6  16
ATOM     16  C7  <0> A   1     -24.928  -1.222  51.410  0.00  0.00    +0.055 C 
ATOM     17  C8  <0> A   1     -25.179  -0.252  50.254  0.00  0.00    +0.044 C 
ATOM     18  C9  <0> A   1     -25.403  -0.590  52.719  0.00  0.00    +0.044 C 
ENDBRANCH   6  16
BRANCH   5  19
ATOM     19  C10 <0> A   1     -23.529  -3.746  51.224  0.00  0.00    +0.002 C 
ATOM     20  C11 <0> A   1     -22.974  -3.534  52.412  0.00  0.00    -0.015 C 
BRANCH  20  21
ATOM     21  C12 <0> A   1     -21.475  -3.572  52.560  0.00  0.00    +0.253 C 
BRANCH  21  22
ATOM     22  O5  <0> A   1     -20.865  -3.365  51.285  0.00  0.00    -0.536 OA
ATOM     23  H21 <0> A   1     -21.064  -2.505  50.888  0.00  0.00    +0.367 HD
ENDBRANCH  21  22
BRANCH  21  24
ATOM     24  C13 <0> A   1     -21.029  -2.471  53.524  0.00  0.00    -0.040 C 
BRANCH  24  25
ATOM     25  C14 <0> A   1     -20.050  -3.052  54.546  0.00  0.00    +0.232 C 
BRANCH  25  26
ATOM     26  O4  <0> A   1     -20.525  -4.324  54.989  0.00  0.00    -0.528 OA
ATOM     27  H20 <0> A   1     -21.287  -4.275  55.582  0.00  0.00    +0.351 HD
ENDBRANCH  25  26
BRANCH  25  28
ATOM     28  C15 <0> A   1     -18.675  -3.217  53.897  0.00  0.00    -0.101 C 
BRANCH  28  29
ATOM     29  C16 <0> A   1     -18.155  -4.606  54.170  0.00  0.00    +0.491 C 
ATOM     30  O2  <0> A   1     -18.371  -5.505  53.375  0.00  0.00    -0.681 OA
ATOM     31  O3  <0> A   1     -17.519  -4.830  55.186  0.00  0.00    -0.712 OA
ENDBRANCH  28  29
ENDBRANCH  25  28
ENDBRANCH  24  25
ENDBRANCH  21  24
ENDBRANCH  20  21
ENDBRANCH   5  19
TORSDOF 10
ENDMDL
