REMARK VINA RESULT:      -7.0      3.070      5.860
REMARK  Name = CHEMBL100165
REMARK  16 active torsions:
REMARK  status: ('A' for Active; 'I' for Inactive)
REMARK    1  A    between atoms: C1_1  and  C2_2
REMARK    2  A    between atoms: C2_2  and  C3_3
REMARK    3  A    between atoms: C2_2  and  C4_4
REMARK    4  A    between atoms: C6_6  and  C19_25
REMARK    5  A    between atoms: C7_7  and  O1_13
REMARK    6  A    between atoms: C8_8  and  C10_10
REMARK    7  A    between atoms: C10_10  and  C11_11
REMARK    8  A    between atoms: C10_10  and  C12_12
REMARK    9  A    between atoms: O1_13  and  C13_14
REMARK   10  A    between atoms: C13_14  and  C14_15
REMARK   11  A    between atoms: C14_15  and  C15_16
REMARK   12  A    between atoms: C14_15  and  O5_24
REMARK   13  A    between atoms: C15_16  and  C16_17
REMARK   14  A    between atoms: C16_17  and  C17_19
REMARK   15  A    between atoms: C16_17  and  O4_23
REMARK   16  A    between atoms: C17_19  and  C18_20
REMARK                            x       y       z     vdW  Elec       q    Type
REMARK                         _______ _______ _______ _____ _____    ______ ____
ROOT
ATOM      1  C4  <0> A   1     -14.149   6.272  44.139  0.00  0.00    -0.081 A 
ATOM      2  C5  <0> A   1     -14.133   7.138  43.063  0.00  0.00    +0.032 A 
ATOM      3  C6  <0> A   1     -13.401   8.320  43.133  0.00  0.00    -0.063 A 
ATOM      4  C7  <0> A   1     -12.684   8.624  44.294  0.00  0.00    +0.109 A 
ATOM      5  C8  <0> A   1     -12.708   7.747  45.366  0.00  0.00    -0.085 A 
ATOM      6  C9  <0> A   1     -13.443   6.579  45.289  0.00  0.00    +0.026 A 
ENDROOT
BRANCH   3   7
ATOM      7  C19 <0> A   1     -13.381   9.253  41.979  0.00  0.00    -0.056 A 
ATOM      8  C20 <0> A   1     -14.054  10.470  42.054  0.00  0.00    +0.079 A 
ATOM      9  C21 <0> A   1     -14.033  11.335  40.979  0.00  0.00    -0.014 A 
ATOM     10  C22 <0> A   1     -13.344  10.994  39.827  0.00  0.00    +0.102 A 
ATOM     11  C23 <0> A   1     -12.673   9.784  39.748  0.00  0.00    -0.020 A 
ATOM     12  C24 <0> A   1     -12.685   8.916  40.820  0.00  0.00    +0.050 A 
ATOM     13  F1  <0> A   1     -13.326  11.844  38.776  0.00  0.00    -0.139 F 
ENDBRANCH   3   7
BRANCH   1  15
ATOM     14  C1  <0> A   1     -14.466   4.033  45.156  0.00  0.00    +0.026 C 
ATOM     15  C2  <0> A   1     -14.941   4.993  44.063  0.00  0.00    +0.023 C 
ATOM     16  C3  <0> A   1     -16.426   5.299  44.265  0.00  0.00    +0.025 C 
ENDBRANCH   1  15
BRANCH   5  17
ATOM     17  C10 <0> A   1     -11.938   8.070  46.620  0.00  0.00    +0.032 C 
ATOM     18  C11 <0> A   1     -12.853   7.914  47.836  0.00  0.00    +0.028 C 
ATOM     19  C12 <0> A   1     -10.750   7.112  46.750  0.00  0.00    +0.024 C 
ENDBRANCH   5  17
BRANCH   4  20
ATOM     20  O1  <0> A   1     -11.967   9.775  44.371  0.00  0.00    -0.316 OA
BRANCH  20  21
ATOM     21  C13 <0> A   1     -12.593  10.888  45.011  0.00  0.00    +0.149 C 
BRANCH  21  22
ATOM     22  C14 <0> A   1     -11.733  11.349  46.190  0.00  0.00    +0.225 C 
BRANCH  22  23
ATOM     23  O5  <0> A   1     -10.359  11.364  45.799  0.00  0.00    -0.531 OA
ATOM     24  H26 <0> A   1     -10.197  11.794  44.947  0.00  0.00    +0.362 HD
ENDBRANCH  22  23
BRANCH  22  25
ATOM     25  C15 <0> A   1     -12.159  12.755  46.614  0.00  0.00    -0.043 C 
BRANCH  25  26
ATOM     26  C16 <0> A   1     -12.372  12.790  48.128  0.00  0.00    +0.235 C 
BRANCH  26  27
ATOM     27  O4  <0> A   1     -12.589  14.139  48.547  0.00  0.00    -0.526 OA
ATOM     28  H25 <0> A   1     -13.435  14.280  48.995  0.00  0.00    +0.350 HD
ENDBRANCH  26  27
BRANCH  26  29
ATOM     29  C17 <0> A   1     -13.591  11.941  48.492  0.00  0.00    -0.101 C 
BRANCH  29  30
ATOM     30  C18 <0> A   1     -14.816  12.507  47.821  0.00  0.00    +0.491 C 
ATOM     31  O2  <0> A   1     -15.364  11.886  46.926  0.00  0.00    -0.680 OA
ATOM     32  O3  <0> A   1     -15.260  13.587  48.173  0.00  0.00    -0.713 OA
ENDBRANCH  29  30
ENDBRANCH  26  29
ENDBRANCH  25  26
ENDBRANCH  22  25
ENDBRANCH  21  22
ENDBRANCH  20  21
ENDBRANCH   4  20
TORSDOF 12
