REMARK VINA RESULT:      -7.1      3.457      5.908
REMARK  Name = CHEMBL331680
REMARK  15 active torsions:
REMARK  status: ('A' for Active; 'I' for Inactive)
REMARK    1  A    between atoms: C1_1  and  C2_2
REMARK    2  A    between atoms: C2_2  and  C3_3
REMARK    3  A    between atoms: C2_2  and  C4_4
REMARK    4  A    between atoms: C6_6  and  C22_30
REMARK    5  A    between atoms: C7_7  and  C16_23
REMARK    6  A    between atoms: N1_8  and  C8_9
REMARK    7  A    between atoms: C9_10  and  C10_11
REMARK    8  A    between atoms: C10_11  and  C11_13
REMARK    9  A    between atoms: C10_11  and  O4_22
REMARK   10  A    between atoms: C11_13  and  C12_14
REMARK   11  A    between atoms: C12_14  and  C13_16
REMARK   12  A    between atoms: C12_14  and  O3_21
REMARK   13  A    between atoms: C13_16  and  C14_17
REMARK   14  A    between atoms: C14_17  and  O2_19
REMARK   15  A    between atoms: O2_19  and  C15_20
REMARK                            x       y       z     vdW  Elec       q    Type
REMARK                         _______ _______ _______ _____ _____    ______ ____
ROOT
ATOM      1  C4  <0> A   1     -13.628  10.418  42.960  0.00  0.00    +0.038 C 
ATOM      2  C5  <0> A   1     -13.605  11.533  43.714  0.00  0.00    -0.017 C 
ATOM      3  C6  <0> A   1     -13.390  11.140  45.057  0.00  0.00    -0.114 C 
ATOM      4  C7  <0> A   1     -13.288   9.758  45.061  0.00  0.00    +0.101 C 
ATOM      5  N1  <0> A   1     -13.442   9.330  43.767  0.00  0.00    -0.391 N 
ENDROOT
BRANCH   4   6
ATOM      6  C16 <0> A   1     -13.061   8.903  46.243  0.00  0.00    -0.037 A 
ATOM      7  C17 <0> A   1     -14.143   8.475  47.016  0.00  0.00    +0.053 A 
ATOM      8  C18 <0> A   1     -13.925   7.675  48.118  0.00  0.00    -0.029 A 
ATOM      9  C19 <0> A   1     -12.637   7.297  48.459  0.00  0.00    +0.108 A 
ATOM     10  C20 <0> A   1     -11.559   7.718  47.695  0.00  0.00    -0.031 A 
ATOM     11  C21 <0> A   1     -11.766   8.513  46.588  0.00  0.00    +0.129 A 
ATOM     12  F1  <0> A   1     -12.430   6.514  49.541  0.00  0.00    -0.141 F 
ENDBRANCH   4   6
BRANCH   3  13
ATOM     13  C22 <0> A   1     -13.294  12.035  46.233  0.00  0.00    +0.208 A 
ATOM     14  C23 <0> A   1     -14.416  12.249  47.034  0.00  0.00    -0.030 A 
ATOM     15  C24 <0> A   1     -14.309  13.088  48.129  0.00  0.00    +0.064 A 
ATOM     16  C25 <0> A   1     -13.084  13.687  48.388  0.00  0.00    -0.052 A 
ATOM     17  C26 <0> A   1     -12.012  13.431  47.554  0.00  0.00    +0.258 A 
ATOM     18  N2  <0> A   1     -12.138  12.623  46.519  0.00  0.00    -0.481 NA
ENDBRANCH   3  13
BRANCH   1  20
ATOM     19  C1  <0> A   1     -14.679  11.572  41.033  0.00  0.00    +0.041 C 
ATOM     20  C2  <0> A   1     -13.832  10.374  41.467  0.00  0.00    +0.051 C 
ATOM     21  C3  <0> A   1     -12.473  10.429  40.766  0.00  0.00    +0.033 C 
ENDBRANCH   1  20
BRANCH   5  22
ATOM     22  C8  <0> A   1     -13.410   8.002  43.343  0.00  0.00    +0.201 C 
ATOM     23  C9  <0> A   1     -14.417   7.196  43.625  0.00  0.00    -0.054 C 
BRANCH  23  24
ATOM     24  C10 <0> A   1     -14.382   5.761  43.166  0.00  0.00    +0.268 C 
BRANCH  24  25
ATOM     25  O4  <0> A   1     -13.026   5.319  43.085  0.00  0.00    -0.538 OA
ATOM     26  H21 <0> A   1     -12.445   5.919  42.598  0.00  0.00    +0.370 HD
ENDBRANCH  24  25
BRANCH  24  27
ATOM     27  C11 <0> A   1     -15.145   4.888  44.166  0.00  0.00    -0.015 C 
BRANCH  27  28
ATOM     28  C12 <0> A   1     -16.261   5.709  44.814  0.00  0.00    +0.233 C 
BRANCH  28  29
ATOM     29  O3  <0> A   1     -17.492   5.459  44.132  0.00  0.00    -0.530 OA
ATOM     30  H20 <0> A   1     -17.482   4.665  43.580  0.00  0.00    +0.366 HD
ENDBRANCH  28  29
BRANCH  28  31
ATOM     31  C13 <0> A   1     -16.401   5.309  46.283  0.00  0.00    +0.073 C 
BRANCH  31  32
ATOM     32  C14 <0> A   1     -17.303   6.291  46.987  0.00  0.00    +0.456 C 
ATOM     33  O1  <0> A   1     -18.196   6.832  46.380  0.00  0.00    -0.486 OA
BRANCH  32  34
ATOM     34  O2  <0> A   1     -17.113   6.562  48.288  0.00  0.00    -0.359 OA
ATOM     35  C15 <0> A   1     -17.770   7.718  48.812  0.00  0.00    +0.258 C 
ENDBRANCH  32  34
ENDBRANCH  31  32
ENDBRANCH  28  31
ENDBRANCH  27  28
ENDBRANCH  24  27
ENDBRANCH  23  24
ENDBRANCH   5  22
TORSDOF 12
