REMARK VINA RESULT:      -7.1     13.549     17.628
REMARK  Name = CHEMBL83483
REMARK  14 active torsions:
REMARK  status: ('A' for Active; 'I' for Inactive)
REMARK    1  A    between atoms: C1_1  and  C2_2
REMARK    2  A    between atoms: C2_2  and  C3_3
REMARK    3  A    between atoms: C3_3  and  C4_4
REMARK    4  A    between atoms: C3_3  and  C5_5
REMARK    5  A    between atoms: C3_3  and  C6_6
REMARK    6  A    between atoms: C6_6  and  O2_8
REMARK    7  A    between atoms: O2_8  and  C7_9
REMARK    8  A    between atoms: C9_12  and  C24_35
REMARK    9  A    between atoms: C9_12  and  C25_36
REMARK   10  A    between atoms: C12_17  and  C17_24
REMARK   11  A    between atoms: C13_19  and  C16_23
REMARK   12  A    between atoms: C17_24  and  C18_25
REMARK   13  A    between atoms: C18_25  and  C19_26
REMARK   14  A    between atoms: C21_28  and  O6_34
REMARK                            x       y       z     vdW  Elec       q    Type
REMARK                         _______ _______ _______ _____ _____    ______ ____
ROOT
ATOM      1  C7  <0> A   1     -23.168  -0.689  52.430  0.00  0.00    +0.187 C 
ATOM      2  C8  <0> A   1     -22.005   0.287  52.169  0.00  0.00    -0.010 C 
ATOM      3  C9  <0> A   1     -22.516   1.579  51.538  0.00  0.00    +0.130 C 
ATOM      4  O3  <0> A   1     -23.402   1.334  50.460  0.00  0.00    -0.370 OA
ATOM      5  C10 <0> A   1     -24.404   0.344  50.552  0.00  0.00    +0.218 C 
ATOM      6  C11 <0> A   1     -23.832  -0.978  51.091  0.00  0.00    -0.016 C 
ATOM      7  C12 <0> A   1     -24.918  -2.028  51.098  0.00  0.00    -0.002 C 
ATOM      8  C13 <0> A   1     -26.200  -1.620  51.804  0.00  0.00    -0.016 C 
ATOM      9  C14 <0> A   1     -26.689  -0.249  51.351  0.00  0.00    +0.020 C 
ATOM     10  C15 <0> A   1     -25.567   0.785  51.437  0.00  0.00    -0.013 C 
ATOM     11  C16 <0> A   1     -26.058  -1.679  53.322  0.00  0.00    +0.014 C 
ATOM     12  C24 <0> A   1     -21.294   2.341  50.980  0.00  0.00    +0.055 C 
ATOM     13  C25 <0> A   1     -23.162   2.467  52.603  0.00  0.00    +0.016 C 
ENDROOT
BRANCH   1  14
ATOM     14  O2  <0> A   1     -22.615  -1.865  53.023  0.00  0.00    -0.333 OA
BRANCH  14  15
ATOM     15  C6  <0> A   1     -22.243  -1.780  54.309  0.00  0.00    +0.471 C 
ATOM     16  O1  <0> A   1     -22.925  -1.171  55.098  0.00  0.00    -0.507 OA
BRANCH  15  17
ATOM     17  C3  <0> A   1     -20.972  -2.446  54.770  0.00  0.00    -0.056 C 
ATOM     18  C4  <0> A   1     -21.082  -2.778  56.260  0.00  0.00    +0.057 C 
ATOM     19  C5  <0> A   1     -19.789  -1.501  54.544  0.00  0.00    +0.077 C 
BRANCH  17  21
ATOM     20  C1  <0> A   1     -19.553  -3.562  53.044  0.00  0.00    +0.023 C 
ATOM     21  C2  <0> A   1     -20.753  -3.735  53.976  0.00  0.00    +0.033 C 
ENDBRANCH  17  21
ENDBRANCH  15  17
ENDBRANCH  14  15
ENDBRANCH   1  14
BRANCH   7  22
ATOM     22  C17 <0> A   1     -24.432  -3.379  51.619  0.00  0.00    +0.037 C 
BRANCH  22  23
ATOM     23  C18 <0> A   1     -25.458  -4.459  51.274  0.00  0.00    +0.044 C 
BRANCH  23  24
ATOM     24  C19 <0> A   1     -24.732  -5.738  50.854  0.00  0.00    +0.196 C 
ATOM     25  C20 <0> A   1     -25.557  -6.469  49.791  0.00  0.00    +0.037 C 
ATOM     26  C21 <0> A   1     -24.847  -7.769  49.402  0.00  0.00    +0.182 C 
ATOM     27  C22 <0> A   1     -24.695  -8.645  50.653  0.00  0.00    +0.016 C 
ATOM     28  C23 <0> A   1     -24.052  -7.813  51.740  0.00  0.00    +0.495 C 
ATOM     29  O4  <0> A   1     -23.105  -8.230  52.365  0.00  0.00    -0.447 OA
ATOM     30  O5  <0> A   1     -24.565  -6.590  51.992  0.00  0.00    -0.361 OA
BRANCH  26  31
ATOM     31  O6  <0> A   1     -23.557  -7.468  48.866  0.00  0.00    -0.563 OA
ATOM     32  H36 <0> A   1     -23.504  -6.606  48.430  0.00  0.00    +0.386 HD
ENDBRANCH  26  31
ENDBRANCH  23  24
ENDBRANCH  22  23
ENDBRANCH   7  22
TORSDOF 8
