REMARK VINA RESULT:      -8.5     20.114     24.391
REMARK  Name = CHEMBL310463
REMARK  17 active torsions:
REMARK  status: ('A' for Active; 'I' for Inactive)
REMARK    1  A    between atoms: C1_1  and  C2_2
REMARK    2  A    between atoms: C2_2  and  C3_3
REMARK    3  A    between atoms: C3_3  and  C4_4
REMARK    4  A    between atoms: C3_3  and  C5_5
REMARK    5  A    between atoms: C3_3  and  C6_6
REMARK    6  A    between atoms: C6_6  and  O2_8
REMARK    7  A    between atoms: O2_8  and  C7_9
REMARK    8  A    between atoms: C9_12  and  C33_48
REMARK    9  A    between atoms: C10_14  and  O6_37
REMARK   10  A    between atoms: C13_19  and  C18_26
REMARK   11  A    between atoms: C14_21  and  C17_25
REMARK   12  A    between atoms: C18_26  and  C19_27
REMARK   13  A    between atoms: C19_27  and  C20_28
REMARK   14  A    between atoms: C22_30  and  O5_36
REMARK   15  A    between atoms: O6_37  and  C25_38
REMARK   16  A    between atoms: N1_40  and  C26_41
REMARK   17  A    between atoms: C26_41  and  C27_42
REMARK                            x       y       z     vdW  Elec       q    Type
REMARK                         _______ _______ _______ _____ _____    ______ ____
ROOT
ATOM      1  C7  <0> A   1     -24.220   0.239  52.387  0.00  0.00    +0.185 C 
ATOM      2  C8  <0> A   1     -24.695  -0.061  50.955  0.00  0.00    +0.011 C 
ATOM      3  C9  <0> A   1     -26.162  -0.485  50.983  0.00  0.00    -0.015 C 
ATOM      4  C10 <0> A   1     -26.308  -1.747  51.833  0.00  0.00    +0.207 C 
ATOM      5  C11 <0> A   1     -25.809  -1.485  53.248  0.00  0.00    +0.015 C 
ATOM      6  C12 <0> A   1     -24.345  -1.018  53.232  0.00  0.00    +0.025 C 
ATOM      7  C13 <0> A   1     -23.883  -0.874  54.670  0.00  0.00    -0.006 C 
ATOM      8  C14 <0> A   1     -24.754   0.027  55.527  0.00  0.00    -0.019 C 
ATOM      9  C15 <0> A   1     -26.239  -0.266  55.381  0.00  0.00    +0.018 C 
ATOM     10  C16 <0> A   1     -26.656  -0.403  53.919  0.00  0.00    +0.022 C 
ATOM     11  C17 <0> A   1     -24.457   1.505  55.289  0.00  0.00    +0.015 C 
ATOM     12  C33 <0> A   1     -26.637  -0.773  49.557  0.00  0.00    +0.030 C 
ENDROOT
BRANCH   1  13
ATOM     13  O2  <0> A   1     -22.865   0.687  52.299  0.00  0.00    -0.334 OA
BRANCH  13  14
ATOM     14  C6  <0> A   1     -22.667   2.010  52.194  0.00  0.00    +0.471 C 
ATOM     15  O1  <0> A   1     -23.609   2.766  52.219  0.00  0.00    -0.508 OA
BRANCH  14  16
ATOM     16  C3  <0> A   1     -21.268   2.553  52.047  0.00  0.00    -0.057 C 
ATOM     17  C4  <0> A   1     -20.279   1.603  52.724  0.00  0.00    +0.056 C 
ATOM     18  C5  <0> A   1     -21.185   3.932  52.703  0.00  0.00    +0.077 C 
BRANCH  16  20
ATOM     19  C1  <0> A   1     -21.174   4.110  50.095  0.00  0.00    +0.023 C 
ATOM     20  C2  <0> A   1     -20.924   2.674  50.561  0.00  0.00    +0.033 C 
ENDBRANCH  16  20
ENDBRANCH  14  16
ENDBRANCH  13  14
ENDBRANCH   1  13
BRANCH   7  21
ATOM     21  C18 <0> A   1     -22.418  -0.454  54.773  0.00  0.00    +0.035 C 
BRANCH  21  22
ATOM     22  C19 <0> A   1     -21.674  -1.419  55.700  0.00  0.00    +0.043 C 
BRANCH  22  23
ATOM     23  C20 <0> A   1     -21.175  -2.619  54.893  0.00  0.00    +0.196 C 
ATOM     24  C21 <0> A   1     -20.004  -3.278  55.628  0.00  0.00    +0.037 C 
ATOM     25  C22 <0> A   1     -19.480  -4.453  54.798  0.00  0.00    +0.182 C 
ATOM     26  C23 <0> A   1     -19.023  -3.930  53.429  0.00  0.00    +0.015 C 
ATOM     27  C24 <0> A   1     -20.150  -3.117  52.831  0.00  0.00    +0.495 C 
ATOM     28  O3  <0> A   1     -20.514  -3.304  51.695  0.00  0.00    -0.447 OA
ATOM     29  O4  <0> A   1     -20.737  -2.179  53.603  0.00  0.00    -0.361 OA
BRANCH  25  30
ATOM     30  O5  <0> A   1     -20.521  -5.416  54.620  0.00  0.00    -0.563 OA
ATOM     31  H38 <0> A   1     -20.207  -6.292  54.357  0.00  0.00    +0.386 HD
ENDBRANCH  25  30
ENDBRANCH  22  23
ENDBRANCH  21  22
ENDBRANCH   7  21
BRANCH   4  32
ATOM     32  O6  <0> A   1     -25.558  -2.811  51.242  0.00  0.00    -0.353 OA
BRANCH  32  33
ATOM     33  C25 <0> A   1     -26.017  -4.062  51.433  0.00  0.00    +0.647 C 
ATOM     34  O7  <0> A   1     -27.207  -4.293  51.347  0.00  0.00    -0.565 OA
ATOM     35  N1  <0> A   1     -25.156  -5.059  51.720  0.00  0.00    -0.707 N 
ATOM     36  H39 <0> A   1     -24.206  -4.875  51.788  0.00  0.00    +0.407 HD
BRANCH  35  37
ATOM     37  C26 <0> A   1     -25.655  -6.420  51.928  0.00  0.00    +0.341 C 
BRANCH  37  38
ATOM     38  C27 <0> A   1     -24.809  -7.391  51.144  0.00  0.00    -0.115 A 
ATOM     39  C28 <0> A   1     -24.786  -7.330  49.764  0.00  0.00    +0.028 A 
ATOM     40  C29 <0> A   1     -24.009  -8.220  49.046  0.00  0.00    +0.004 A 
ATOM     41  C30 <0> A   1     -23.255  -9.171  49.709  0.00  0.00    +0.017 A 
ATOM     42  C31 <0> A   1     -23.278  -9.232  51.089  0.00  0.00    +0.004 A 
ATOM     43  C32 <0> A   1     -24.051  -8.338  51.807  0.00  0.00    +0.028 A 
ENDBRANCH  37  38
ENDBRANCH  35  37
ENDBRANCH  32  33
ENDBRANCH   4  32
TORSDOF 12
