REMARK VINA RESULT:      -7.5     10.955     14.191
REMARK  Name = CHEMBL250383
REMARK  17 active torsions:
REMARK  status: ('A' for Active; 'I' for Inactive)
REMARK    1  A    between atoms: C1_1  and  C2_2
REMARK    2  A    between atoms: C2_2  and  C3_3
REMARK    3  A    between atoms: C2_2  and  C4_4
REMARK    4  A    between atoms: C5_5  and  C19_29
REMARK    5  A    between atoms: N2_7  and  C13_22
REMARK    6  A    between atoms: C6_8  and  O1_9
REMARK    7  A    between atoms: O1_9  and  C7_10
REMARK    8  A    between atoms: C7_10  and  C8_11
REMARK    9  A    between atoms: C8_11  and  C9_13
REMARK   10  A    between atoms: C8_11  and  O5_21
REMARK   11  A    between atoms: C9_13  and  C10_14
REMARK   12  A    between atoms: C10_14  and  C11_16
REMARK   13  A    between atoms: C10_14  and  O4_20
REMARK   14  A    between atoms: C11_16  and  C12_17
REMARK   15  A    between atoms: N3_31  and  C20_32
REMARK   16  A    between atoms: N3_31  and  C21_33
REMARK   17  A    between atoms: C21_33  and  C22_34
REMARK                            x       y       z     vdW  Elec       q    Type
REMARK                         _______ _______ _______ _____ _____    ______ ____
ROOT
ATOM      1  C4  <0> A   1      -3.259   6.405  48.822  0.00  0.00    -0.159 C 
ATOM      2  C5  <0> A   1      -3.060   7.165  49.994  0.00  0.00    +0.047 C 
ATOM      3  N1  <0> A   1      -3.652   6.541  50.994  0.00  0.00    -0.236 NA
ATOM      4  N2  <0> A   1      -4.243   5.374  50.492  0.00  0.00    -0.325 N 
ATOM      5  C6  <0> A   1      -3.992   5.314  49.155  0.00  0.00    +0.260 C 
ENDROOT
BRANCH   4   6
ATOM      6  C13 <0> A   1      -4.968   4.433  51.235  0.00  0.00    +0.127 A 
ATOM      7  C14 <0> A   1      -6.268   4.713  51.632  0.00  0.00    +0.066 A 
ATOM      8  C15 <0> A   1      -6.982   3.784  52.364  0.00  0.00    +0.008 A 
ATOM      9  C16 <0> A   1      -6.401   2.573  52.701  0.00  0.00    +0.108 A 
ATOM     10  C17 <0> A   1      -5.104   2.291  52.305  0.00  0.00    +0.017 A 
ATOM     11  C18 <0> A   1      -4.389   3.215  51.569  0.00  0.00    +0.066 A 
ATOM     12  F1  <0> A   1      -7.100   1.665  53.416  0.00  0.00    -0.132 F 
ENDBRANCH   4   6
BRANCH   2  13
ATOM     13  C19 <0> A   1      -2.316   8.438  50.086  0.00  0.00    +0.600 C 
ATOM     14  O6  <0> A   1      -2.760   9.441  49.561  0.00  0.00    -0.516 OA
ATOM     15  N3  <0> A   1      -1.145   8.487  50.751  0.00  0.00    -0.600 N 
ATOM     16  C20 <0> A   1      -0.560   7.260  51.298  0.00  0.00    +0.296 C 
BRANCH  15  17
ATOM     17  C21 <0> A   1      -0.456   9.769  50.927  0.00  0.00    +0.287 C 
BRANCH  17  18
ATOM     18  C22 <0> A   1      -0.498  10.172  52.402  0.00  0.00    -0.027 C 
ATOM     19  C23 <0> A   1       0.619  11.177  52.689  0.00  0.00    +0.009 C 
ATOM     20  C24 <0> A   1       0.577  11.579  54.165  0.00  0.00    +0.001 C 
ATOM     21  C25 <0> A   1      -0.777  12.218  54.480  0.00  0.00    +0.000 C 
ATOM     22  C26 <0> A   1      -1.895  11.214  54.194  0.00  0.00    +0.004 C 
ATOM     23  C27 <0> A   1      -1.852  10.811  52.718  0.00  0.00    +0.017 C 
ENDBRANCH  17  18
ENDBRANCH  15  17
ENDBRANCH   2  13
BRANCH   1  25
ATOM     24  C1  <0> A   1      -2.043   5.533  46.845  0.00  0.00    +0.020 C 
ATOM     25  C2  <0> A   1      -2.753   6.748  47.445  0.00  0.00    +0.078 C 
ATOM     26  C3  <0> A   1      -3.932   7.143  46.552  0.00  0.00    +0.028 C 
ENDBRANCH   1  25
BRANCH   5  27
ATOM     27  O1  <0> A   1      -4.399   4.336  48.307  0.00  0.00    -0.283 OA
BRANCH  27  28
ATOM     28  C7  <0> A   1      -5.803   4.077  48.240  0.00  0.00    +0.154 C 
BRANCH  28  29
ATOM     29  C8  <0> A   1      -6.263   4.130  46.782  0.00  0.00    +0.230 C 
BRANCH  29  30
ATOM     30  O5  <0> A   1      -6.826   5.413  46.506  0.00  0.00    -0.527 OA
ATOM     31  H17 <0> A   1      -6.298   5.953  45.902  0.00  0.00    +0.365 HD
ENDBRANCH  29  30
BRANCH  29  32
ATOM     32  C9  <0> A   1      -5.065   3.889  45.860  0.00  0.00    -0.041 C 
BRANCH  32  33
ATOM     33  C10 <0> A   1      -5.554   3.322  44.526  0.00  0.00    +0.236 C 
BRANCH  33  34
ATOM     34  O4  <0> A   1      -4.478   2.647  43.872  0.00  0.00    -0.526 OA
ATOM     35  H16 <0> A   1      -4.665   2.402  42.956  0.00  0.00    +0.351 HD
ENDBRANCH  33  34
BRANCH  33  36
ATOM     36  C11 <0> A   1      -6.696   2.336  44.779  0.00  0.00    -0.101 C 
BRANCH  36  37
ATOM     37  C12 <0> A   1      -6.254   0.948  44.393  0.00  0.00    +0.491 C 
ATOM     38  O2  <0> A   1      -6.744   0.399  43.422  0.00  0.00    -0.680 OA
ATOM     39  O3  <0> A   1      -5.404   0.373  45.054  0.00  0.00    -0.712 OA
ENDBRANCH  36  37
ENDBRANCH  33  36
ENDBRANCH  32  33
ENDBRANCH  29  32
ENDBRANCH  28  29
ENDBRANCH  27  28
ENDBRANCH   5  27
TORSDOF 14
