REMARK VINA RESULT:      -7.1     16.070     19.057
REMARK  Name = CHEMBL101512
REMARK  10 active torsions:
REMARK  status: ('A' for Active; 'I' for Inactive)
REMARK    1  A    between atoms: C5_5  and  O1_15
REMARK    2  A    between atoms: C6_6  and  C7_7
REMARK    3  A    between atoms: O1_15  and  C14_16
REMARK    4  A    between atoms: C14_16  and  C15_17
REMARK    5  A    between atoms: C15_17  and  C16_18
REMARK    6  A    between atoms: C15_17  and  O5_26
REMARK    7  A    between atoms: C16_18  and  C17_19
REMARK    8  A    between atoms: C17_19  and  C18_21
REMARK    9  A    between atoms: C17_19  and  O4_25
REMARK   10  A    between atoms: C18_21  and  C19_22
REMARK                            x       y       z     vdW  Elec       q    Type
REMARK                         _______ _______ _______ _____ _____    ______ ____
ROOT
ATOM      1  C1  <0> A   1     -27.563   0.191  50.593  0.00  0.00    +0.083 A 
ATOM      2  C2  <0> A   1     -26.853   1.313  50.977  0.00  0.00    -0.036 A 
ATOM      3  C3  <0> A   1     -25.480   1.246  51.141  0.00  0.00    +0.071 A 
ATOM      4  C4  <0> A   1     -24.807   0.058  50.921  0.00  0.00    -0.052 A 
ATOM      5  C5  <0> A   1     -25.506  -1.075  50.536  0.00  0.00    +0.141 A 
ATOM      6  C6  <0> A   1     -26.894  -1.012  50.370  0.00  0.00    -0.068 A 
ATOM      7 Cl1  <0> A   1     -23.085  -0.015  51.128  0.00  0.00    -0.034 Cl
ATOM      8 Cl2  <0> A   1     -27.686   2.810  51.254  0.00  0.00    -0.050 Cl
ENDROOT
BRANCH   6   9
ATOM      9  C7  <0> A   1     -27.649  -2.215  49.960  0.00  0.00    +0.082 C 
ATOM     10  C8  <0> A   1     -28.232  -2.980  50.878  0.00  0.00    -0.127 C 
ATOM     11  C9  <0> A   1     -28.259  -2.560  52.332  0.00  0.00    +0.074 C 
ATOM     12  C10 <0> A   1     -29.705  -2.643  52.834  0.00  0.00    +0.018 C 
ATOM     13  C11 <0> A   1     -30.255  -4.046  52.572  0.00  0.00    +0.006 C 
ATOM     14  C12 <0> A   1     -30.307  -4.310  51.066  0.00  0.00    +0.018 C 
ATOM     15  C13 <0> A   1     -28.889  -4.287  50.496  0.00  0.00    +0.073 C 
ATOM     16  F1  <0> A   1     -27.747  -2.539  48.651  0.00  0.00    -0.131 F 
ENDBRANCH   6   9
BRANCH   5  17
ATOM     17  O1  <0> A   1     -24.846  -2.243  50.320  0.00  0.00    -0.307 OA
BRANCH  17  18
ATOM     18  C14 <0> A   1     -24.581  -3.059  51.463  0.00  0.00    +0.160 C 
BRANCH  18  19
ATOM     19  C15 <0> A   1     -24.224  -4.476  51.006  0.00  0.00    +0.229 C 
BRANCH  19  20
ATOM     20  O5  <0> A   1     -23.141  -4.972  51.796  0.00  0.00    -0.530 OA
ATOM     21  H22 <0> A   1     -22.828  -5.847  51.529  0.00  0.00    +0.364 HD
ENDBRANCH  19  20
BRANCH  19  22
ATOM     22  C16 <0> A   1     -25.440  -5.389  51.177  0.00  0.00    -0.040 C 
BRANCH  22  23
ATOM     23  C17 <0> A   1     -25.296  -6.605  50.261  0.00  0.00    +0.235 C 
BRANCH  23  24
ATOM     24  O4  <0> A   1     -24.048  -6.535  49.569  0.00  0.00    -0.527 OA
ATOM     25  H21 <0> A   1     -23.302  -6.893  50.068  0.00  0.00    +0.351 HD
ENDBRANCH  23  24
BRANCH  23  26
ATOM     26  C18 <0> A   1     -25.343  -7.883  51.100  0.00  0.00    -0.100 C 
BRANCH  26  27
ATOM     27  C19 <0> A   1     -23.938  -8.350  51.384  0.00  0.00    +0.491 C 
ATOM     28  O2  <0> A   1     -23.425  -9.202  50.677  0.00  0.00    -0.680 OA
ATOM     29  O3  <0> A   1     -23.315  -7.877  52.319  0.00  0.00    -0.713 OA
ENDBRANCH  26  27
ENDBRANCH  23  26
ENDBRANCH  22  23
ENDBRANCH  19  22
ENDBRANCH  18  19
ENDBRANCH  17  18
ENDBRANCH   5  17
TORSDOF 10
