REMARK VINA RESULT:      -7.5      9.824     11.140
REMARK  Name = CHEMBL301952
REMARK  4 active torsions:
REMARK  status: ('A' for Active; 'I' for Inactive)
REMARK    1  A    between atoms: C6_6  and  C7_7
REMARK    2  A    between atoms: C12_12  and  C13_13
REMARK    3  A    between atoms: C14_14  and  C15_15
REMARK    4  A    between atoms: C17_17  and  O3_23
REMARK                            x       y       z     vdW  Elec       q    Type
REMARK                         _______ _______ _______ _____ _____    ______ ____
ROOT
ATOM      1  C7  <0> A   1      -3.648   4.117  45.950  0.00  0.00    -0.010 A 
ATOM      2  C8  <0> A   1      -2.454   3.666  45.397  0.00  0.00    +0.054 A 
ATOM      3  C9  <0> A   1      -2.466   2.645  44.464  0.00  0.00    -0.022 A 
ATOM      4  C10 <0> A   1      -3.662   2.065  44.076  0.00  0.00    +0.051 A 
ATOM      5  C11 <0> A   1      -4.856   2.499  44.614  0.00  0.00    -0.018 A 
ATOM      6  C12 <0> A   1      -4.863   3.525  45.560  0.00  0.00    -0.030 A 
ATOM      7 Cl1  <0> A   1      -6.350   1.765  44.120  0.00  0.00    -0.043 Cl
ATOM      8 Cl2  <0> A   1      -0.972   2.088  43.777  0.00  0.00    -0.050 Cl
ENDROOT
BRANCH   1  14
ATOM      9  C1  <0> A   1      -3.694   4.914  48.311  0.00  0.00    +0.067 A 
ATOM     10  C2  <0> A   1      -3.685   5.937  49.238  0.00  0.00    -0.012 A 
ATOM     11  C3  <0> A   1      -3.623   7.255  48.818  0.00  0.00    +0.108 A 
ATOM     12  C4  <0> A   1      -3.570   7.555  47.466  0.00  0.00    -0.014 A 
ATOM     13  C5  <0> A   1      -3.578   6.539  46.532  0.00  0.00    +0.072 A 
ATOM     14  C6  <0> A   1      -3.640   5.211  46.950  0.00  0.00    -0.064 A 
ATOM     15  F1  <0> A   1      -3.615   8.252  49.730  0.00  0.00    -0.137 F 
ENDBRANCH   1  14
BRANCH   6  16
ATOM     16  C13 <0> A   1      -6.136   3.990  46.144  0.00  0.00    +0.042 C 
ATOM     17  C14 <0> A   1      -6.839   3.183  46.929  0.00  0.00    -0.002 C 
BRANCH  17  18
ATOM     18  C15 <0> A   1      -8.140   3.658  47.525  0.00  0.00    +0.243 C 
ATOM     19  C16 <0> A   1      -8.429   5.084  47.051  0.00  0.00    +0.051 C 
ATOM     20  C17 <0> A   1      -9.730   5.578  47.692  0.00  0.00    +0.186 C 
ATOM     21  C18 <0> A   1      -9.575   5.546  49.218  0.00  0.00    +0.024 C 
ATOM     22  C19 <0> A   1      -9.095   4.167  49.618  0.00  0.00    +0.497 C 
ATOM     23  O1  <0> A   1      -9.638   3.554  50.506  0.00  0.00    -0.449 OA
ATOM     24  O2  <0> A   1      -8.043   3.644  48.954  0.00  0.00    -0.368 OA
BRANCH  20  25
ATOM     25  O3  <0> A   1     -10.809   4.728  47.300  0.00  0.00    -0.564 OA
ATOM     26  H15 <0> A   1     -11.272   5.022  46.502  0.00  0.00    +0.388 HD
ENDBRANCH  20  25
ENDBRANCH  17  18
ENDBRANCH   6  16
TORSDOF 4
