MODEL 1
REMARK VINA RESULT:      -8.0      0.000      0.000
REMARK  Name = CHEMBL445123
REMARK  15 active torsions:
REMARK  status: ('A' for Active; 'I' for Inactive)
REMARK    1  A    between atoms: C1_1  and  C2_2
REMARK    2  A    between atoms: C2_2  and  C3_3
REMARK    3  A    between atoms: C2_2  and  C4_4
REMARK    4  A    between atoms: C6_6  and  C22_30
REMARK    5  A    between atoms: C7_7  and  C16_23
REMARK    6  A    between atoms: N1_8  and  C8_9
REMARK    7  A    between atoms: C9_10  and  C10_11
REMARK    8  A    between atoms: C10_11  and  C11_13
REMARK    9  A    between atoms: C10_11  and  O4_22
REMARK   10  A    between atoms: C11_13  and  C12_14
REMARK   11  A    between atoms: C12_14  and  C13_16
REMARK   12  A    between atoms: C12_14  and  O3_21
REMARK   13  A    between atoms: C13_16  and  C14_17
REMARK   14  A    between atoms: C14_17  and  O2_19
REMARK   15  A    between atoms: O2_19  and  C15_20
REMARK                            x       y       z     vdW  Elec       q    Type
REMARK                         _______ _______ _______ _____ _____    ______ ____
ROOT
ATOM      1  C4  <0> A   1     -14.846   6.667  44.983  0.00  0.00    +0.082 C 
ATOM      2  C5  <0> A   1     -15.282   6.739  46.257  0.00  0.00    -0.144 C 
ATOM      3  C6  <0> A   1     -14.841   7.972  46.793  0.00  0.00    -0.077 C 
ATOM      4  C7  <0> A   1     -14.134   8.618  45.792  0.00  0.00    +0.073 C 
ATOM      5  N1  <0> A   1     -14.142   7.801  44.688  0.00  0.00    -0.383 N 
ATOM      6 Br1  <0> A   1     -16.300   5.428  47.163  0.00  0.00    -0.015 Br
ENDROOT
BRANCH   4   7
ATOM      7  C16 <0> A   1     -13.486   9.939  45.895  0.00  0.00    -0.035 A 
ATOM      8  C17 <0> A   1     -14.213  11.101  45.620  0.00  0.00    +0.063 A 
ATOM      9  C18 <0> A   1     -13.601  12.333  45.718  0.00  0.00    -0.011 A 
ATOM     10  C19 <0> A   1     -12.269  12.421  46.087  0.00  0.00    +0.109 A 
ATOM     11  C20 <0> A   1     -11.542  11.273  46.361  0.00  0.00    -0.010 A 
ATOM     12  C21 <0> A   1     -12.144  10.035  46.273  0.00  0.00    +0.069 A 
ATOM     13  F1  <0> A   1     -11.675  13.631  46.182  0.00  0.00    -0.136 F 
ENDBRANCH   4   7
BRANCH   3  14
ATOM     14  C22 <0> A   1     -15.089   8.477  48.164  0.00  0.00    -0.021 A 
ATOM     15  C23 <0> A   1     -16.231   9.231  48.436  0.00  0.00    +0.054 A 
ATOM     16  C24 <0> A   1     -16.458   9.698  49.714  0.00  0.00    -0.015 A 
ATOM     17  C25 <0> A   1     -15.554   9.421  50.726  0.00  0.00    +0.101 A 
ATOM     18  C26 <0> A   1     -14.418   8.674  50.461  0.00  0.00    -0.014 A 
ATOM     19  C27 <0> A   1     -14.185   8.196  49.188  0.00  0.00    +0.065 A 
ATOM     20  F2  <0> A   1     -15.780   9.882  51.976  0.00  0.00    -0.139 F 
ENDBRANCH   3  14
BRANCH   1  22
ATOM     21  C1  <0> A   1     -14.383   4.267  44.564  0.00  0.00    +0.040 C 
ATOM     22  C2  <0> A   1     -15.090   5.517  44.038  0.00  0.00    +0.051 C 
ATOM     23  C3  <0> A   1     -16.593   5.249  43.940  0.00  0.00    +0.040 C 
ENDBRANCH   1  22
BRANCH   5  24
ATOM     24  C8  <0> A   1     -13.534   8.083  43.466  0.00  0.00    +0.201 C 
ATOM     25  C9  <0> A   1     -12.277   7.740  43.260  0.00  0.00    -0.048 C 
BRANCH  25  26
ATOM     26  C10 <0> A   1     -11.620   8.046  41.939  0.00  0.00    +0.268 C 
BRANCH  26  27
ATOM     27  O4  <0> A   1     -10.539   7.135  41.723  0.00  0.00    -0.538 OA
ATOM     28  H20 <0> A   1     -10.500   6.779  40.825  0.00  0.00    +0.371 HD
ENDBRANCH  26  27
BRANCH  26  29
ATOM     29  C11 <0> A   1     -12.644   7.899  40.813  0.00  0.00    -0.014 C 
BRANCH  29  30
ATOM     30  C12 <0> A   1     -12.623   9.154  39.938  0.00  0.00    +0.233 C 
BRANCH  30  31
ATOM     31  O3  <0> A   1     -12.147   8.817  38.633  0.00  0.00    -0.530 OA
ATOM     32  H19 <0> A   1     -12.636   9.241  37.915  0.00  0.00    +0.366 HD
ENDBRANCH  30  31
BRANCH  30  33
ATOM     33  C13 <0> A   1     -14.038   9.726  39.833  0.00  0.00    +0.073 C 
BRANCH  33  34
ATOM     34  C14 <0> A   1     -13.965  11.226  39.705  0.00  0.00    +0.456 C 
ATOM     35  O1  <0> A   1     -13.356  11.725  38.789  0.00  0.00    -0.486 OA
BRANCH  34  36
ATOM     36  O2  <0> A   1     -14.577  12.007  40.608  0.00  0.00    -0.359 OA
ATOM     37  C15 <0> A   1     -14.512  11.592  41.974  0.00  0.00    +0.258 C 
ENDBRANCH  34  36
ENDBRANCH  33  34
ENDBRANCH  30  33
ENDBRANCH  29  30
ENDBRANCH  26  29
ENDBRANCH  25  26
ENDBRANCH   5  24
TORSDOF 12
ENDMDL
MODEL 2
REMARK VINA RESULT:      -7.4      1.350      2.193
REMARK  Name = CHEMBL445123
REMARK  15 active torsions:
REMARK  status: ('A' for Active; 'I' for Inactive)
REMARK    1  A    between atoms: C1_1  and  C2_2
REMARK    2  A    between atoms: C2_2  and  C3_3
REMARK    3  A    between atoms: C2_2  and  C4_4
REMARK    4  A    between atoms: C6_6  and  C22_30
REMARK    5  A    between atoms: C7_7  and  C16_23
REMARK    6  A    between atoms: N1_8  and  C8_9
REMARK    7  A    between atoms: C9_10  and  C10_11
REMARK    8  A    between atoms: C10_11  and  C11_13
REMARK    9  A    between atoms: C10_11  and  O4_22
REMARK   10  A    between atoms: C11_13  and  C12_14
REMARK   11  A    between atoms: C12_14  and  C13_16
REMARK   12  A    between atoms: C12_14  and  O3_21
REMARK   13  A    between atoms: C13_16  and  C14_17
REMARK   14  A    between atoms: C14_17  and  O2_19
REMARK   15  A    between atoms: O2_19  and  C15_20
REMARK                            x       y       z     vdW  Elec       q    Type
REMARK                         _______ _______ _______ _____ _____    ______ ____
ROOT
ATOM      1  C4  <0> A   1     -15.331   6.124  46.325  0.00  0.00    +0.082 C 
ATOM      2  C5  <0> A   1     -15.864   6.550  47.487  0.00  0.00    -0.144 C 
ATOM      3  C6  <0> A   1     -15.354   7.844  47.747  0.00  0.00    -0.077 C 
ATOM      4  C7  <0> A   1     -14.506   8.160  46.698  0.00  0.00    +0.073 C 
ATOM      5  N1  <0> A   1     -14.499   7.091  45.835  0.00  0.00    -0.383 N 
ATOM      6 Br1  <0> A   1     -17.077   5.590  48.576  0.00  0.00    -0.015 Br
ENDROOT
BRANCH   4   7
ATOM      7  C16 <0> A   1     -13.745   9.414  46.539  0.00  0.00    -0.035 A 
ATOM      8  C17 <0> A   1     -12.395   9.466  46.896  0.00  0.00    +0.063 A 
ATOM      9  C18 <0> A   1     -11.689  10.641  46.745  0.00  0.00    -0.011 A 
ATOM     10  C19 <0> A   1     -12.315  11.769  46.239  0.00  0.00    +0.109 A 
ATOM     11  C20 <0> A   1     -13.654  11.724  45.883  0.00  0.00    -0.010 A 
ATOM     12  C21 <0> A   1     -14.369  10.553  46.023  0.00  0.00    +0.069 A 
ATOM     13  F1  <0> A   1     -11.618  12.917  46.093  0.00  0.00    -0.136 F 
ENDBRANCH   4   7
BRANCH   3  14
ATOM     14  C22 <0> A   1     -15.667   8.699  48.916  0.00  0.00    -0.021 A 
ATOM     15  C23 <0> A   1     -14.943   8.557  50.100  0.00  0.00    +0.054 A 
ATOM     16  C24 <0> A   1     -15.239   9.355  51.185  0.00  0.00    -0.015 A 
ATOM     17  C25 <0> A   1     -16.253  10.295  51.101  0.00  0.00    +0.101 A 
ATOM     18  C26 <0> A   1     -16.975  10.439  49.928  0.00  0.00    -0.014 A 
ATOM     19  C27 <0> A   1     -16.683   9.650  48.834  0.00  0.00    +0.065 A 
ATOM     20  F2  <0> A   1     -16.539  11.074  52.168  0.00  0.00    -0.139 F 
ENDBRANCH   3  14
BRANCH   1  22
ATOM     21  C1  <0> A   1     -16.395   5.009  44.382  0.00  0.00    +0.040 C 
ATOM     22  C2  <0> A   1     -15.604   4.792  45.673  0.00  0.00    +0.051 C 
ATOM     23  C3  <0> A   1     -14.277   4.102  45.348  0.00  0.00    +0.040 C 
ENDBRANCH   1  22
BRANCH   5  24
ATOM     24  C8  <0> A   1     -13.765   7.008  44.653  0.00  0.00    +0.201 C 
ATOM     25  C9  <0> A   1     -14.112   7.736  43.609  0.00  0.00    -0.048 C 
BRANCH  25  26
ATOM     26  C10 <0> A   1     -13.319   7.645  42.331  0.00  0.00    +0.268 C 
BRANCH  26  27
ATOM     27  O4  <0> A   1     -13.878   6.630  41.494  0.00  0.00    -0.538 OA
ATOM     28  H20 <0> A   1     -13.831   5.741  41.871  0.00  0.00    +0.371 HD
ENDBRANCH  26  27
BRANCH  26  29
ATOM     29  C11 <0> A   1     -13.369   8.990  41.604  0.00  0.00    -0.014 C 
BRANCH  29  30
ATOM     30  C12 <0> A   1     -13.453  10.121  42.629  0.00  0.00    +0.233 C 
BRANCH  30  31
ATOM     31  O3  <0> A   1     -12.153  10.681  42.829  0.00  0.00    -0.530 OA
ATOM     32  H19 <0> A   1     -11.429  10.065  42.655  0.00  0.00    +0.366 HD
ENDBRANCH  30  31
BRANCH  30  33
ATOM     33  C13 <0> A   1     -14.401  11.206  42.115  0.00  0.00    +0.073 C 
BRANCH  33  34
ATOM     34  C14 <0> A   1     -14.141  11.449  40.650  0.00  0.00    +0.456 C 
ATOM     35  O1  <0> A   1     -15.046  11.365  39.855  0.00  0.00    -0.486 OA
BRANCH  34  36
ATOM     36  O2  <0> A   1     -12.905  11.758  40.231  0.00  0.00    -0.359 OA
ATOM     37  C15 <0> A   1     -12.516  11.272  38.944  0.00  0.00    +0.258 C 
ENDBRANCH  34  36
ENDBRANCH  33  34
ENDBRANCH  30  33
ENDBRANCH  29  30
ENDBRANCH  26  29
ENDBRANCH  25  26
ENDBRANCH   5  24
TORSDOF 12
ENDMDL
MODEL 3
REMARK VINA RESULT:      -7.3     16.923     20.299
REMARK  Name = CHEMBL445123
REMARK  15 active torsions:
REMARK  status: ('A' for Active; 'I' for Inactive)
REMARK    1  A    between atoms: C1_1  and  C2_2
REMARK    2  A    between atoms: C2_2  and  C3_3
REMARK    3  A    between atoms: C2_2  and  C4_4
REMARK    4  A    between atoms: C6_6  and  C22_30
REMARK    5  A    between atoms: C7_7  and  C16_23
REMARK    6  A    between atoms: N1_8  and  C8_9
REMARK    7  A    between atoms: C9_10  and  C10_11
REMARK    8  A    between atoms: C10_11  and  C11_13
REMARK    9  A    between atoms: C10_11  and  O4_22
REMARK   10  A    between atoms: C11_13  and  C12_14
REMARK   11  A    between atoms: C12_14  and  C13_16
REMARK   12  A    between atoms: C12_14  and  O3_21
REMARK   13  A    between atoms: C13_16  and  C14_17
REMARK   14  A    between atoms: C14_17  and  O2_19
REMARK   15  A    between atoms: O2_19  and  C15_20
REMARK                            x       y       z     vdW  Elec       q    Type
REMARK                         _______ _______ _______ _____ _____    ______ ____
ROOT
ATOM      1  C4  <0> A   1     -24.268  -2.639  51.897  0.00  0.00    +0.082 C 
ATOM      2  C5  <0> A   1     -24.774  -1.390  51.908  0.00  0.00    -0.144 C 
ATOM      3  C6  <0> A   1     -26.177  -1.493  51.753  0.00  0.00    -0.077 C 
ATOM      4  C7  <0> A   1     -26.474  -2.842  51.652  0.00  0.00    +0.073 C 
ATOM      5  N1  <0> A   1     -25.290  -3.532  51.737  0.00  0.00    -0.383 N 
ATOM      6 Br1  <0> A   1     -23.787   0.212  52.097  0.00  0.00    -0.015 Br
ENDROOT
BRANCH   4   7
ATOM      7  C16 <0> A   1     -27.816  -3.429  51.478  0.00  0.00    -0.035 A 
ATOM      8  C17 <0> A   1     -28.575  -3.789  52.595  0.00  0.00    +0.063 A 
ATOM      9  C18 <0> A   1     -29.828  -4.338  52.426  0.00  0.00    -0.011 A 
ATOM     10  C19 <0> A   1     -30.337  -4.533  51.151  0.00  0.00    +0.109 A 
ATOM     11  C20 <0> A   1     -29.589  -4.178  50.039  0.00  0.00    -0.010 A 
ATOM     12  C21 <0> A   1     -28.337  -3.622  50.196  0.00  0.00    +0.069 A 
ATOM     13  F1  <0> A   1     -31.566  -5.070  50.992  0.00  0.00    -0.136 F 
ENDBRANCH   4   7
BRANCH   3  14
ATOM     14  C22 <0> A   1     -27.144  -0.371  51.709  0.00  0.00    -0.021 A 
ATOM     15  C23 <0> A   1     -27.293   0.379  50.543  0.00  0.00    +0.054 A 
ATOM     16  C24 <0> A   1     -28.196   1.422  50.507  0.00  0.00    -0.015 A 
ATOM     17  C25 <0> A   1     -28.952   1.726  51.627  0.00  0.00    +0.101 A 
ATOM     18  C26 <0> A   1     -28.807   0.984  52.788  0.00  0.00    -0.014 A 
ATOM     19  C27 <0> A   1     -27.912  -0.065  52.832  0.00  0.00    +0.065 A 
ATOM     20  F2  <0> A   1     -29.834   2.749  51.587  0.00  0.00    -0.139 F 
ENDBRANCH   3  14
BRANCH   1  22
ATOM     21  C1  <0> A   1     -22.051  -2.517  50.793  0.00  0.00    +0.040 C 
ATOM     22  C2  <0> A   1     -22.809  -2.994  52.033  0.00  0.00    +0.051 C 
ATOM     23  C3  <0> A   1     -22.232  -2.312  53.276  0.00  0.00    +0.040 C 
ENDBRANCH   1  22
BRANCH   5  24
ATOM     24  C8  <0> A   1     -25.153  -4.918  51.673  0.00  0.00    +0.201 C 
ATOM     25  C9  <0> A   1     -24.990  -5.512  50.507  0.00  0.00    -0.048 C 
BRANCH  25  26
ATOM     26  C10 <0> A   1     -24.843  -7.010  50.437  0.00  0.00    +0.268 C 
BRANCH  26  27
ATOM     27  O4  <0> A   1     -23.790  -7.344  49.531  0.00  0.00    -0.538 OA
ATOM     28  H20 <0> A   1     -23.891  -8.210  49.113  0.00  0.00    +0.371 HD
ENDBRANCH  26  27
BRANCH  26  29
ATOM     29  C11 <0> A   1     -24.512  -7.555  51.827  0.00  0.00    -0.014 C 
BRANCH  29  30
ATOM     30  C12 <0> A   1     -23.510  -8.704  51.699  0.00  0.00    +0.233 C 
BRANCH  30  31
ATOM     31  O3  <0> A   1     -22.580  -8.649  52.783  0.00  0.00    -0.530 OA
ATOM     32  H19 <0> A   1     -22.013  -7.865  52.775  0.00  0.00    +0.366 HD
ENDBRANCH  30  31
BRANCH  30  33
ATOM     33  C13 <0> A   1     -24.257 -10.038  51.736  0.00  0.00    +0.073 C 
BRANCH  33  34
ATOM     34  C14 <0> A   1     -24.193 -10.689  50.378  0.00  0.00    +0.456 C 
ATOM     35  O1  <0> A   1     -23.402 -10.293  49.556  0.00  0.00    -0.486 OA
BRANCH  34  36
ATOM     36  O2  <0> A   1     -25.015 -11.708  50.082  0.00  0.00    -0.359 OA
ATOM     37  C15 <0> A   1     -24.463 -12.789  49.328  0.00  0.00    +0.258 C 
ENDBRANCH  34  36
ENDBRANCH  33  34
ENDBRANCH  30  33
ENDBRANCH  29  30
ENDBRANCH  26  29
ENDBRANCH  25  26
ENDBRANCH   5  24
TORSDOF 12
ENDMDL
MODEL 4
REMARK VINA RESULT:      -7.3      2.404      4.450
REMARK  Name = CHEMBL445123
REMARK  15 active torsions:
REMARK  status: ('A' for Active; 'I' for Inactive)
REMARK    1  A    between atoms: C1_1  and  C2_2
REMARK    2  A    between atoms: C2_2  and  C3_3
REMARK    3  A    between atoms: C2_2  and  C4_4
REMARK    4  A    between atoms: C6_6  and  C22_30
REMARK    5  A    between atoms: C7_7  and  C16_23
REMARK    6  A    between atoms: N1_8  and  C8_9
REMARK    7  A    between atoms: C9_10  and  C10_11
REMARK    8  A    between atoms: C10_11  and  C11_13
REMARK    9  A    between atoms: C10_11  and  O4_22
REMARK   10  A    between atoms: C11_13  and  C12_14
REMARK   11  A    between atoms: C12_14  and  C13_16
REMARK   12  A    between atoms: C12_14  and  O3_21
REMARK   13  A    between atoms: C13_16  and  C14_17
REMARK   14  A    between atoms: C14_17  and  O2_19
REMARK   15  A    between atoms: O2_19  and  C15_20
REMARK                            x       y       z     vdW  Elec       q    Type
REMARK                         _______ _______ _______ _____ _____    ______ ____
ROOT
ATOM      1  C4  <0> A   1     -12.516   9.621  46.248  0.00  0.00    +0.082 C 
ATOM      2  C5  <0> A   1     -13.336   9.737  47.311  0.00  0.00    -0.144 C 
ATOM      3  C6  <0> A   1     -14.211   8.624  47.303  0.00  0.00    -0.077 C 
ATOM      4  C7  <0> A   1     -13.874   7.854  46.202  0.00  0.00    +0.073 C 
ATOM      5  N1  <0> A   1     -12.834   8.483  45.561  0.00  0.00    -0.383 N 
ATOM      6 Br1  <0> A   1     -13.321  11.135  48.584  0.00  0.00    -0.015 Br
ENDROOT
BRANCH   4   7
ATOM      7  C16 <0> A   1     -14.518   6.593  45.789  0.00  0.00    -0.035 A 
ATOM      8  C17 <0> A   1     -15.716   6.619  45.070  0.00  0.00    +0.063 A 
ATOM      9  C18 <0> A   1     -16.313   5.436  44.687  0.00  0.00    -0.011 A 
ATOM     10  C19 <0> A   1     -15.727   4.223  45.013  0.00  0.00    +0.109 A 
ATOM     11  C20 <0> A   1     -14.538   4.191  45.725  0.00  0.00    -0.010 A 
ATOM     12  C21 <0> A   1     -13.929   5.367  46.109  0.00  0.00    +0.069 A 
ATOM     13  F1  <0> A   1     -16.316   3.068  44.634  0.00  0.00    -0.136 F 
ENDBRANCH   4   7
BRANCH   3  14
ATOM     14  C22 <0> A   1     -15.281   8.336  48.287  0.00  0.00    -0.021 A 
ATOM     15  C23 <0> A   1     -16.523   8.960  48.172  0.00  0.00    +0.054 A 
ATOM     16  C24 <0> A   1     -17.516   8.688  49.090  0.00  0.00    -0.015 A 
ATOM     17  C25 <0> A   1     -17.282   7.797  50.125  0.00  0.00    +0.101 A 
ATOM     18  C26 <0> A   1     -16.049   7.176  50.243  0.00  0.00    -0.014 A 
ATOM     19  C27 <0> A   1     -15.052   7.436  49.327  0.00  0.00    +0.065 A 
ATOM     20  F2  <0> A   1     -18.258   7.535  51.022  0.00  0.00    -0.139 F 
ENDBRANCH   3  14
BRANCH   1  22
ATOM     21  C1  <0> A   1     -12.037  11.976  45.635  0.00  0.00    +0.040 C 
ATOM     22  C2  <0> A   1     -11.427  10.594  45.873  0.00  0.00    +0.051 C 
ATOM     23  C3  <0> A   1     -10.404  10.677  47.009  0.00  0.00    +0.040 C 
ENDBRANCH   1  22
BRANCH   5  24
ATOM     24  C8  <0> A   1     -12.206   8.033  44.401  0.00  0.00    +0.201 C 
ATOM     25  C9  <0> A   1     -12.802   8.168  43.233  0.00  0.00    -0.048 C 
BRANCH  25  26
ATOM     26  C10 <0> A   1     -12.123   7.681  41.979  0.00  0.00    +0.268 C 
BRANCH  26  27
ATOM     27  O4  <0> A   1     -11.710   6.324  42.157  0.00  0.00    -0.538 OA
ATOM     28  H20 <0> A   1     -10.752   6.207  42.199  0.00  0.00    +0.371 HD
ENDBRANCH  26  27
BRANCH  26  29
ATOM     29  C11 <0> A   1     -13.097   7.768  40.804  0.00  0.00    -0.014 C 
BRANCH  29  30
ATOM     30  C12 <0> A   1     -12.716   8.950  39.912  0.00  0.00    +0.233 C 
BRANCH  30  31
ATOM     31  O3  <0> A   1     -12.378   8.473  38.608  0.00  0.00    -0.530 OA
ATOM     32  H19 <0> A   1     -13.029   8.694  37.928  0.00  0.00    +0.366 HD
ENDBRANCH  30  31
BRANCH  30  33
ATOM     33  C13 <0> A   1     -13.899   9.915  39.811  0.00  0.00    +0.073 C 
BRANCH  33  34
ATOM     34  C14 <0> A   1     -13.395  11.335  39.861  0.00  0.00    +0.456 C 
ATOM     35  O1  <0> A   1     -13.421  12.020  38.866  0.00  0.00    -0.486 OA
BRANCH  34  36
ATOM     36  O2  <0> A   1     -12.918  11.838  41.010  0.00  0.00    -0.359 OA
ATOM     37  C15 <0> A   1     -13.686  11.598  42.191  0.00  0.00    +0.258 C 
ENDBRANCH  34  36
ENDBRANCH  33  34
ENDBRANCH  30  33
ENDBRANCH  29  30
ENDBRANCH  26  29
ENDBRANCH  25  26
ENDBRANCH   5  24
TORSDOF 12
ENDMDL
MODEL 5
REMARK VINA RESULT:      -7.2     16.886     19.977
REMARK  Name = CHEMBL445123
REMARK  15 active torsions:
REMARK  status: ('A' for Active; 'I' for Inactive)
REMARK    1  A    between atoms: C1_1  and  C2_2
REMARK    2  A    between atoms: C2_2  and  C3_3
REMARK    3  A    between atoms: C2_2  and  C4_4
REMARK    4  A    between atoms: C6_6  and  C22_30
REMARK    5  A    between atoms: C7_7  and  C16_23
REMARK    6  A    between atoms: N1_8  and  C8_9
REMARK    7  A    between atoms: C9_10  and  C10_11
REMARK    8  A    between atoms: C10_11  and  C11_13
REMARK    9  A    between atoms: C10_11  and  O4_22
REMARK   10  A    between atoms: C11_13  and  C12_14
REMARK   11  A    between atoms: C12_14  and  C13_16
REMARK   12  A    between atoms: C12_14  and  O3_21
REMARK   13  A    between atoms: C13_16  and  C14_17
REMARK   14  A    between atoms: C14_17  and  O2_19
REMARK   15  A    between atoms: O2_19  and  C15_20
REMARK                            x       y       z     vdW  Elec       q    Type
REMARK                         _______ _______ _______ _____ _____    ______ ____
ROOT
ATOM      1  C4  <0> A   1     -27.406  -5.559  50.930  0.00  0.00    +0.082 C 
ATOM      2  C5  <0> A   1     -28.070  -4.395  50.773  0.00  0.00    -0.144 C 
ATOM      3  C6  <0> A   1     -27.153  -3.342  51.005  0.00  0.00    -0.077 C 
ATOM      4  C7  <0> A   1     -25.933  -3.928  51.301  0.00  0.00    +0.073 C 
ATOM      5  N1  <0> A   1     -26.106  -5.289  51.255  0.00  0.00    -0.383 N 
ATOM      6 Br1  <0> A   1     -29.897  -4.205  50.325  0.00  0.00    -0.015 Br
ENDROOT
BRANCH   4   7
ATOM      7  C16 <0> A   1     -24.678  -3.219  51.614  0.00  0.00    -0.035 A 
ATOM      8  C17 <0> A   1     -24.574  -2.456  52.780  0.00  0.00    +0.063 A 
ATOM      9  C18 <0> A   1     -23.398  -1.796  53.067  0.00  0.00    -0.011 A 
ATOM     10  C19 <0> A   1     -22.319  -1.887  52.201  0.00  0.00    +0.109 A 
ATOM     11  C20 <0> A   1     -22.416  -2.642  51.042  0.00  0.00    -0.010 A 
ATOM     12  C21 <0> A   1     -23.584  -3.312  50.748  0.00  0.00    +0.069 A 
ATOM     13  F1  <0> A   1     -21.169  -1.238  52.488  0.00  0.00    -0.136 F 
ENDBRANCH   4   7
BRANCH   3  14
ATOM     14  C22 <0> A   1     -27.442  -1.890  50.941  0.00  0.00    -0.021 A 
ATOM     15  C23 <0> A   1     -26.849  -1.102  49.955  0.00  0.00    +0.054 A 
ATOM     16  C24 <0> A   1     -27.122   0.249  49.900  0.00  0.00    -0.015 A 
ATOM     17  C25 <0> A   1     -27.982   0.823  50.822  0.00  0.00    +0.101 A 
ATOM     18  C26 <0> A   1     -28.572   0.044  51.804  0.00  0.00    -0.014 A 
ATOM     19  C27 <0> A   1     -28.311  -1.309  51.864  0.00  0.00    +0.065 A 
ATOM     20  F2  <0> A   1     -28.245   2.147  50.765  0.00  0.00    -0.139 F 
ENDBRANCH   3  14
BRANCH   1  22
ATOM     21  C1  <0> A   1     -29.175  -7.092  51.746  0.00  0.00    +0.040 C 
ATOM     22  C2  <0> A   1     -28.004  -6.934  50.776  0.00  0.00    +0.051 C 
ATOM     23  C3  <0> A   1     -28.502  -7.116  49.341  0.00  0.00    +0.040 C 
ENDBRANCH   1  22
BRANCH   5  24
ATOM     24  C8  <0> A   1     -25.118  -6.241  51.499  0.00  0.00    +0.201 C 
ATOM     25  C9  <0> A   1     -24.719  -7.042  50.530  0.00  0.00    -0.048 C 
BRANCH  25  26
ATOM     26  C10 <0> A   1     -23.650  -8.071  50.794  0.00  0.00    +0.268 C 
BRANCH  26  27
ATOM     27  O4  <0> A   1     -24.122  -9.010  51.763  0.00  0.00    -0.538 OA
ATOM     28  H20 <0> A   1     -24.017  -9.934  51.498  0.00  0.00    +0.371 HD
ENDBRANCH  26  27
BRANCH  26  29
ATOM     29  C11 <0> A   1     -23.316  -8.804  49.494  0.00  0.00    -0.014 C 
BRANCH  29  30
ATOM     30  C12 <0> A   1     -24.426  -8.560  48.471  0.00  0.00    +0.233 C 
BRANCH  30  31
ATOM     31  O3  <0> A   1     -23.882  -7.903  47.324  0.00  0.00    -0.530 OA
ATOM     32  H19 <0> A   1     -24.549  -7.564  46.712  0.00  0.00    +0.366 HD
ENDBRANCH  30  31
BRANCH  30  33
ATOM     33  C13 <0> A   1     -25.036  -9.898  48.050  0.00  0.00    +0.073 C 
BRANCH  33  34
ATOM     34  C14 <0> A   1     -25.596 -10.599  49.261  0.00  0.00    +0.456 C 
ATOM     35  O1  <0> A   1     -26.467 -10.076  49.913  0.00  0.00    -0.486 OA
BRANCH  34  36
ATOM     36  O2  <0> A   1     -25.125 -11.805  49.616  0.00  0.00    -0.359 OA
ATOM     37  C15 <0> A   1     -24.132 -12.388  48.769  0.00  0.00    +0.258 C 
ENDBRANCH  34  36
ENDBRANCH  33  34
ENDBRANCH  30  33
ENDBRANCH  29  30
ENDBRANCH  26  29
ENDBRANCH  25  26
ENDBRANCH   5  24
TORSDOF 12
ENDMDL
MODEL 6
REMARK VINA RESULT:      -7.2     16.888     20.140
REMARK  Name = CHEMBL445123
REMARK  15 active torsions:
REMARK  status: ('A' for Active; 'I' for Inactive)
REMARK    1  A    between atoms: C1_1  and  C2_2
REMARK    2  A    between atoms: C2_2  and  C3_3
REMARK    3  A    between atoms: C2_2  and  C4_4
REMARK    4  A    between atoms: C6_6  and  C22_30
REMARK    5  A    between atoms: C7_7  and  C16_23
REMARK    6  A    between atoms: N1_8  and  C8_9
REMARK    7  A    between atoms: C9_10  and  C10_11
REMARK    8  A    between atoms: C10_11  and  C11_13
REMARK    9  A    between atoms: C10_11  and  O4_22
REMARK   10  A    between atoms: C11_13  and  C12_14
REMARK   11  A    between atoms: C12_14  and  C13_16
REMARK   12  A    between atoms: C12_14  and  O3_21
REMARK   13  A    between atoms: C13_16  and  C14_17
REMARK   14  A    between atoms: C14_17  and  O2_19
REMARK   15  A    between atoms: O2_19  and  C15_20
REMARK                            x       y       z     vdW  Elec       q    Type
REMARK                         _______ _______ _______ _____ _____    ______ ____
ROOT
ATOM      1  C4  <0> A   1     -25.885  -2.977  51.051  0.00  0.00    +0.082 C 
ATOM      2  C5  <0> A   1     -27.105  -3.539  50.937  0.00  0.00    -0.144 C 
ATOM      3  C6  <0> A   1     -26.923  -4.936  50.795  0.00  0.00    -0.077 C 
ATOM      4  C7  <0> A   1     -25.559  -5.171  50.831  0.00  0.00    +0.073 C 
ATOM      5  N1  <0> A   1     -24.935  -3.957  50.984  0.00  0.00    -0.383 N 
ATOM      6 Br1  <0> A   1     -28.760  -2.626  50.961  0.00  0.00    -0.015 Br
ENDROOT
BRANCH   4   7
ATOM      7  C16 <0> A   1     -24.897  -6.484  50.719  0.00  0.00    -0.035 A 
ATOM      8  C17 <0> A   1     -24.684  -7.059  49.463  0.00  0.00    +0.063 A 
ATOM      9  C18 <0> A   1     -24.065  -8.287  49.366  0.00  0.00    -0.011 A 
ATOM     10  C19 <0> A   1     -23.652  -8.952  50.510  0.00  0.00    +0.109 A 
ATOM     11  C20 <0> A   1     -23.860  -8.387  51.759  0.00  0.00    -0.010 A 
ATOM     12  C21 <0> A   1     -24.472  -7.157  51.869  0.00  0.00    +0.069 A 
ATOM     13  F1  <0> A   1     -23.045 -10.154  50.408  0.00  0.00    -0.136 F 
ENDBRANCH   4   7
BRANCH   3  14
ATOM     14  C22 <0> A   1     -27.990  -5.953  50.639  0.00  0.00    -0.021 A 
ATOM     15  C23 <0> A   1     -28.538  -6.204  49.381  0.00  0.00    +0.054 A 
ATOM     16  C24 <0> A   1     -29.530  -7.153  49.242  0.00  0.00    -0.015 A 
ATOM     17  C25 <0> A   1     -29.983  -7.853  50.348  0.00  0.00    +0.101 A 
ATOM     18  C26 <0> A   1     -29.443  -7.605  51.599  0.00  0.00    -0.014 A 
ATOM     19  C27 <0> A   1     -28.445  -6.664  51.748  0.00  0.00    +0.065 A 
ATOM     20  F2  <0> A   1     -30.957  -8.780  50.206  0.00  0.00    -0.139 F 
ENDBRANCH   3  14
BRANCH   1  22
ATOM     21  C1  <0> A   1     -26.203  -0.738  50.035  0.00  0.00    +0.040 C 
ATOM     22  C2  <0> A   1     -25.612  -1.504  51.220  0.00  0.00    +0.051 C 
ATOM     23  C3  <0> A   1     -26.257  -1.012  52.518  0.00  0.00    +0.040 C 
ENDBRANCH   1  22
BRANCH   5  24
ATOM     24  C8  <0> A   1     -23.557  -3.758  51.060  0.00  0.00    +0.201 C 
ATOM     25  C9  <0> A   1     -22.962  -3.706  52.236  0.00  0.00    -0.048 C 
BRANCH  25  26
ATOM     26  C10 <0> A   1     -21.473  -3.491  52.319  0.00  0.00    +0.268 C 
BRANCH  26  27
ATOM     27  O4  <0> A   1     -20.968  -3.155  51.025  0.00  0.00    -0.538 OA
ATOM     28  H20 <0> A   1     -20.602  -3.906  50.539  0.00  0.00    +0.371 HD
ENDBRANCH  26  27
BRANCH  26  29
ATOM     29  C11 <0> A   1     -21.176  -2.351  53.294  0.00  0.00    -0.014 C 
BRANCH  29  30
ATOM     30  C12 <0> A   1     -20.203  -2.839  54.368  0.00  0.00    +0.233 C 
BRANCH  30  31
ATOM     31  O3  <0> A   1     -20.701  -4.046  54.949  0.00  0.00    -0.530 OA
ATOM     32  H19 <0> A   1     -20.106  -4.444  55.599  0.00  0.00    +0.366 HD
ENDBRANCH  30  31
BRANCH  30  33
ATOM     33  C13 <0> A   1     -18.836  -3.105  53.735  0.00  0.00    +0.073 C 
BRANCH  33  34
ATOM     34  C14 <0> A   1     -18.378  -4.497  54.091  0.00  0.00    +0.456 C 
ATOM     35  O1  <0> A   1     -18.528  -5.401  53.305  0.00  0.00    -0.486 OA
BRANCH  34  36
ATOM     36  O2  <0> A   1     -17.806  -4.730  55.282  0.00  0.00    -0.359 OA
ATOM     37  C15 <0> A   1     -16.740  -3.861  55.671  0.00  0.00    +0.258 C 
ENDBRANCH  34  36
ENDBRANCH  33  34
ENDBRANCH  30  33
ENDBRANCH  29  30
ENDBRANCH  26  29
ENDBRANCH  25  26
ENDBRANCH   5  24
TORSDOF 12
ENDMDL
MODEL 7
REMARK VINA RESULT:      -7.1     17.151     20.102
REMARK  Name = CHEMBL445123
REMARK  15 active torsions:
REMARK  status: ('A' for Active; 'I' for Inactive)
REMARK    1  A    between atoms: C1_1  and  C2_2
REMARK    2  A    between atoms: C2_2  and  C3_3
REMARK    3  A    between atoms: C2_2  and  C4_4
REMARK    4  A    between atoms: C6_6  and  C22_30
REMARK    5  A    between atoms: C7_7  and  C16_23
REMARK    6  A    between atoms: N1_8  and  C8_9
REMARK    7  A    between atoms: C9_10  and  C10_11
REMARK    8  A    between atoms: C10_11  and  C11_13
REMARK    9  A    between atoms: C10_11  and  O4_22
REMARK   10  A    between atoms: C11_13  and  C12_14
REMARK   11  A    between atoms: C12_14  and  C13_16
REMARK   12  A    between atoms: C12_14  and  O3_21
REMARK   13  A    between atoms: C13_16  and  C14_17
REMARK   14  A    between atoms: C14_17  and  O2_19
REMARK   15  A    between atoms: O2_19  and  C15_20
REMARK                            x       y       z     vdW  Elec       q    Type
REMARK                         _______ _______ _______ _____ _____    ______ ____
ROOT
ATOM      1  C4  <0> A   1     -28.216  -4.699  52.404  0.00  0.00    +0.082 C 
ATOM      2  C5  <0> A   1     -28.920  -3.584  52.686  0.00  0.00    -0.144 C 
ATOM      3  C6  <0> A   1     -28.050  -2.477  52.537  0.00  0.00    -0.077 C 
ATOM      4  C7  <0> A   1     -26.817  -2.981  52.159  0.00  0.00    +0.073 C 
ATOM      5  N1  <0> A   1     -26.934  -4.348  52.086  0.00  0.00    -0.383 N 
ATOM      6 Br1  <0> A   1     -30.741  -3.511  53.190  0.00  0.00    -0.015 Br
ENDROOT
BRANCH   4   7
ATOM      7  C16 <0> A   1     -25.598  -2.195  51.889  0.00  0.00    -0.035 A 
ATOM      8  C17 <0> A   1     -25.321  -1.753  50.593  0.00  0.00    +0.063 A 
ATOM      9  C18 <0> A   1     -24.180  -1.018  50.347  0.00  0.00    -0.011 A 
ATOM     10  C19 <0> A   1     -23.309  -0.718  51.382  0.00  0.00    +0.109 A 
ATOM     11  C20 <0> A   1     -23.578  -1.154  52.670  0.00  0.00    -0.010 A 
ATOM     12  C21 <0> A   1     -24.719  -1.884  52.929  0.00  0.00    +0.069 A 
ATOM     13  F1  <0> A   1     -22.193   0.003  51.135  0.00  0.00    -0.136 F 
ENDBRANCH   4   7
BRANCH   3  14
ATOM     14  C22 <0> A   1     -28.393  -1.051  52.745  0.00  0.00    -0.021 A 
ATOM     15  C23 <0> A   1     -28.260  -0.476  54.009  0.00  0.00    +0.054 A 
ATOM     16  C24 <0> A   1     -28.581   0.852  54.197  0.00  0.00    -0.015 A 
ATOM     17  C25 <0> A   1     -29.035   1.615  53.134  0.00  0.00    +0.101 A 
ATOM     18  C26 <0> A   1     -29.170   1.049  51.877  0.00  0.00    -0.014 A 
ATOM     19  C27 <0> A   1     -28.846  -0.277  51.677  0.00  0.00    +0.065 A 
ATOM     20  F2  <0> A   1     -29.349   2.916  53.324  0.00  0.00    -0.139 F 
ENDBRANCH   3  14
BRANCH   1  22
ATOM     21  C1  <0> A   1     -29.223  -6.437  53.858  0.00  0.00    +0.040 C 
ATOM     22  C2  <0> A   1     -28.756  -6.106  52.440  0.00  0.00    +0.051 C 
ATOM     23  C3  <0> A   1     -29.936  -6.224  51.473  0.00  0.00    +0.040 C 
ENDBRANCH   1  22
BRANCH   5  24
ATOM     24  C8  <0> A   1     -25.913  -5.232  51.742  0.00  0.00    +0.201 C 
ATOM     25  C9  <0> A   1     -25.783  -5.636  50.493  0.00  0.00    -0.048 C 
BRANCH  25  26
ATOM     26  C10 <0> A   1     -24.680  -6.592  50.121  0.00  0.00    +0.268 C 
BRANCH  26  27
ATOM     27  O4  <0> A   1     -23.812  -6.778  51.241  0.00  0.00    -0.538 OA
ATOM     28  H20 <0> A   1     -23.661  -5.975  51.759  0.00  0.00    +0.371 HD
ENDBRANCH  26  27
BRANCH  26  29
ATOM     29  C11 <0> A   1     -25.285  -7.937  49.716  0.00  0.00    -0.014 C 
BRANCH  29  30
ATOM     30  C12 <0> A   1     -24.345  -8.647  48.741  0.00  0.00    +0.233 C 
BRANCH  30  31
ATOM     31  O3  <0> A   1     -23.247  -7.787  48.427  0.00  0.00    -0.530 OA
ATOM     32  H19 <0> A   1     -23.510  -6.928  48.069  0.00  0.00    +0.366 HD
ENDBRANCH  30  31
BRANCH  30  33
ATOM     33  C13 <0> A   1     -23.818  -9.932  49.383  0.00  0.00    +0.073 C 
BRANCH  33  34
ATOM     34  C14 <0> A   1     -24.862 -11.013  49.274  0.00  0.00    +0.456 C 
ATOM     35  O1  <0> A   1     -25.241 -11.379  48.188  0.00  0.00    -0.486 OA
BRANCH  34  36
ATOM     36  O2  <0> A   1     -25.371 -11.569  50.385  0.00  0.00    -0.359 OA
ATOM     37  C15 <0> A   1     -24.501 -11.677  51.514  0.00  0.00    +0.258 C 
ENDBRANCH  34  36
ENDBRANCH  33  34
ENDBRANCH  30  33
ENDBRANCH  29  30
ENDBRANCH  26  29
ENDBRANCH  25  26
ENDBRANCH   5  24
TORSDOF 12
ENDMDL
MODEL 8
REMARK VINA RESULT:      -7.1      3.776      5.787
REMARK  Name = CHEMBL445123
REMARK  15 active torsions:
REMARK  status: ('A' for Active; 'I' for Inactive)
REMARK    1  A    between atoms: C1_1  and  C2_2
REMARK    2  A    between atoms: C2_2  and  C3_3
REMARK    3  A    between atoms: C2_2  and  C4_4
REMARK    4  A    between atoms: C6_6  and  C22_30
REMARK    5  A    between atoms: C7_7  and  C16_23
REMARK    6  A    between atoms: N1_8  and  C8_9
REMARK    7  A    between atoms: C9_10  and  C10_11
REMARK    8  A    between atoms: C10_11  and  C11_13
REMARK    9  A    between atoms: C10_11  and  O4_22
REMARK   10  A    between atoms: C11_13  and  C12_14
REMARK   11  A    between atoms: C12_14  and  C13_16
REMARK   12  A    between atoms: C12_14  and  O3_21
REMARK   13  A    between atoms: C13_16  and  C14_17
REMARK   14  A    between atoms: C14_17  and  O2_19
REMARK   15  A    between atoms: O2_19  and  C15_20
REMARK                            x       y       z     vdW  Elec       q    Type
REMARK                         _______ _______ _______ _____ _____    ______ ____
ROOT
ATOM      1  C4  <0> A   1     -16.786   9.501  48.924  0.00  0.00    +0.082 C 
ATOM      2  C5  <0> A   1     -17.623   8.662  49.566  0.00  0.00    -0.144 C 
ATOM      3  C6  <0> A   1     -17.626   7.435  48.861  0.00  0.00    -0.077 C 
ATOM      4  C7  <0> A   1     -16.763   7.584  47.788  0.00  0.00    +0.073 C 
ATOM      5  N1  <0> A   1     -16.259   8.860  47.838  0.00  0.00    -0.383 N 
ATOM      6 Br1  <0> A   1     -18.616   9.055  51.126  0.00  0.00    -0.015 Br
ENDROOT
BRANCH   4   7
ATOM      7  C16 <0> A   1     -16.448   6.560  46.774  0.00  0.00    -0.035 A 
ATOM      8  C17 <0> A   1     -15.483   5.584  47.037  0.00  0.00    +0.063 A 
ATOM      9  C18 <0> A   1     -15.193   4.630  46.084  0.00  0.00    -0.011 A 
ATOM     10  C19 <0> A   1     -15.856   4.638  44.867  0.00  0.00    +0.109 A 
ATOM     11  C20 <0> A   1     -16.814   5.603  44.600  0.00  0.00    -0.010 A 
ATOM     12  C21 <0> A   1     -17.117   6.558  45.547  0.00  0.00    +0.069 A 
ATOM     13  F1  <0> A   1     -15.568   3.700  43.938  0.00  0.00    -0.136 F 
ENDBRANCH   4   7
BRANCH   3  14
ATOM     14  C22 <0> A   1     -18.403   6.221  49.206  0.00  0.00    -0.021 A 
ATOM     15  C23 <0> A   1     -19.739   6.112  48.819  0.00  0.00    +0.054 A 
ATOM     16  C24 <0> A   1     -20.458   4.980  49.143  0.00  0.00    -0.015 A 
ATOM     17  C25 <0> A   1     -19.856   3.953  49.852  0.00  0.00    +0.101 A 
ATOM     18  C26 <0> A   1     -18.530   4.058  50.240  0.00  0.00    -0.014 A 
ATOM     19  C27 <0> A   1     -17.801   5.183  49.915  0.00  0.00    +0.065 A 
ATOM     20  F2  <0> A   1     -20.565   2.847  50.168  0.00  0.00    -0.139 F 
ENDBRANCH   3  14
BRANCH   1  22
ATOM     21  C1  <0> A   1     -15.055  11.001  49.875  0.00  0.00    +0.040 C 
ATOM     22  C2  <0> A   1     -16.484  10.920  49.334  0.00  0.00    +0.051 C 
ATOM     23  C3  <0> A   1     -16.623  11.843  48.121  0.00  0.00    +0.040 C 
ENDBRANCH   1  22
BRANCH   5  24
ATOM     24  C8  <0> A   1     -15.355   9.410  46.930  0.00  0.00    +0.201 C 
ATOM     25  C9  <0> A   1     -14.074   9.108  47.009  0.00  0.00    -0.048 C 
BRANCH  25  26
ATOM     26  C10 <0> A   1     -13.097   9.704  46.029  0.00  0.00    +0.268 C 
BRANCH  26  27
ATOM     27  O4  <0> A   1     -11.903   8.918  46.009  0.00  0.00    -0.538 OA
ATOM     28  H20 <0> A   1     -12.006   8.038  46.395  0.00  0.00    +0.371 HD
ENDBRANCH  26  27
BRANCH  26  29
ATOM     29  C11 <0> A   1     -13.721   9.719  44.632  0.00  0.00    -0.014 C 
BRANCH  29  30
ATOM     30  C12 <0> A   1     -13.172  10.908  43.842  0.00  0.00    +0.233 C 
BRANCH  30  31
ATOM     31  O3  <0> A   1     -11.888  10.574  43.309  0.00  0.00    -0.530 OA
ATOM     32  H19 <0> A   1     -11.620   9.659  43.474  0.00  0.00    +0.366 HD
ENDBRANCH  30  31
BRANCH  30  33
ATOM     33  C13 <0> A   1     -14.128  11.243  42.695  0.00  0.00    +0.073 C 
BRANCH  33  34
ATOM     34  C14 <0> A   1     -13.538  10.766  41.393  0.00  0.00    +0.456 C 
ATOM     35  O1  <0> A   1     -13.583   9.595  41.102  0.00  0.00    -0.486 OA
BRANCH  34  36
ATOM     36  O2  <0> A   1     -12.962  11.644  40.556  0.00  0.00    -0.359 OA
ATOM     37  C15 <0> A   1     -12.637  11.174  39.246  0.00  0.00    +0.258 C 
ENDBRANCH  34  36
ENDBRANCH  33  34
ENDBRANCH  30  33
ENDBRANCH  29  30
ENDBRANCH  26  29
ENDBRANCH  25  26
ENDBRANCH   5  24
TORSDOF 12
ENDMDL
MODEL 9
REMARK VINA RESULT:      -7.0     16.823     19.818
REMARK  Name = CHEMBL445123
REMARK  15 active torsions:
REMARK  status: ('A' for Active; 'I' for Inactive)
REMARK    1  A    between atoms: C1_1  and  C2_2
REMARK    2  A    between atoms: C2_2  and  C3_3
REMARK    3  A    between atoms: C2_2  and  C4_4
REMARK    4  A    between atoms: C6_6  and  C22_30
REMARK    5  A    between atoms: C7_7  and  C16_23
REMARK    6  A    between atoms: N1_8  and  C8_9
REMARK    7  A    between atoms: C9_10  and  C10_11
REMARK    8  A    between atoms: C10_11  and  C11_13
REMARK    9  A    between atoms: C10_11  and  O4_22
REMARK   10  A    between atoms: C11_13  and  C12_14
REMARK   11  A    between atoms: C12_14  and  C13_16
REMARK   12  A    between atoms: C12_14  and  O3_21
REMARK   13  A    between atoms: C13_16  and  C14_17
REMARK   14  A    between atoms: C14_17  and  O2_19
REMARK   15  A    between atoms: O2_19  and  C15_20
REMARK                            x       y       z     vdW  Elec       q    Type
REMARK                         _______ _______ _______ _____ _____    ______ ____
ROOT
ATOM      1  C4  <0> A   1     -28.341  -4.171  52.261  0.00  0.00    +0.082 C 
ATOM      2  C5  <0> A   1     -29.006  -3.006  52.397  0.00  0.00    -0.144 C 
ATOM      3  C6  <0> A   1     -28.067  -1.955  52.256  0.00  0.00    -0.077 C 
ATOM      4  C7  <0> A   1     -26.834  -2.544  52.033  0.00  0.00    +0.073 C 
ATOM      5  N1  <0> A   1     -27.018  -3.905  52.044  0.00  0.00    -0.383 N 
ATOM      6 Br1  <0> A   1     -30.859  -2.811  52.718  0.00  0.00    -0.015 Br
ENDROOT
BRANCH   4   7
ATOM      7  C16 <0> A   1     -25.555  -1.839  51.828  0.00  0.00    -0.035 A 
ATOM      8  C17 <0> A   1     -24.713  -1.581  52.913  0.00  0.00    +0.063 A 
ATOM      9  C18 <0> A   1     -23.518  -0.920  52.714  0.00  0.00    -0.011 A 
ATOM     10  C19 <0> A   1     -23.152  -0.514  51.441  0.00  0.00    +0.109 A 
ATOM     11  C20 <0> A   1     -23.982  -0.767  50.360  0.00  0.00    -0.010 A 
ATOM     12  C21 <0> A   1     -25.176  -1.431  50.545  0.00  0.00    +0.069 A 
ATOM     13  F1  <0> A   1     -21.980   0.132  51.252  0.00  0.00    -0.136 F 
ENDBRANCH   4   7
BRANCH   3  14
ATOM     14  C22 <0> A   1     -28.351  -0.503  52.332  0.00  0.00    -0.021 A 
ATOM     15  C23 <0> A   1     -28.434   0.130  53.572  0.00  0.00    +0.054 A 
ATOM     16  C24 <0> A   1     -28.697   1.483  53.636  0.00  0.00    -0.015 A 
ATOM     17  C25 <0> A   1     -28.881   2.212  52.473  0.00  0.00    +0.101 A 
ATOM     18  C26 <0> A   1     -28.801   1.587  51.239  0.00  0.00    -0.014 A 
ATOM     19  C27 <0> A   1     -28.531   0.236  51.163  0.00  0.00    +0.065 A 
ATOM     20  F2  <0> A   1     -29.141   3.536  52.541  0.00  0.00    -0.139 F 
ENDBRANCH   3  14
BRANCH   1  22
ATOM     21  C1  <0> A   1     -29.034  -6.152  50.940  0.00  0.00    +0.040 C 
ATOM     22  C2  <0> A   1     -28.956  -5.544  52.342  0.00  0.00    +0.051 C 
ATOM     23  C3  <0> A   1     -28.095  -6.437  53.238  0.00  0.00    +0.040 C 
ENDBRANCH   1  22
BRANCH   5  24
ATOM     24  C8  <0> A   1     -26.018  -4.860  51.861  0.00  0.00    +0.201 C 
ATOM     25  C9  <0> A   1     -25.632  -5.186  50.643  0.00  0.00    -0.048 C 
BRANCH  25  26
ATOM     26  C10 <0> A   1     -24.553  -6.218  50.445  0.00  0.00    +0.268 C 
BRANCH  26  27
ATOM     27  O4  <0> A   1     -23.727  -6.273  51.610  0.00  0.00    -0.538 OA
ATOM     28  H20 <0> A   1     -23.535  -5.408  51.996  0.00  0.00    +0.371 HD
ENDBRANCH  26  27
BRANCH  26  29
ATOM     29  C11 <0> A   1     -25.193  -7.587  50.208  0.00  0.00    -0.014 C 
BRANCH  29  30
ATOM     30  C12 <0> A   1     -24.316  -8.402  49.257  0.00  0.00    +0.233 C 
BRANCH  30  31
ATOM     31  O3  <0> A   1     -23.380  -7.536  48.611  0.00  0.00    -0.530 OA
ATOM     32  H19 <0> A   1     -22.926  -6.930  49.212  0.00  0.00    +0.366 HD
ENDBRANCH  30  31
BRANCH  30  33
ATOM     33  C13 <0> A   1     -23.559  -9.470  50.049  0.00  0.00    +0.073 C 
BRANCH  33  34
ATOM     34  C14 <0> A   1     -24.473 -10.637  50.323  0.00  0.00    +0.456 C 
ATOM     35  O1  <0> A   1     -24.588 -11.063  51.447  0.00  0.00    -0.486 OA
BRANCH  34  36
ATOM     36  O2  <0> A   1     -25.159 -11.201  49.317  0.00  0.00    -0.359 OA
ATOM     37  C15 <0> A   1     -24.441 -12.093  48.462  0.00  0.00    +0.258 C 
ENDBRANCH  34  36
ENDBRANCH  33  34
ENDBRANCH  30  33
ENDBRANCH  29  30
ENDBRANCH  26  29
ENDBRANCH  25  26
ENDBRANCH   5  24
TORSDOF 12
ENDMDL
MODEL 10
REMARK VINA RESULT:      -7.0     15.066     18.143
REMARK  Name = CHEMBL445123
REMARK  15 active torsions:
REMARK  status: ('A' for Active; 'I' for Inactive)
REMARK    1  A    between atoms: C1_1  and  C2_2
REMARK    2  A    between atoms: C2_2  and  C3_3
REMARK    3  A    between atoms: C2_2  and  C4_4
REMARK    4  A    between atoms: C6_6  and  C22_30
REMARK    5  A    between atoms: C7_7  and  C16_23
REMARK    6  A    between atoms: N1_8  and  C8_9
REMARK    7  A    between atoms: C9_10  and  C10_11
REMARK    8  A    between atoms: C10_11  and  C11_13
REMARK    9  A    between atoms: C10_11  and  O4_22
REMARK   10  A    between atoms: C11_13  and  C12_14
REMARK   11  A    between atoms: C12_14  and  C13_16
REMARK   12  A    between atoms: C12_14  and  O3_21
REMARK   13  A    between atoms: C13_16  and  C14_17
REMARK   14  A    between atoms: C14_17  and  O2_19
REMARK   15  A    between atoms: O2_19  and  C15_20
REMARK                            x       y       z     vdW  Elec       q    Type
REMARK                         _______ _______ _______ _____ _____    ______ ____
ROOT
ATOM      1  C4  <0> A   1     -26.818  -1.697  50.639  0.00  0.00    +0.082 C 
ATOM      2  C5  <0> A   1     -26.529  -0.397  50.853  0.00  0.00    -0.144 C 
ATOM      3  C6  <0> A   1     -25.206  -0.327  51.351  0.00  0.00    -0.077 C 
ATOM      4  C7  <0> A   1     -24.732  -1.627  51.420  0.00  0.00    +0.073 C 
ATOM      5  N1  <0> A   1     -25.736  -2.456  50.984  0.00  0.00    -0.383 N 
ATOM      6 Br1  <0> A   1     -27.684   1.068  50.544  0.00  0.00    -0.015 Br
ENDROOT
BRANCH   4   7
ATOM      7  C16 <0> A   1     -23.395  -2.044  51.884  0.00  0.00    -0.035 A 
ATOM      8  C17 <0> A   1     -23.057  -1.941  53.236  0.00  0.00    +0.063 A 
ATOM      9  C18 <0> A   1     -21.805  -2.333  53.662  0.00  0.00    -0.011 A 
ATOM     10  C19 <0> A   1     -20.884  -2.829  52.753  0.00  0.00    +0.109 A 
ATOM     11  C20 <0> A   1     -21.213  -2.934  51.411  0.00  0.00    -0.010 A 
ATOM     12  C21 <0> A   1     -22.464  -2.551  50.973  0.00  0.00    +0.069 A 
ATOM     13  F1  <0> A   1     -19.659  -3.212  53.178  0.00  0.00    -0.136 F 
ENDBRANCH   4   7
BRANCH   3  14
ATOM     14  C22 <0> A   1     -24.469   0.902  51.726  0.00  0.00    -0.021 A 
ATOM     15  C23 <0> A   1     -23.430   1.368  50.919  0.00  0.00    +0.054 A 
ATOM     16  C24 <0> A   1     -22.747   2.513  51.272  0.00  0.00    -0.015 A 
ATOM     17  C25 <0> A   1     -23.089   3.200  52.426  0.00  0.00    +0.101 A 
ATOM     18  C26 <0> A   1     -24.119   2.740  53.231  0.00  0.00    -0.014 A 
ATOM     19  C27 <0> A   1     -24.813   1.599  52.883  0.00  0.00    +0.065 A 
ATOM     20  F2  <0> A   1     -22.416   4.320  52.768  0.00  0.00    -0.139 F 
ENDBRANCH   3  14
BRANCH   1  22
ATOM     21  C1  <0> A   1     -27.855  -3.366  49.127  0.00  0.00    +0.040 C 
ATOM     22  C2  <0> A   1     -28.127  -2.226  50.110  0.00  0.00    +0.051 C 
ATOM     23  C3  <0> A   1     -28.974  -2.747  51.274  0.00  0.00    +0.040 C 
ENDBRANCH   1  22
BRANCH   5  24
ATOM     24  C8  <0> A   1     -25.662  -3.846  50.904  0.00  0.00    +0.201 C 
ATOM     25  C9  <0> A   1     -25.814  -4.579  51.991  0.00  0.00    -0.048 C 
BRANCH  25  26
ATOM     26  C10 <0> A   1     -25.733  -6.081  51.904  0.00  0.00    +0.268 C 
BRANCH  26  27
ATOM     27  O4  <0> A   1     -26.969  -6.596  51.403  0.00  0.00    -0.538 OA
ATOM     28  H20 <0> A   1     -26.882  -7.439  50.937  0.00  0.00    +0.371 HD
ENDBRANCH  26  27
BRANCH  26  29
ATOM     29  C11 <0> A   1     -24.595  -6.477  50.963  0.00  0.00    -0.014 C 
BRANCH  29  30
ATOM     30  C12 <0> A   1     -25.142  -7.375  49.852  0.00  0.00    +0.233 C 
BRANCH  30  31
ATOM     31  O3  <0> A   1     -25.785  -6.570  48.862  0.00  0.00    -0.530 OA
ATOM     32  H19 <0> A   1     -26.751  -6.590  48.906  0.00  0.00    +0.366 HD
ENDBRANCH  30  31
BRANCH  30  33
ATOM     33  C13 <0> A   1     -23.990  -8.150  49.209  0.00  0.00    +0.073 C 
BRANCH  33  34
ATOM     34  C14 <0> A   1     -24.419  -8.659  47.857  0.00  0.00    +0.456 C 
ATOM     35  O1  <0> A   1     -23.994  -8.139  46.853  0.00  0.00    -0.486 OA
BRANCH  34  36
ATOM     36  O2  <0> A   1     -25.274  -9.690  47.768  0.00  0.00    -0.359 OA
ATOM     37  C15 <0> A   1     -24.823 -10.951  48.269  0.00  0.00    +0.258 C 
ENDBRANCH  34  36
ENDBRANCH  33  34
ENDBRANCH  30  33
ENDBRANCH  29  30
ENDBRANCH  26  29
ENDBRANCH  25  26
ENDBRANCH   5  24
TORSDOF 12
ENDMDL
