REMARK VINA RESULT:      -7.8     16.032     20.846
REMARK  Name = CHEMBL228955
REMARK  14 active torsions:
REMARK  status: ('A' for Active; 'I' for Inactive)
REMARK    1  A    between atoms: C1_1  and  C2_2
REMARK    2  A    between atoms: C2_2  and  C3_3
REMARK    3  A    between atoms: C2_2  and  N1_4
REMARK    4  A    between atoms: C4_5  and  C24_28
REMARK    5  A    between atoms: C5_6  and  C18_21
REMARK    6  A    between atoms: N2_11  and  C12_15
REMARK    7  A    between atoms: C24_28  and  C25_29
REMARK    8  A    between atoms: C25_29  and  C26_30
REMARK    9  A    between atoms: C26_30  and  C27_32
REMARK   10  A    between atoms: C26_30  and  O5_40
REMARK   11  A    between atoms: C27_32  and  C28_33
REMARK   12  A    between atoms: C28_33  and  C29_35
REMARK   13  A    between atoms: C28_33  and  O4_39
REMARK   14  A    between atoms: C29_35  and  C30_36
REMARK                            x       y       z     vdW  Elec       q    Type
REMARK                         _______ _______ _______ _____ _____    ______ ____
ROOT
ATOM      1  N1  <0> A   1     -27.763  -4.457  51.840  0.00  0.00    -0.392 N 
ATOM      2  C4  <0> A   1     -27.316  -5.708  51.632  0.00  0.00    +0.101 C 
ATOM      3  C5  <0> A   1     -26.018  -5.641  51.221  0.00  0.00    -0.157 C 
ATOM      4  C6  <0> A   1     -25.657  -4.275  51.176  0.00  0.00    -0.071 C 
ATOM      5  C7  <0> A   1     -26.746  -3.555  51.565  0.00  0.00    -0.044 C 
ATOM      6  C8  <0> A   1     -26.889  -2.115  51.712  0.00  0.00    +0.593 C 
ATOM      7  O1  <0> A   1     -27.983  -1.733  52.087  0.00  0.00    -0.552 OA
ATOM      8  N2  <0> A   1     -26.006  -1.168  51.496  0.00  0.00    -0.540 N 
ATOM      9  C9  <0> A   1     -24.668  -1.280  50.978  0.00  0.00    +0.265 C 
ATOM     10  C10 <0> A   1     -23.917  -2.496  51.447  0.00  0.00    +0.026 C 
ATOM     11  C11 <0> A   1     -24.316  -3.765  50.752  0.00  0.00    +0.101 C 
ENDROOT
BRANCH   3  12
ATOM     12  C18 <0> A   1     -25.143  -6.793  50.884  0.00  0.00    -0.006 A 
ATOM     13  C19 <0> A   1     -24.994  -7.189  49.557  0.00  0.00    +0.049 A 
ATOM     14  C20 <0> A   1     -24.179  -8.260  49.247  0.00  0.00    -0.015 A 
ATOM     15  C21 <0> A   1     -23.512  -8.940  50.252  0.00  0.00    +0.093 A 
ATOM     16  C22 <0> A   1     -23.658  -8.548  51.573  0.00  0.00    -0.017 A 
ATOM     17  C23 <0> A   1     -24.466  -7.475  51.892  0.00  0.00    +0.050 A 
ATOM     18  F1  <0> A   1     -22.716  -9.987  49.945  0.00  0.00    -0.142 F 
ENDBRANCH   3  12
BRANCH   8  19
ATOM     19  C12 <0> A   1     -26.421   0.127  51.815  0.00  0.00    +0.139 A 
ATOM     20  C13 <0> A   1     -26.160   0.653  53.074  0.00  0.00    +0.021 A 
ATOM     21  C14 <0> A   1     -26.573   1.933  53.386  0.00  0.00    +0.015 A 
ATOM     22  C15 <0> A   1     -27.245   2.693  52.447  0.00  0.00    +0.006 A 
ATOM     23  C16 <0> A   1     -27.508   2.172  51.192  0.00  0.00    +0.016 A 
ATOM     24  C17 <0> A   1     -27.093   0.895  50.872  0.00  0.00    +0.007 A 
ENDBRANCH   8  19
BRANCH   1  26
ATOM     25  C1  <0> A   1     -30.109  -4.386  51.153  0.00  0.00    +0.038 C 
ATOM     26  C2  <0> A   1     -29.114  -4.102  52.280  0.00  0.00    +0.242 C 
ATOM     27  C3  <0> A   1     -29.485  -4.935  53.509  0.00  0.00    +0.039 C 
ENDBRANCH   1  26
BRANCH   2  28
ATOM     28  C24 <0> A   1     -28.115  -6.972  51.821  0.00  0.00    +0.115 C 
BRANCH  28  29
ATOM     29  C25 <0> A   1     -28.478  -7.556  50.455  0.00  0.00    -0.006 C 
BRANCH  29  30
ATOM     30  C26 <0> A   1     -28.859  -9.028  50.613  0.00  0.00    +0.212 C 
BRANCH  30  31
ATOM     31  O5  <0> A   1     -27.675  -9.825  50.668  0.00  0.00    -0.541 OA
ATOM     32  H34 <0> A   1     -27.361 -10.003  51.565  0.00  0.00    +0.362 HD
ENDBRANCH  30  31
BRANCH  30  33
ATOM     33  C27 <0> A   1     -29.657  -9.213  51.906  0.00  0.00    -0.051 C 
BRANCH  33  34
ATOM     34  C28 <0> A   1     -30.543 -10.455  51.786  0.00  0.00    +0.231 C 
BRANCH  34  35
ATOM     35  O4  <0> A   1     -30.290 -11.101  50.537  0.00  0.00    -0.528 OA
ATOM     36  H33 <0> A   1     -30.764 -11.935  50.422  0.00  0.00    +0.349 HD
ENDBRANCH  34  35
BRANCH  34  37
ATOM     37  C29 <0> A   1     -30.227 -11.419  52.931  0.00  0.00    -0.103 C 
BRANCH  37  38
ATOM     38  C30 <0> A   1     -29.464 -12.603  52.395  0.00  0.00    +0.490 C 
ATOM     39  O2  <0> A   1     -30.022 -13.679  52.264  0.00  0.00    -0.681 OA
ATOM     40  O3  <0> A   1     -28.289 -12.484  52.092  0.00  0.00    -0.713 OA
ENDBRANCH  37  38
ENDBRANCH  34  37
ENDBRANCH  33  34
ENDBRANCH  30  33
ENDBRANCH  29  30
ENDBRANCH  28  29
ENDBRANCH   2  28
TORSDOF 12
