REMARK VINA RESULT:      -8.0      4.713      8.166
REMARK  Name = CHEMBL392897
REMARK  17 active torsions:
REMARK  status: ('A' for Active; 'I' for Inactive)
REMARK    1  A    between atoms: C1_1  and  C2_2
REMARK    2  A    between atoms: C2_2  and  N1_3
REMARK    3  A    between atoms: C3_4  and  C21_27
REMARK    4  A    between atoms: C4_5  and  C15_20
REMARK    5  A    between atoms: C5_6  and  C14_19
REMARK    6  A    between atoms: C6_7  and  C7_8
REMARK    7  A    between atoms: N2_10  and  C8_11
REMARK    8  A    between atoms: C8_11  and  C9_12
REMARK    9  A    between atoms: C11_15  and  C13_18
REMARK   10  A    between atoms: C21_27  and  C22_28
REMARK   11  A    between atoms: C22_28  and  C23_29
REMARK   12  A    between atoms: C23_29  and  C24_31
REMARK   13  A    between atoms: C23_29  and  O5_39
REMARK   14  A    between atoms: C24_31  and  C25_32
REMARK   15  A    between atoms: C25_32  and  C26_34
REMARK   16  A    between atoms: C25_32  and  O4_38
REMARK   17  A    between atoms: C26_34  and  C27_35
REMARK                            x       y       z     vdW  Elec       q    Type
REMARK                         _______ _______ _______ _____ _____    ______ ____
ROOT
ATOM      1  N1  <0> A   1     -11.553   7.366  45.988  0.00  0.00    -0.407 N 
ATOM      2  C3  <0> A   1     -12.816   7.638  45.605  0.00  0.00    +0.078 C 
ATOM      3  C4  <0> A   1     -13.676   7.069  46.501  0.00  0.00    -0.142 C 
ATOM      4  C5  <0> A   1     -12.898   6.420  47.478  0.00  0.00    -0.087 C 
ATOM      5  C6  <0> A   1     -11.588   6.611  47.139  0.00  0.00    -0.052 C 
ATOM      6  C14 <0> A   1     -13.413   5.654  48.669  0.00  0.00    +0.109 C 
ENDROOT
BRANCH   3   7
ATOM      7  C15 <0> A   1     -15.159   7.128  46.453  0.00  0.00    -0.008 A 
ATOM      8  C16 <0> A   1     -15.870   6.214  45.681  0.00  0.00    +0.049 A 
ATOM      9  C17 <0> A   1     -17.249   6.272  45.639  0.00  0.00    -0.016 A 
ATOM     10  C18 <0> A   1     -17.925   7.240  46.366  0.00  0.00    +0.093 A 
ATOM     11  C19 <0> A   1     -17.220   8.151  47.136  0.00  0.00    -0.017 A 
ATOM     12  C20 <0> A   1     -15.843   8.096  47.187  0.00  0.00    +0.053 A 
ATOM     13  F1  <0> A   1     -19.274   7.294  46.323  0.00  0.00    -0.142 F 
ENDBRANCH   3   7
BRANCH   5  14
ATOM     14  C7  <0> A   1     -10.424   6.102  47.873  0.00  0.00    +0.602 C 
ATOM     15  O1  <0> A   1     -10.140   6.568  48.961  0.00  0.00    -0.518 OA
ATOM     16  N2  <0> A   1      -9.671   5.118  47.345  0.00  0.00    -0.718 N 
ATOM     17  H8  <0> A   1      -9.853   4.797  46.447  0.00  0.00    +0.405 HD
BRANCH  16  18
ATOM     18  C8  <0> A   1      -8.578   4.531  48.124  0.00  0.00    +0.361 C 
BRANCH  18  19
ATOM     19  C9  <0> A   1      -7.431   4.192  47.207  0.00  0.00    +0.046 A 
ATOM     20  C10 <0> A   1      -7.620   3.300  46.165  0.00  0.00    +0.252 A 
ATOM     21  N3  <0> A   1      -6.614   3.003  45.360  0.00  0.00    -0.439 NA
ATOM     22  C11 <0> A   1      -5.430   3.557  45.551  0.00  0.00    +0.088 A 
ATOM     23  C12 <0> A   1      -5.243   4.448  46.593  0.00  0.00    +0.226 A 
ATOM     24  N4  <0> A   1      -6.249   4.749  47.395  0.00  0.00    -0.418 NA
ATOM     25  C13 <0> A   1      -4.283   3.218  44.635  0.00  0.00    +0.146 C 
ENDBRANCH  18  19
ENDBRANCH  16  18
ENDBRANCH   5  14
BRANCH   1  27
ATOM     26  C1  <0> A   1      -9.997   9.231  45.706  0.00  0.00    +0.040 C 
ATOM     27  C2  <0> A   1     -10.339   7.799  45.292  0.00  0.00    +0.280 C 
ENDBRANCH   1  27
BRANCH   2  28
ATOM     28  C21 <0> A   1     -13.213   8.437  44.390  0.00  0.00    +0.116 C 
BRANCH  28  29
ATOM     29  C22 <0> A   1     -13.543   7.485  43.239  0.00  0.00    -0.007 C 
BRANCH  29  30
ATOM     30  C23 <0> A   1     -12.425   7.538  42.195  0.00  0.00    +0.212 C 
BRANCH  30  31
ATOM     31  O5  <0> A   1     -11.722   6.295  42.186  0.00  0.00    -0.542 OA
ATOM     32  H32 <0> A   1     -11.889   5.742  42.963  0.00  0.00    +0.363 HD
ENDBRANCH  30  31
BRANCH  30  33
ATOM     33  C24 <0> A   1     -13.030   7.792  40.813  0.00  0.00    -0.051 C 
BRANCH  33  34
ATOM     34  C25 <0> A   1     -12.409   9.054  40.209  0.00  0.00    +0.230 C 
BRANCH  34  35
ATOM     35  O4  <0> A   1     -12.481   8.985  38.784  0.00  0.00    -0.528 OA
ATOM     36  H31 <0> A   1     -11.722   9.378  38.332  0.00  0.00    +0.349 HD
ENDBRANCH  34  35
BRANCH  34  37
ATOM     37  C26 <0> A   1     -13.177  10.284  40.699  0.00  0.00    -0.103 C 
BRANCH  37  38
ATOM     38  C27 <0> A   1     -13.326  11.266  39.565  0.00  0.00    +0.491 C 
ATOM     39  O2  <0> A   1     -14.402  11.392  39.005  0.00  0.00    -0.681 OA
ATOM     40  O3  <0> A   1     -12.371  11.934  39.208  0.00  0.00    -0.713 OA
ENDBRANCH  37  38
ENDBRANCH  34  37
ENDBRANCH  33  34
ENDBRANCH  30  33
ENDBRANCH  29  30
ENDBRANCH  28  29
ENDBRANCH   2  28
TORSDOF 14
