REMARK VINA RESULT:      -7.9     15.203     18.900
REMARK  Name = CHEMBL254036
REMARK  16 active torsions:
REMARK  status: ('A' for Active; 'I' for Inactive)
REMARK    1  A    between atoms: C1_1  and  C2_2
REMARK    2  A    between atoms: C2_2  and  C3_3
REMARK    3  A    between atoms: C2_2  and  C4_4
REMARK    4  A    between atoms: C5_5  and  C21_26
REMARK    5  A    between atoms: N2_7  and  C15_19
REMARK    6  A    between atoms: C6_8  and  C7_9
REMARK    7  A    between atoms: N3_11  and  C8_12
REMARK    8  A    between atoms: C8_12  and  C9_13
REMARK    9  A    between atoms: C21_26  and  C22_27
REMARK   10  A    between atoms: C22_27  and  C23_28
REMARK   11  A    between atoms: C23_28  and  C24_30
REMARK   12  A    between atoms: C23_28  and  O5_38
REMARK   13  A    between atoms: C24_30  and  C25_31
REMARK   14  A    between atoms: C25_31  and  C26_33
REMARK   15  A    between atoms: C25_31  and  O4_37
REMARK   16  A    between atoms: C26_33  and  C27_34
REMARK                            x       y       z     vdW  Elec       q    Type
REMARK                         _______ _______ _______ _____ _____    ______ ____
ROOT
ATOM      1  C4  <0> A   1     -27.003  -5.287  51.250  0.00  0.00    -0.123 C 
ATOM      2  C5  <0> A   1     -25.730  -5.805  51.502  0.00  0.00    +0.056 C 
ATOM      3  N1  <0> A   1     -24.893  -4.801  51.563  0.00  0.00    -0.273 NA
ATOM      4  N2  <0> A   1     -25.499  -3.684  51.377  0.00  0.00    -0.230 N 
ATOM      5  C6  <0> A   1     -26.831  -3.916  51.167  0.00  0.00    -0.035 C 
ENDROOT
BRANCH   4   6
ATOM      6  C15 <0> A   1     -24.890  -2.423  51.383  0.00  0.00    +0.120 A 
ATOM      7  C16 <0> A   1     -24.452  -1.869  52.578  0.00  0.00    +0.057 A 
ATOM      8  C17 <0> A   1     -23.852  -0.625  52.583  0.00  0.00    +0.015 A 
ATOM      9  C18 <0> A   1     -23.687   0.070  51.395  0.00  0.00    +0.109 A 
ATOM     10  C19 <0> A   1     -24.124  -0.481  50.202  0.00  0.00    +0.012 A 
ATOM     11  C20 <0> A   1     -24.721  -1.727  50.193  0.00  0.00    +0.080 A 
ATOM     12  F1  <0> A   1     -23.101   1.286  51.401  0.00  0.00    -0.132 F 
ENDBRANCH   4   6
BRANCH   5  13
ATOM     13  C7  <0> A   1     -27.872  -2.910  50.907  0.00  0.00    +0.602 C 
ATOM     14  O1  <0> A   1     -28.366  -2.817  49.799  0.00  0.00    -0.514 OA
ATOM     15  N3  <0> A   1     -28.280  -2.091  51.897  0.00  0.00    -0.713 N 
ATOM     16  H10 <0> A   1     -27.836  -2.113  52.759  0.00  0.00    +0.405 HD
BRANCH  15  17
ATOM     17  C8  <0> A   1     -29.392  -1.166  51.671  0.00  0.00    +0.324 C 
BRANCH  17  18
ATOM     18  C9  <0> A   1     -28.867   0.245  51.603  0.00  0.00    -0.112 A 
ATOM     19  C10 <0> A   1     -29.742   1.313  51.675  0.00  0.00    +0.027 A 
ATOM     20  C11 <0> A   1     -29.260   2.607  51.613  0.00  0.00    +0.004 A 
ATOM     21  C12 <0> A   1     -27.903   2.834  51.479  0.00  0.00    +0.014 A 
ATOM     22  C13 <0> A   1     -27.028   1.766  51.407  0.00  0.00    +0.002 A 
ATOM     23  C14 <0> A   1     -27.509   0.471  51.474  0.00  0.00    +0.024 A 
ENDBRANCH  17  18
ENDBRANCH  15  17
ENDBRANCH   5  13
BRANCH   1  25
ATOM     24  C1  <0> A   1     -28.234  -6.885  49.809  0.00  0.00    +0.023 C 
ATOM     25  C2  <0> A   1     -28.288  -6.059  51.095  0.00  0.00    +0.066 C 
ATOM     26  C3  <0> A   1     -28.472  -6.991  52.293  0.00  0.00    +0.030 C 
ENDBRANCH   1  25
BRANCH   2  27
ATOM     27  C21 <0> A   1     -25.383  -7.261  51.672  0.00  0.00    +0.141 C 
BRANCH  27  28
ATOM     28  C22 <0> A   1     -24.160  -7.598  50.817  0.00  0.00    -0.007 C 
BRANCH  28  29
ATOM     29  C23 <0> A   1     -24.568  -7.660  49.344  0.00  0.00    +0.212 C 
BRANCH  29  30
ATOM     30  O5  <0> A   1     -23.401  -7.571  48.523  0.00  0.00    -0.542 OA
ATOM     31  H31 <0> A   1     -23.508  -7.004  47.748  0.00  0.00    +0.364 HD
ENDBRANCH  29  30
BRANCH  29  32
ATOM     32  C24 <0> A   1     -25.285  -8.983  49.069  0.00  0.00    -0.052 C 
BRANCH  32  33
ATOM     33  C25 <0> A   1     -24.738 -10.063  50.004  0.00  0.00    +0.230 C 
BRANCH  33  34
ATOM     34  O4  <0> A   1     -25.825 -10.786  50.584  0.00  0.00    -0.528 OA
ATOM     35  H30 <0> A   1     -26.182 -10.383  51.387  0.00  0.00    +0.350 HD
ENDBRANCH  33  34
BRANCH  33  36
ATOM     36  C26 <0> A   1     -23.852 -11.025  49.209  0.00  0.00    -0.103 C 
BRANCH  36  37
ATOM     37  C27 <0> A   1     -24.601 -12.308  48.959  0.00  0.00    +0.490 C 
ATOM     38  O2  <0> A   1     -24.464 -13.252  49.718  0.00  0.00    -0.681 OA
ATOM     39  O3  <0> A   1     -25.344 -12.402  47.997  0.00  0.00    -0.714 OA
ENDBRANCH  36  37
ENDBRANCH  33  36
ENDBRANCH  32  33
ENDBRANCH  29  32
ENDBRANCH  28  29
ENDBRANCH  27  28
ENDBRANCH   2  27
TORSDOF 14
