REMARK VINA RESULT:      -8.0      2.539      6.379
REMARK  Name = CHEMBL320943
REMARK  13 active torsions:
REMARK  status: ('A' for Active; 'I' for Inactive)
REMARK    1  A    between atoms: C1_1  and  C2_2
REMARK    2  A    between atoms: C2_2  and  C3_3
REMARK    3  A    between atoms: C3_3  and  C4_5
REMARK    4  A    between atoms: C3_3  and  C5_6
REMARK    5  A    between atoms: C5_6  and  O2_8
REMARK    6  A    between atoms: O2_8  and  C6_9
REMARK    7  A    between atoms: C13_20  and  C18_27
REMARK    8  A    between atoms: C16_23  and  O3_26
REMARK    9  A    between atoms: C20_30  and  C31_46
REMARK   10  A    between atoms: C21_31  and  C24_34
REMARK   11  A    between atoms: C24_34  and  C25_35
REMARK   12  A    between atoms: C25_35  and  C26_36
REMARK   13  A    between atoms: C28_39  and  O6_45
REMARK                            x       y       z     vdW  Elec       q    Type
REMARK                         _______ _______ _______ _____ _____    ______ ____
ROOT
ATOM      1  C6  <0> A   1     -23.998  -3.526  51.322  0.00  0.00    +0.188 C 
ATOM      2  C7  <0> A   1     -25.138  -2.905  50.498  0.00  0.00    +0.016 C 
ATOM      3  C8  <0> A   1     -26.184  -2.256  51.397  0.00  0.00    +0.014 C 
ATOM      4  C9  <0> A   1     -25.555  -1.213  52.335  0.00  0.00    +0.004 C 
ATOM      5  C10 <0> A   1     -26.643  -0.626  53.235  0.00  0.00    +0.013 C 
ATOM      6  C11 <0> A   1     -27.709   0.049  52.370  0.00  0.00    +0.013 C 
ATOM      7  C12 <0> A   1     -28.332  -0.982  51.428  0.00  0.00    +0.001 C 
ATOM      8  C13 <0> A   1     -27.252  -1.566  50.546  0.00  0.00    -0.049 C 
ATOM      9  C14 <0> A   1     -27.879  -2.583  49.591  0.00  0.00    +0.019 C 
ATOM     10  C15 <0> A   1     -28.519  -3.714  50.398  0.00  0.00    -0.019 C 
ATOM     11  C16 <0> A   1     -29.602  -3.137  51.313  0.00  0.00    +0.155 C 
ATOM     12  C17 <0> A   1     -28.979  -2.099  52.249  0.00  0.00    +0.033 C 
ATOM     13  C18 <0> A   1     -26.608  -0.435  49.740  0.00  0.00    +0.023 C 
ATOM     14  C19 <0> A   1     -24.493  -1.925  53.151  0.00  0.00    +0.003 C 
ATOM     15  C20 <0> A   1     -23.399  -2.423  52.171  0.00  0.00    -0.055 C 
ATOM     16  C21 <0> A   1     -22.244  -2.817  53.086  0.00  0.00    -0.002 C 
ATOM     17  C22 <0> A   1     -22.388  -1.915  54.338  0.00  0.00    +0.011 C 
ATOM     18  C23 <0> A   1     -23.699  -1.047  54.126  0.00  0.00    +0.018 C 
ATOM     19  C31 <0> A   1     -22.976  -1.255  51.277  0.00  0.00    +0.041 C 
ENDROOT
BRANCH  11  20
ATOM     20  O3  <0> A   1     -30.199  -4.194  52.068  0.00  0.00    -0.568 OA
ATOM     21  H30 <0> A   1     -29.654  -4.509  52.801  0.00  0.00    +0.377 HD
ENDBRANCH  11  20
BRANCH   1  22
ATOM     22  O2  <0> A   1     -24.514  -4.561  52.162  0.00  0.00    -0.335 OA
BRANCH  22  23
ATOM     23  C5  <0> A   1     -24.575  -5.796  51.641  0.00  0.00    +0.462 C 
ATOM     24  O1  <0> A   1     -23.720  -6.607  51.908  0.00  0.00    -0.506 OA
BRANCH  23  25
ATOM     25  C3  <0> A   1     -25.709  -6.172  50.723  0.00  0.00    +0.023 C 
ATOM     26  C4  <0> A   1     -25.161  -6.963  49.533  0.00  0.00    +0.058 C 
BRANCH  25  28
ATOM     27  C1  <0> A   1     -27.237  -6.258  52.698  0.00  0.00    +0.022 C 
ATOM     28  C2  <0> A   1     -26.719  -7.032  51.484  0.00  0.00    +0.031 C 
ENDBRANCH  25  28
ENDBRANCH  23  25
ENDBRANCH  22  23
ENDBRANCH   1  22
BRANCH  16  29
ATOM     29  C24 <0> A   1     -20.906  -2.553  52.394  0.00  0.00    +0.025 C 
BRANCH  29  30
ATOM     30  C25 <0> A   1     -19.933  -1.918  53.389  0.00  0.00    +0.047 C 
BRANCH  30  31
ATOM     31  C26 <0> A   1     -19.171  -3.019  54.130  0.00  0.00    +0.194 C 
ATOM     32  C27 <0> A   1     -17.774  -2.513  54.500  0.00  0.00    +0.039 C 
ATOM     33  C28 <0> A   1     -16.999  -3.631  55.204  0.00  0.00    +0.183 C 
ATOM     34  C29 <0> A   1     -16.896  -4.834  54.258  0.00  0.00    +0.021 C 
ATOM     35  C30 <0> A   1     -18.285  -5.171  53.764  0.00  0.00    +0.496 C 
ATOM     36  O4  <0> A   1     -18.699  -6.306  53.799  0.00  0.00    -0.454 OA
ATOM     37  O5  <0> A   1     -19.050  -4.168  53.285  0.00  0.00    -0.366 OA
BRANCH  33  38
ATOM     38  O6  <0> A   1     -17.688  -4.013  56.395  0.00  0.00    -0.564 OA
ATOM     39  H47 <0> A   1     -17.541  -4.933  56.656  0.00  0.00    +0.386 HD
ENDBRANCH  33  38
ENDBRANCH  30  31
ENDBRANCH  29  30
ENDBRANCH  16  29
TORSDOF 9
