REMARK VINA RESULT:      -7.0     17.087     20.220
REMARK  Name = CHEMBL348225
REMARK  13 active torsions:
REMARK  status: ('A' for Active; 'I' for Inactive)
REMARK    1  A    between atoms: C1_1  and  C2_2
REMARK    2  A    between atoms: C2_2  and  C3_3
REMARK    3  A    between atoms: C2_2  and  C4_4
REMARK    4  A    between atoms: C5_5  and  C19_20
REMARK    5  A    between atoms: C6_6  and  C14_15
REMARK    6  A    between atoms: C7_7  and  C8_9
REMARK    7  A    between atoms: C20_21  and  C21_22
REMARK    8  A    between atoms: C21_22  and  C22_24
REMARK    9  A    between atoms: C21_22  and  O4_32
REMARK   10  A    between atoms: C22_24  and  C23_25
REMARK   11  A    between atoms: C23_25  and  C24_27
REMARK   12  A    between atoms: C23_25  and  O3_31
REMARK   13  A    between atoms: C24_27  and  C25_28
REMARK                            x       y       z     vdW  Elec       q    Type
REMARK                         _______ _______ _______ _____ _____    ______ ____
ROOT
ATOM      1  C4  <0> A   1     -26.774  -5.464  50.792  0.00  0.00    -0.118 C 
ATOM      2  C5  <0> A   1     -25.448  -5.204  51.023  0.00  0.00    -0.085 C 
ATOM      3  C6  <0> A   1     -25.080  -3.918  51.398  0.00  0.00    -0.073 C 
ATOM      4  C7  <0> A   1     -26.051  -2.967  51.522  0.00  0.00    -0.128 C 
ATOM      5  S1  <0> A   1     -27.527  -3.876  51.097  0.00  0.00    +0.045 S 
ENDROOT
BRANCH   4   6
ATOM      6  C8  <0> A   1     -25.914  -1.544  51.903  0.00  0.00    +0.002 A 
ATOM      7  C9  <0> A   1     -25.751  -0.567  50.921  0.00  0.00    +0.019 A 
ATOM      8  C10 <0> A   1     -25.625   0.757  51.283  0.00  0.00    +0.007 A 
ATOM      9  C11 <0> A   1     -25.658   1.119  52.618  0.00  0.00    +0.007 A 
ATOM     10  C12 <0> A   1     -25.819   0.155  53.598  0.00  0.00    +0.009 A 
ATOM     11  C13 <0> A   1     -25.954  -1.172  53.248  0.00  0.00    +0.029 A 
ENDBRANCH   4   6
BRANCH   3  12
ATOM     12  C14 <0> A   1     -23.636  -3.580  51.664  0.00  0.00    +0.041 C 
ATOM     13  C15 <0> A   1     -23.527  -2.664  52.901  0.00  0.00    +0.017 C 
ATOM     14  C16 <0> A   1     -22.381  -1.684  52.548  0.00  0.00    +0.010 C 
ATOM     15  C17 <0> A   1     -22.609  -1.422  51.039  0.00  0.00    +0.005 C 
ATOM     16  C18 <0> A   1     -23.052  -2.791  50.480  0.00  0.00    +0.016 C 
ENDBRANCH   3  12
BRANCH   1  18
ATOM     17  C1  <0> A   1     -28.196  -7.342  51.566  0.00  0.00    +0.034 C 
ATOM     18  C2  <0> A   1     -27.427  -6.758  50.379  0.00  0.00    +0.084 C 
ATOM     19  C3  <0> A   1     -28.395  -6.495  49.224  0.00  0.00    +0.033 C 
ENDBRANCH   1  18
BRANCH   2  20
ATOM     20  C19 <0> A   1     -24.433  -6.268  50.876  0.00  0.00    +0.037 C 
ATOM     21  C20 <0> A   1     -24.368  -7.249  51.765  0.00  0.00    -0.066 C 
BRANCH  21  22
ATOM     22  C21 <0> A   1     -23.428  -8.405  51.544  0.00  0.00    +0.251 C 
BRANCH  22  23
ATOM     23  O4  <0> A   1     -23.572  -9.348  52.607  0.00  0.00    -0.539 OA
ATOM     24  H31 <0> A   1     -24.012  -8.992  53.392  0.00  0.00    +0.363 HD
ENDBRANCH  22  23
BRANCH  22  25
ATOM     25  C22 <0> A   1     -23.758  -9.084  50.212  0.00  0.00    -0.043 C 
BRANCH  25  26
ATOM     26  C23 <0> A   1     -24.103 -10.554  50.461  0.00  0.00    +0.231 C 
BRANCH  26  27
ATOM     27  O3  <0> A   1     -25.518 -10.693  50.604  0.00  0.00    -0.528 OA
ATOM     28  H30 <0> A   1     -25.988  -9.853  50.704  0.00  0.00    +0.349 HD
ENDBRANCH  26  27
BRANCH  26  29
ATOM     29  C24 <0> A   1     -23.624 -11.397  49.277  0.00  0.00    -0.102 C 
BRANCH  29  30
ATOM     30  C25 <0> A   1     -24.736 -12.310  48.829  0.00  0.00    +0.490 C 
ATOM     31  O1  <0> A   1     -25.367 -12.052  47.819  0.00  0.00    -0.681 OA
ATOM     32  O2  <0> A   1     -25.006 -13.307  49.479  0.00  0.00    -0.713 OA
ENDBRANCH  29  30
ENDBRANCH  26  29
ENDBRANCH  25  26
ENDBRANCH  22  25
ENDBRANCH  21  22
ENDBRANCH   2  20
TORSDOF 11
