REMARK VINA RESULT:      -7.9      0.000      0.000
REMARK  Name = CHEMBL250707
REMARK  16 active torsions:
REMARK  status: ('A' for Active; 'I' for Inactive)
REMARK    1  A    between atoms: C1_1  and  C2_2
REMARK    2  A    between atoms: C2_2  and  C3_3
REMARK    3  A    between atoms: C2_2  and  N1_4
REMARK    4  A    between atoms: C4_5  and  C24_28
REMARK    5  A    between atoms: C5_6  and  C18_21
REMARK    6  A    between atoms: C6_7  and  C12_15
REMARK    7  A    between atoms: C7_8  and  C8_9
REMARK    8  A    between atoms: N2_11  and  C9_12
REMARK    9  A    between atoms: C24_28  and  C25_29
REMARK   10  A    between atoms: C25_29  and  C26_30
REMARK   11  A    between atoms: C26_30  and  C27_32
REMARK   12  A    between atoms: C26_30  and  O5_40
REMARK   13  A    between atoms: C27_32  and  C28_33
REMARK   14  A    between atoms: C28_33  and  C29_35
REMARK   15  A    between atoms: C28_33  and  O4_39
REMARK   16  A    between atoms: C29_35  and  C30_36
REMARK                            x       y       z     vdW  Elec       q    Type
REMARK                         _______ _______ _______ _____ _____    ______ ____
ROOT
ATOM      1  N1  <0> A   1     -15.813   6.225  45.546  0.00  0.00    -0.402 N 
ATOM      2  C4  <0> A   1     -14.601   6.745  45.235  0.00  0.00    +0.074 C 
ATOM      3  C5  <0> A   1     -14.410   7.887  45.955  0.00  0.00    -0.122 C 
ATOM      4  C6  <0> A   1     -15.566   8.086  46.753  0.00  0.00    -0.057 C 
ATOM      5  C7  <0> A   1     -16.428   7.033  46.472  0.00  0.00    -0.033 C 
ENDROOT
BRANCH   3   6
ATOM      6  C18 <0> A   1     -13.213   8.763  45.911  0.00  0.00    -0.009 A 
ATOM      7  C19 <0> A   1     -12.150   8.537  46.784  0.00  0.00    +0.050 A 
ATOM      8  C20 <0> A   1     -11.039   9.354  46.740  0.00  0.00    -0.016 A 
ATOM      9  C21 <0> A   1     -10.978  10.397  45.829  0.00  0.00    +0.095 A 
ATOM     10  C22 <0> A   1     -12.033  10.624  44.960  0.00  0.00    -0.017 A 
ATOM     11  C23 <0> A   1     -13.145   9.809  44.993  0.00  0.00    +0.055 A 
ATOM     12  F1  <0> A   1      -9.889  11.194  45.790  0.00  0.00    -0.142 F 
ENDBRANCH   3   6
BRANCH   4  13
ATOM     13  C12 <0> A   1     -15.807   9.200  47.698  0.00  0.00    -0.010 A 
ATOM     14  C13 <0> A   1     -15.611   9.013  49.066  0.00  0.00    +0.026 A 
ATOM     15  C14 <0> A   1     -15.837  10.054  49.942  0.00  0.00    +0.003 A 
ATOM     16  C15 <0> A   1     -16.259  11.283  49.465  0.00  0.00    -0.002 A 
ATOM     17  C16 <0> A   1     -16.456  11.475  48.109  0.00  0.00    +0.001 A 
ATOM     18  C17 <0> A   1     -16.226  10.443  47.224  0.00  0.00    +0.009 A 
ENDBRANCH   4  13
BRANCH   5  19
ATOM     19  C8  <0> A   1     -17.753   6.822  47.060  0.00  0.00    +0.608 C 
ATOM     20  O1  <0> A   1     -18.753   7.111  46.428  0.00  0.00    -0.517 OA
ATOM     21  N2  <0> A   1     -17.865   6.308  48.301  0.00  0.00    -0.693 N 
ATOM     22  H10 <0> A   1     -17.070   6.141  48.831  0.00  0.00    +0.404 HD
BRANCH  21  23
ATOM     23  C9  <0> A   1     -19.189   6.004  48.851  0.00  0.00    +0.217 C 
ATOM     24  C10 <0> A   1     -19.837   7.053  49.757  0.00  0.00    +0.009 C 
ATOM     25  C11 <0> A   1     -19.288   5.757  50.358  0.00  0.00    +0.017 C 
ENDBRANCH  21  23
ENDBRANCH   5  19
BRANCH   1  27
ATOM     26  C1  <0> A   1     -16.991   5.307  43.610  0.00  0.00    +0.045 C 
ATOM     27  C2  <0> A   1     -16.380   4.999  44.978  0.00  0.00    +0.230 C 
ATOM     28  C3  <0> A   1     -15.276   3.951  44.821  0.00  0.00    +0.041 C 
ENDBRANCH   1  27
BRANCH   2  29
ATOM     29  C24 <0> A   1     -13.621   6.156  44.255  0.00  0.00    +0.117 C 
BRANCH  29  30
ATOM     30  C25 <0> A   1     -13.792   6.834  42.894  0.00  0.00    -0.007 C 
BRANCH  30  31
ATOM     31  C26 <0> A   1     -12.424   7.274  42.367  0.00  0.00    +0.212 C 
BRANCH  31  32
ATOM     32  O5  <0> A   1     -11.555   6.142  42.297  0.00  0.00    -0.542 OA
ATOM     33  H34 <0> A   1     -11.778   5.517  41.595  0.00  0.00    +0.362 HD
ENDBRANCH  31  32
BRANCH  31  34
ATOM     34  C27 <0> A   1     -12.585   7.880  40.973  0.00  0.00    -0.051 C 
BRANCH  34  35
ATOM     35  C28 <0> A   1     -12.968   9.355  41.098  0.00  0.00    +0.230 C 
BRANCH  35  36
ATOM     36  O4  <0> A   1     -11.796  10.133  41.350  0.00  0.00    -0.528 OA
ATOM     37  H33 <0> A   1     -11.359  10.455  40.550  0.00  0.00    +0.349 HD
ENDBRANCH  35  36
BRANCH  35  38
ATOM     38  C29 <0> A   1     -13.622   9.827  39.797  0.00  0.00    -0.103 C 
BRANCH  38  39
ATOM     39  C30 <0> A   1     -13.581  11.331  39.730  0.00  0.00    +0.490 C 
ATOM     40  O2  <0> A   1     -14.529  11.985  40.128  0.00  0.00    -0.681 OA
ATOM     41  O3  <0> A   1     -12.600  11.894  39.276  0.00  0.00    -0.713 OA
ENDBRANCH  38  39
ENDBRANCH  35  38
ENDBRANCH  34  35
ENDBRANCH  31  34
ENDBRANCH  30  31
ENDBRANCH  29  30
ENDBRANCH   2  29
TORSDOF 14
