REMARK  Name = CHEMBL468862
REMARK  13 active torsions:
REMARK  status: ('A' for Active; 'I' for Inactive)
REMARK    1  A    between atoms: C1_1  and  C2_2
REMARK    2  A    between atoms: C2_2  and  C3_3
REMARK    3  A    between atoms: C2_2  and  C4_4
REMARK    4  A    between atoms: C5_5  and  C22_29
REMARK    5  A    between atoms: C6_6  and  C16_22
REMARK    6  A    between atoms: C9_13  and  C10_16
REMARK    7  A    between atoms: C23_30  and  C24_31
REMARK    8  A    between atoms: C24_31  and  C25_33
REMARK    9  A    between atoms: C24_31  and  O4_41
REMARK   10  A    between atoms: C25_33  and  C26_34
REMARK   11  A    between atoms: C26_34  and  C27_36
REMARK   12  A    between atoms: C26_34  and  O3_40
REMARK   13  A    between atoms: C27_36  and  C28_37
REMARK                            x       y       z     vdW  Elec       q    Type
REMARK                         _______ _______ _______ _____ _____    ______ ____
ROOT
ATOM      1  C4  <0> A   1      -1.412  -0.526   0.013  0.00  0.00    +0.232 A 
ATOM      2  C5  <0> A   1      -1.876  -1.335  -1.028  0.00  0.00    -0.176 A 
ATOM      3  C6  <0> A   1      -3.207  -1.797  -0.969  0.00  0.00    +0.261 A 
ATOM      4  N1  <0> A   1      -3.962  -1.445   0.068  0.00  0.00    -0.504 NA
ATOM      5  C7  <0> A   1      -3.476  -0.675   1.029  0.00  0.00    +0.553 A 
ATOM      6  N2  <0> A   1      -2.228  -0.229   1.008  0.00  0.00    -0.545 NA
ATOM      7  N3  <0> A   1      -4.295  -0.332   2.092  0.00  0.00    -0.590 N 
ATOM      8  C8  <0> A   1      -5.611  -0.795   2.138  0.00  0.00    +0.489 C 
ATOM      9  N4  <0> A   1      -6.406  -0.476   3.136  0.00  0.00    -0.546 NA
ATOM     10  C9  <0> A   1      -7.643  -0.952   3.113  0.00  0.00    +0.116 C 
ATOM     11  S1  <0> A   1      -7.666  -1.842   1.687  0.00  0.00    +0.290 S 
ATOM     12  N5  <0> A   1      -6.093  -1.560   1.181  0.00  0.00    -0.436 NA
ATOM     13  H10 <0> A   1      -3.953   0.232   2.804  0.00  0.00    +0.438 HD
ENDROOT
BRANCH   3  14
ATOM     14  C16 <0> A   1      -3.755  -2.657  -2.043  0.00  0.00    -0.071 A 
ATOM     15  C17 <0> A   1      -3.352  -2.468  -3.365  0.00  0.00    +0.096 A 
ATOM     16  C18 <0> A   1      -3.864  -3.272  -4.361  0.00  0.00    -0.016 A 
ATOM     17  C19 <0> A   1      -4.779  -4.267  -4.051  0.00  0.00    +0.120 A 
ATOM     18  C20 <0> A   1      -5.183  -4.457  -2.739  0.00  0.00    -0.027 A 
ATOM     19  C21 <0> A   1      -4.672  -3.662  -1.735  0.00  0.00    +0.099 A 
ATOM     20  F1  <0> A   1      -5.278  -5.052  -5.030  0.00  0.00    -0.136 F 
ENDBRANCH   3  14
BRANCH  10  21
ATOM     21  C10 <0> A   1      -8.729  -0.751   4.096  0.00  0.00    -0.031 A 
ATOM     22  C11 <0> A   1      -8.514   0.035   5.228  0.00  0.00    +0.073 A 
ATOM     23  C12 <0> A   1      -9.532   0.219   6.140  0.00  0.00    +0.008 A 
ATOM     24  C13 <0> A   1     -10.764  -0.375   5.935  0.00  0.00    +0.036 A 
ATOM     25  C14 <0> A   1     -10.985  -1.156   4.815  0.00  0.00    +0.015 A 
ATOM     26  C15 <0> A   1      -9.976  -1.343   3.892  0.00  0.00    +0.047 A 
ENDBRANCH  10  21
BRANCH   1  28
ATOM     27  C1  <0> A   1      -0.019   1.526   0.010  0.00  0.00    +0.043 C 
ATOM     28  C2  <0> A   1       0.002  -0.004   0.002  0.00  0.00    +0.052 C 
ATOM     29  C3  <0> A   1       0.742  -0.511   1.242  0.00  0.00    +0.044 C 
ENDBRANCH   1  28
BRANCH   2  30
ATOM     30  C22 <0> A   1      -0.997  -1.697  -2.158  0.00  0.00    +0.012 C 
ATOM     31  C23 <0> A   1      -0.884  -2.966  -2.530  0.00  0.00    -0.035 C 
BRANCH  31  32
ATOM     32  C24 <0> A   1       0.013  -3.335  -3.683  0.00  0.00    +0.253 C 
BRANCH  32  33
ATOM     33  O4  <0> A   1       0.716  -2.174  -4.131  0.00  0.00    -0.537 OA
ATOM     34  H27 <0> A   1       1.274  -1.766  -3.454  0.00  0.00    +0.366 HD
ENDBRANCH  32  33
BRANCH  32  35
ATOM     35  C25 <0> A   1       1.018  -4.395  -3.229  0.00  0.00    -0.041 C 
BRANCH  35  36
ATOM     36  C26 <0> A   1       1.846  -4.860  -4.428  0.00  0.00    +0.232 C 
BRANCH  36  37
ATOM     37  O3  <0> A   1       2.637  -3.773  -4.912  0.00  0.00    -0.528 OA
ATOM     38  H26 <0> A   1       3.255  -3.416  -4.259  0.00  0.00    +0.350 HD
ENDBRANCH  36  37
BRANCH  36  39
ATOM     39  C27 <0> A   1       2.764  -6.007  -4.000  0.00  0.00    -0.102 C 
BRANCH  39  40
ATOM     40  C28 <0> A   1       3.489  -6.547  -5.205  0.00  0.00    +0.490 C 
ATOM     41  O1  <0> A   1       3.291  -6.059  -6.305  0.00  0.00    -0.681 OA
ATOM     42  O2  <0> A   1       4.275  -7.471  -5.081  0.00  0.00    -0.713 OA
ENDBRANCH  39  40
ENDBRANCH  36  39
ENDBRANCH  35  36
ENDBRANCH  32  35
ENDBRANCH  31  32
ENDBRANCH   2  30
TORSDOF 11
