REMARK VINA RESULT:      -8.6     21.777     25.209
REMARK  Name = CHEMBL352558
REMARK  9 active torsions:
REMARK  status: ('A' for Active; 'I' for Inactive)
REMARK    1  A    between atoms: C1_1  and  C2_2
REMARK    2  A    between atoms: C4_5  and  O4_28
REMARK    3  A    between atoms: C6_8  and  C13_17
REMARK    4  A    between atoms: C7_10  and  C12_16
REMARK    5  A    between atoms: C13_17  and  C14_18
REMARK    6  A    between atoms: C14_18  and  C15_19
REMARK    7  A    between atoms: C17_21  and  O3_27
REMARK    8  A    between atoms: O4_28  and  C20_29
REMARK    9  A    between atoms: C20_29  and  C21_31
REMARK                            x       y       z     vdW  Elec       q    Type
REMARK                         _______ _______ _______ _____ _____    ______ ____
ROOT
ATOM      1  C1  <0> A   1     -21.516  -3.010  51.485  0.00  0.00    +0.032 C 
ATOM      2  C2  <0> A   1     -22.969  -2.925  51.958  0.00  0.00    +0.024 C 
ATOM      3  C3  <0> A   1     -23.800  -4.028  51.288  0.00  0.00    +0.018 C 
ATOM      4  C4  <0> A   1     -25.235  -3.930  51.802  0.00  0.00    +0.173 C 
ATOM      5  C5  <0> A   1     -25.847  -2.580  51.508  0.00  0.00    +0.044 C 
ATOM      6  C6  <0> A   1     -26.744  -2.616  50.270  0.00  0.00    +0.011 C 
ATOM      7  C7  <0> A   1     -27.503  -1.291  50.175  0.00  0.00    +0.022 C 
ATOM      8  C8  <0> A   1     -26.583  -0.116  50.304  0.00  0.00    -0.033 C 
ATOM      9  C9  <0> A   1     -25.375  -0.174  50.838  0.00  0.00    -0.006 C 
ATOM     10  C10 <0> A   1     -24.854  -1.469  51.336  0.00  0.00    -0.087 C 
ATOM     11  C11 <0> A   1     -23.559  -1.597  51.560  0.00  0.00    -0.023 C 
ATOM     12  C12 <0> A   1     -28.546  -1.233  51.293  0.00  0.00    +0.030 C 
ENDROOT
BRANCH   6  13
ATOM     13  C13 <0> A   1     -27.737  -3.773  50.388  0.00  0.00    +0.063 C 
BRANCH  13  14
ATOM     14  C14 <0> A   1     -28.463  -3.961  49.054  0.00  0.00    +0.035 C 
BRANCH  14  15
ATOM     15  C15 <0> A   1     -29.453  -5.122  49.171  0.00  0.00    +0.195 C 
ATOM     16  C16 <0> A   1     -30.323  -4.928  50.415  0.00  0.00    +0.036 C 
ATOM     17  C17 <0> A   1     -31.285  -6.113  50.552  0.00  0.00    +0.182 C 
ATOM     18  C18 <0> A   1     -30.466  -7.406  50.669  0.00  0.00    +0.015 C 
ATOM     19  C19 <0> A   1     -29.482  -7.451  49.521  0.00  0.00    +0.495 C 
ATOM     20  O1  <0> A   1     -29.369  -8.440  48.837  0.00  0.00    -0.449 OA
ATOM     21  O2  <0> A   1     -28.734  -6.354  49.282  0.00  0.00    -0.364 OA
BRANCH  17  22
ATOM     22  O3  <0> A   1     -32.127  -6.181  49.399  0.00  0.00    -0.559 OA
ATOM     23  H27 <0> A   1     -31.809  -6.786  48.714  0.00  0.00    +0.385 HD
ENDBRANCH  17  22
ENDBRANCH  14  15
ENDBRANCH  13  14
ENDBRANCH   6  13
BRANCH   4  24
ATOM     24  O4  <0> A   1     -26.024  -4.942  51.175  0.00  0.00    -0.319 OA
BRANCH  24  25
ATOM     25  C20 <0> A   1     -26.004  -6.163  51.733  0.00  0.00    +0.457 C 
ATOM     26  O5  <0> A   1     -26.408  -6.318  52.861  0.00  0.00    -0.502 OA
BRANCH  25  27
ATOM     27  C21 <0> A   1     -25.479  -7.340  50.953  0.00  0.00    -0.041 C 
ATOM     28  C22 <0> A   1     -24.155  -7.805  51.563  0.00  0.00    +0.045 C 
ATOM     29  C23 <0> A   1     -23.621  -9.001  50.770  0.00  0.00    -0.003 C 
ATOM     30  C24 <0> A   1     -23.395  -8.588  49.315  0.00  0.00    +0.016 C 
ATOM     31  C25 <0> A   1     -24.718  -8.122  48.705  0.00  0.00    -0.009 C 
ATOM     32  C26 <0> A   1     -25.252  -6.926  49.497  0.00  0.00    +0.047 C 
ATOM     33  C27 <0> A   1     -25.736  -9.264  48.758  0.00  0.00    +0.016 C 
ATOM     34  C28 <0> A   1     -25.962  -9.677  50.215  0.00  0.00    -0.009 C 
ATOM     35  C29 <0> A   1     -24.638 -10.143  50.825  0.00  0.00    +0.026 C 
ATOM     36  C30 <0> A   1     -26.495  -8.482  51.006  0.00  0.00    +0.038 C 
ENDBRANCH  25  27
ENDBRANCH  24  25
ENDBRANCH   4  24
TORSDOF 7
