REMARK VINA RESULT:      -7.5     17.383     20.279
REMARK  Name = CHEMBL121309
REMARK  13 active torsions:
REMARK  status: ('A' for Active; 'I' for Inactive)
REMARK    1  A    between atoms: C1_1  and  C2_2
REMARK    2  A    between atoms: C2_2  and  C3_3
REMARK    3  A    between atoms: C2_2  and  C4_4
REMARK    4  A    between atoms: C5_5  and  C19_22
REMARK    5  A    between atoms: N1_6  and  C13_15
REMARK    6  A    between atoms: C6_7  and  C7_9
REMARK    7  A    between atoms: C20_23  and  C21_24
REMARK    8  A    between atoms: C21_24  and  C22_26
REMARK    9  A    between atoms: C21_24  and  O4_34
REMARK   10  A    between atoms: C22_26  and  C23_27
REMARK   11  A    between atoms: C23_27  and  C24_29
REMARK   12  A    between atoms: C23_27  and  O3_33
REMARK   13  A    between atoms: C24_29  and  C25_30
REMARK                            x       y       z     vdW  Elec       q    Type
REMARK                         _______ _______ _______ _____ _____    ______ ____
ROOT
ATOM      1  C4  <0> A   1     -27.785  -5.167  50.635  0.00  0.00    +0.037 C 
ATOM      2  C5  <0> A   1     -26.487  -5.024  51.032  0.00  0.00    +0.029 C 
ATOM      3  N1  <0> A   1     -26.253  -3.668  51.135  0.00  0.00    -0.406 N 
ATOM      4  C6  <0> A   1     -27.418  -3.039  50.798  0.00  0.00    +0.248 C 
ATOM      5  N2  <0> A   1     -28.318  -3.952  50.498  0.00  0.00    -0.456 NA
ENDROOT
BRANCH   3   6
ATOM      6  C13 <0> A   1     -25.051  -3.054  51.513  0.00  0.00    +0.104 A 
ATOM      7  C14 <0> A   1     -24.965  -2.382  52.725  0.00  0.00    +0.069 A 
ATOM      8  C15 <0> A   1     -23.780  -1.778  53.097  0.00  0.00    +0.010 A 
ATOM      9  C16 <0> A   1     -22.678  -1.841  52.260  0.00  0.00    +0.115 A 
ATOM     10  C17 <0> A   1     -22.761  -2.511  51.050  0.00  0.00    +0.007 A 
ATOM     11  C18 <0> A   1     -23.943  -3.121  50.679  0.00  0.00    +0.063 A 
ATOM     12  F1  <0> A   1     -21.519  -1.248  52.624  0.00  0.00    -0.130 F 
ENDBRANCH   3   6
BRANCH   4  13
ATOM     13  C7  <0> A   1     -27.632  -1.577  50.768  0.00  0.00    -0.012 A 
ATOM     14  C8  <0> A   1     -26.849  -0.772  49.939  0.00  0.00    +0.010 A 
ATOM     15  C9  <0> A   1     -27.053   0.592  49.915  0.00  0.00    +0.008 A 
ATOM     16  C10 <0> A   1     -28.031   1.163  50.711  0.00  0.00    +0.013 A 
ATOM     17  C11 <0> A   1     -28.809   0.370  51.536  0.00  0.00    +0.008 A 
ATOM     18  C12 <0> A   1     -28.620  -0.996  51.565  0.00  0.00    +0.057 A 
ENDBRANCH   4  13
BRANCH   1  20
ATOM     19  C1  <0> A   1     -29.184  -6.930  51.678  0.00  0.00    +0.030 C 
ATOM     20  C2  <0> A   1     -28.495  -6.474  50.390  0.00  0.00    +0.074 C 
ATOM     21  C3  <0> A   1     -29.541  -6.287  49.289  0.00  0.00    +0.030 C 
ENDBRANCH   1  20
BRANCH   2  22
ATOM     22  C19 <0> A   1     -25.524  -6.104  51.297  0.00  0.00    +0.043 C 
ATOM     23  C20 <0> A   1     -24.953  -6.750  50.285  0.00  0.00    -0.043 C 
BRANCH  23  24
ATOM     24  C21 <0> A   1     -23.967  -7.857  50.557  0.00  0.00    +0.252 C 
BRANCH  24  25
ATOM     25  O4  <0> A   1     -24.226  -8.419  51.845  0.00  0.00    -0.537 OA
ATOM     26  H26 <0> A   1     -24.002  -7.834  52.581  0.00  0.00    +0.367 HD
ENDBRANCH  24  25
BRANCH  24  27
ATOM     27  C22 <0> A   1     -24.111  -8.942  49.487  0.00  0.00    -0.041 C 
BRANCH  27  28
ATOM     28  C23 <0> A   1     -24.341 -10.295  50.162  0.00  0.00    +0.231 C 
BRANCH  28  29
ATOM     29  O3  <0> A   1     -25.745 -10.541  50.270  0.00  0.00    -0.528 OA
ATOM     30  H25 <0> A   1     -25.999 -11.456  50.088  0.00  0.00    +0.351 HD
ENDBRANCH  28  29
BRANCH  28  31
ATOM     31  C24 <0> A   1     -23.693 -11.399  49.324  0.00  0.00    -0.102 C 
BRANCH  31  32
ATOM     32  C25 <0> A   1     -24.756 -12.356  48.847  0.00  0.00    +0.491 C 
ATOM     33  O1  <0> A   1     -25.323 -12.158  47.786  0.00  0.00    -0.681 OA
ATOM     34  O2  <0> A   1     -25.047 -13.329  49.521  0.00  0.00    -0.713 OA
ENDBRANCH  31  32
ENDBRANCH  28  31
ENDBRANCH  27  28
ENDBRANCH  24  27
ENDBRANCH  23  24
ENDBRANCH   2  22
TORSDOF 11
