REMARK VINA RESULT:      -7.8      0.350      1.032
REMARK  Name = CHEMBL235712
REMARK  15 active torsions:
REMARK  status: ('A' for Active; 'I' for Inactive)
REMARK    1  A    between atoms: C1_1  and  C2_2
REMARK    2  A    between atoms: C2_2  and  C3_3
REMARK    3  A    between atoms: C2_2  and  N1_4
REMARK    4  A    between atoms: C4_5  and  C20_24
REMARK    5  A    between atoms: C5_6  and  C14_17
REMARK    6  A    between atoms: C6_7  and  C9_11
REMARK    7  A    between atoms: C7_8  and  C8_9
REMARK    8  A    between atoms: C20_24  and  C21_25
REMARK    9  A    between atoms: C21_25  and  C22_26
REMARK   10  A    between atoms: C22_26  and  C23_28
REMARK   11  A    between atoms: C22_26  and  O4_36
REMARK   12  A    between atoms: C23_28  and  C24_29
REMARK   13  A    between atoms: C24_29  and  C25_31
REMARK   14  A    between atoms: C24_29  and  O3_35
REMARK   15  A    between atoms: C25_31  and  C26_32
REMARK                            x       y       z     vdW  Elec       q    Type
REMARK                         _______ _______ _______ _____ _____    ______ ____
ROOT
ATOM      1  N1  <0> A   1     -14.535   6.539  45.428  0.00  0.00    -0.399 N 
ATOM      2  C4  <0> A   1     -13.753   7.600  45.109  0.00  0.00    +0.088 C 
ATOM      3  C5  <0> A   1     -14.016   8.622  45.970  0.00  0.00    -0.097 C 
ATOM      4  C6  <0> A   1     -15.016   8.169  46.873  0.00  0.00    -0.033 C 
ATOM      5  C7  <0> A   1     -15.324   6.865  46.504  0.00  0.00    +0.069 C 
ENDROOT
BRANCH   3   6
ATOM      6  C14 <0> A   1     -13.376   9.960  45.968  0.00  0.00    -0.000 A 
ATOM      7  C15 <0> A   1     -13.886  10.977  45.164  0.00  0.00    +0.049 A 
ATOM      8  C16 <0> A   1     -13.288  12.221  45.166  0.00  0.00    -0.022 A 
ATOM      9  C17 <0> A   1     -12.182  12.459  45.965  0.00  0.00    +0.096 A 
ATOM     10  C18 <0> A   1     -11.670  11.450  46.765  0.00  0.00    -0.023 A 
ATOM     11  C19 <0> A   1     -12.266  10.205  46.775  0.00  0.00    +0.079 A 
ATOM     12  F1  <0> A   1     -11.599  13.677  45.963  0.00  0.00    -0.144 F 
ENDBRANCH   3   6
BRANCH   4  13
ATOM     13  C9  <0> A   1     -15.616   8.939  47.985  0.00  0.00    +0.198 A 
ATOM     14  C10 <0> A   1     -16.358  10.089  47.710  0.00  0.00    -0.046 A 
ATOM     15  C11 <0> A   1     -16.913  10.797  48.760  0.00  0.00    +0.064 A 
ATOM     16  C12 <0> A   1     -16.709  10.335  50.054  0.00  0.00    -0.043 A 
ATOM     17  C13 <0> A   1     -15.962   9.188  50.254  0.00  0.00    +0.266 A 
ATOM     18  N3  <0> A   1     -15.449   8.528  49.236  0.00  0.00    -0.458 NA
ENDBRANCH   4  13
BRANCH   1  20
ATOM     19  C1  <0> A   1     -14.166   4.138  45.712  0.00  0.00    +0.047 C 
ATOM     20  C2  <0> A   1     -14.542   5.250  44.731  0.00  0.00    +0.235 C 
ATOM     21  C3  <0> A   1     -15.940   4.983  44.168  0.00  0.00    +0.047 C 
ENDBRANCH   1  20
BRANCH   5  22
ATOM     22  C8  <0> A   1     -16.287   6.014  47.136  0.00  0.00    +0.287 C 
ATOM     23  N2  <0> A   1     -17.051   5.339  47.637  0.00  0.00    -0.406 NA
ENDBRANCH   5  22
BRANCH   2  24
ATOM     24  C20 <0> A   1     -12.753   7.642  43.983  0.00  0.00    +0.124 C 
BRANCH  24  25
ATOM     25  C21 <0> A   1     -13.470   7.991  42.677  0.00  0.00    -0.005 C 
BRANCH  25  26
ATOM     26  C22 <0> A   1     -12.485   7.885  41.510  0.00  0.00    +0.214 C 
BRANCH  26  27
ATOM     27  O4  <0> A   1     -12.002   6.545  41.415  0.00  0.00    -0.542 OA
ATOM     28  H27 <0> A   1     -11.047   6.480  41.278  0.00  0.00    +0.363 HD
ENDBRANCH  26  27
BRANCH  26  29
ATOM     29  C23 <0> A   1     -13.194   8.266  40.209  0.00  0.00    -0.051 C 
BRANCH  29  30
ATOM     30  C24 <0> A   1     -12.325   9.250  39.424  0.00  0.00    +0.231 C 
BRANCH  30  31
ATOM     31  O3  <0> A   1     -12.785   9.320  38.073  0.00  0.00    -0.528 OA
ATOM     32  H26 <0> A   1     -12.203   8.881  37.436  0.00  0.00    +0.349 HD
ENDBRANCH  30  31
BRANCH  30  33
ATOM     33  C25 <0> A   1     -12.416  10.636  40.066  0.00  0.00    -0.103 C 
BRANCH  33  34
ATOM     34  C26 <0> A   1     -12.954  11.621  39.060  0.00  0.00    +0.490 C 
ATOM     35  O1  <0> A   1     -12.186  12.318  38.418  0.00  0.00    -0.681 OA
ATOM     36  O2  <0> A   1     -14.158  11.720  38.887  0.00  0.00    -0.713 OA
ENDBRANCH  33  34
ENDBRANCH  30  33
ENDBRANCH  29  30
ENDBRANCH  26  29
ENDBRANCH  25  26
ENDBRANCH  24  25
ENDBRANCH   2  24
TORSDOF 13
