REMARK VINA RESULT:      -8.4     15.761     18.265
REMARK  Name = CHEMBL122937
REMARK  7 active torsions:
REMARK  status: ('A' for Active; 'I' for Inactive)
REMARK    1  A    between atoms: C1_1  and  C2_2
REMARK    2  A    between atoms: C2_2  and  C3_3
REMARK    3  A    between atoms: C2_2  and  C4_4
REMARK    4  A    between atoms: C5_5  and  C19_23
REMARK    5  A    between atoms: C6_6  and  C13_16
REMARK    6  A    between atoms: C20_24  and  C21_25
REMARK    7  A    between atoms: C23_28  and  O4_34
REMARK                            x       y       z     vdW  Elec       q    Type
REMARK                         _______ _______ _______ _____ _____    ______ ____
ROOT
ATOM      1  C4  <0> A   1     -15.130   6.497  46.097  0.00  0.00    +0.152 A 
ATOM      2  C5  <0> A   1     -14.438   7.711  45.959  0.00  0.00    -0.043 A 
ATOM      3  C6  <0> A   1     -14.557   8.686  46.959  0.00  0.00    +0.014 A 
ATOM      4  C7  <0> A   1     -15.381   8.391  48.073  0.00  0.00    -0.024 A 
ATOM      5  C8  <0> A   1     -15.551   9.314  49.114  0.00  0.00    +0.016 A 
ATOM      6  C9  <0> A   1     -16.352   8.997  50.172  0.00  0.00    +0.130 A 
ATOM      7  C10 <0> A   1     -17.004   7.765  50.229  0.00  0.00    +0.025 A 
ATOM      8  C11 <0> A   1     -16.858   6.848  49.233  0.00  0.00    +0.121 A 
ATOM      9  C12 <0> A   1     -16.041   7.140  48.128  0.00  0.00    +0.089 A 
ATOM     10  N1  <0> A   1     -15.889   6.253  47.136  0.00  0.00    -0.108 N 
ATOM     11  O1  <0> A   1     -16.567   5.012  47.214  0.00  0.00    -0.515 OA
ATOM     12  F1  <0> A   1     -16.517   9.887  51.175  0.00  0.00    -0.126 F 
ENDROOT
BRANCH   3  13
ATOM     13  C13 <0> A   1     -13.846   9.978  46.854  0.00  0.00    -0.072 A 
ATOM     14  C14 <0> A   1     -14.481  11.085  46.288  0.00  0.00    +0.080 A 
ATOM     15  C15 <0> A   1     -13.813  12.287  46.193  0.00  0.00    -0.005 A 
ATOM     16  C16 <0> A   1     -12.513  12.398  46.658  0.00  0.00    +0.115 A 
ATOM     17  C17 <0> A   1     -11.876  11.303  47.221  0.00  0.00    -0.007 A 
ATOM     18  C18 <0> A   1     -12.538  10.098  47.326  0.00  0.00    +0.064 A 
ATOM     19  F2  <0> A   1     -11.862  13.579  46.563  0.00  0.00    -0.134 F 
ENDBRANCH   3  13
BRANCH   1  21
ATOM     20  C1  <0> A   1     -14.433   4.165  45.623  0.00  0.00    +0.048 C 
ATOM     21  C2  <0> A   1     -15.001   5.451  45.020  0.00  0.00    +0.053 C 
ATOM     22  C3  <0> A   1     -16.378   5.167  44.417  0.00  0.00    +0.048 C 
ENDBRANCH   1  21
BRANCH   2  23
ATOM     23  C19 <0> A   1     -13.595   7.957  44.773  0.00  0.00    +0.049 C 
ATOM     24  C20 <0> A   1     -14.102   8.583  43.717  0.00  0.00    +0.013 C 
BRANCH  24  25
ATOM     25  C21 <0> A   1     -13.239   8.836  42.507  0.00  0.00    +0.244 C 
ATOM     26  C22 <0> A   1     -13.711  10.109  41.801  0.00  0.00    +0.052 C 
ATOM     27  C23 <0> A   1     -12.860  10.341  40.548  0.00  0.00    +0.187 C 
ATOM     28  C24 <0> A   1     -13.008   9.130  39.617  0.00  0.00    +0.025 C 
ATOM     29  C25 <0> A   1     -12.723   7.878  40.418  0.00  0.00    +0.498 C 
ATOM     30  O2  <0> A   1     -11.961   7.037  40.004  0.00  0.00    -0.448 OA
ATOM     31  O3  <0> A   1     -13.343   7.728  41.606  0.00  0.00    -0.369 OA
BRANCH  27  32
ATOM     32  O4  <0> A   1     -11.490  10.495  40.923  0.00  0.00    -0.564 OA
ATOM     33  H23 <0> A   1     -11.195   9.870  41.599  0.00  0.00    +0.388 HD
ENDBRANCH  27  32
ENDBRANCH  24  25
ENDBRANCH   2  23
TORSDOF 5
