REMARK VINA RESULT:      -7.5      1.157      2.106
REMARK  Name = CHEMBL47537
REMARK  6 active torsions:
REMARK  status: ('A' for Active; 'I' for Inactive)
REMARK    1  A    between atoms: C4_4  and  O1_7
REMARK    2  A    between atoms: O1_7  and  C7_8
REMARK    3  A    between atoms: C12_13  and  C13_14
REMARK    4  A    between atoms: C13_14  and  C14_15
REMARK    5  A    between atoms: C14_15  and  C15_16
REMARK    6  A    between atoms: C17_18  and  O4_24
REMARK                            x       y       z     vdW  Elec       q    Type
REMARK                         _______ _______ _______ _____ _____    ______ ____
ROOT
ATOM      1  C7  <0> A   1      -4.803   4.207  45.794  0.00  0.00    +0.153 A 
ATOM      2  C8  <0> A   1      -3.455   4.036  45.511  0.00  0.00    -0.035 A 
ATOM      3  C9  <0> A   1      -3.039   2.943  44.773  0.00  0.00    +0.010 A 
ATOM      4  C10 <0> A   1      -3.965   2.022  44.317  0.00  0.00    +0.017 A 
ATOM      5  C11 <0> A   1      -5.308   2.191  44.599  0.00  0.00    +0.010 A 
ATOM      6  C12 <0> A   1      -5.729   3.279  45.342  0.00  0.00    -0.095 A 
ATOM      7 Cl1  <0> A   1      -6.467   1.033  44.025  0.00  0.00    -0.040 Cl
ATOM      8 Cl2  <0> A   1      -1.353   2.728  44.418  0.00  0.00    -0.048 Cl
ENDROOT
BRANCH   1   9
ATOM      9  O1  <0> A   1      -5.214   5.280  46.520  0.00  0.00    -0.239 OA
BRANCH   9  13
ATOM     10  C1  <0> A   1      -2.475   7.086  49.022  0.00  0.00    +0.014 A 
ATOM     11  C2  <0> A   1      -3.020   5.862  49.364  0.00  0.00    +0.029 A 
ATOM     12  C3  <0> A   1      -3.937   5.255  48.528  0.00  0.00    -0.007 A 
ATOM     13  C4  <0> A   1      -4.312   5.875  47.345  0.00  0.00    +0.077 A 
ATOM     14  C5  <0> A   1      -3.765   7.103  47.004  0.00  0.00    +0.017 A 
ATOM     15  C6  <0> A   1      -2.847   7.706  47.844  0.00  0.00    +0.031 A 
ENDBRANCH   9  13
ENDBRANCH   1   9
BRANCH   6  16
ATOM     16  C13 <0> A   1      -7.192   3.459  45.653  0.00  0.00    +0.098 C 
BRANCH  16  17
ATOM     17  C14 <0> A   1      -7.480   2.944  47.064  0.00  0.00    +0.062 C 
BRANCH  17  18
ATOM     18  C15 <0> A   1      -8.752   3.606  47.600  0.00  0.00    +0.199 C 
ATOM     19  C16 <0> A   1      -8.811   5.060  47.125  0.00  0.00    +0.041 C 
ATOM     20  C17 <0> A   1     -10.064   5.731  47.696  0.00  0.00    +0.184 C 
ATOM     21  C18 <0> A   1     -10.002   5.674  49.228  0.00  0.00    +0.021 C 
ATOM     22  C19 <0> A   1      -9.744   4.242  49.640  0.00  0.00    +0.496 C 
ATOM     23  O2  <0> A   1     -10.418   3.709  50.490  0.00  0.00    -0.453 OA
ATOM     24  O3  <0> A   1      -8.740   3.576  49.031  0.00  0.00    -0.365 OA
BRANCH  20  25
ATOM     25  O4  <0> A   1     -11.228   5.041  47.236  0.00  0.00    -0.563 OA
ATOM     26  H18 <0> A   1     -11.929   4.968  47.899  0.00  0.00    +0.386 HD
ENDBRANCH  20  25
ENDBRANCH  17  18
ENDBRANCH  16  17
ENDBRANCH   6  16
TORSDOF 6
