REMARK VINA RESULT:      -6.5      1.629      4.662
REMARK  Name = CHEMBL330995
REMARK  12 active torsions:
REMARK  status: ('A' for Active; 'I' for Inactive)
REMARK    1  A    between atoms: C3_3  and  C5_6
REMARK    2  A    between atoms: C6_7  and  C16_28
REMARK    3  A    between atoms: N1_8  and  C9_15
REMARK    4  A    between atoms: C7_9  and  C8_11
REMARK    5  A    between atoms: C9_15  and  C10_16
REMARK    6  A    between atoms: C10_16  and  C11_17
REMARK    7  A    between atoms: C11_17  and  C12_19
REMARK    8  A    between atoms: C11_17  and  O4_27
REMARK    9  A    between atoms: C12_19  and  C13_20
REMARK   10  A    between atoms: C13_20  and  C14_22
REMARK   11  A    between atoms: C13_20  and  O3_26
REMARK   12  A    between atoms: C14_22  and  C15_23
REMARK                            x       y       z     vdW  Elec       q    Type
REMARK                         _______ _______ _______ _____ _____    ______ ____
ROOT
ATOM      1  C5  <0> A   1     -14.122   8.558  47.432  0.00  0.00    +0.099 C 
ATOM      2  C6  <0> A   1     -14.138   8.036  46.148  0.00  0.00    +0.082 C 
ATOM      3  N1  <0> A   1     -13.462   8.938  45.359  0.00  0.00    -0.412 N 
ATOM      4  C7  <0> A   1     -13.063   9.957  46.162  0.00  0.00    +0.118 C 
ATOM      5  N2  <0> A   1     -13.460   9.731  47.382  0.00  0.00    -0.410 NA
ENDROOT
BRANCH   2   6
ATOM      6  C16 <0> A   1     -14.757   6.768  45.715  0.00  0.00    -0.047 A 
ATOM      7  C17 <0> A   1     -14.025   5.579  45.760  0.00  0.00    +0.065 A 
ATOM      8  C18 <0> A   1     -14.610   4.398  45.356  0.00  0.00    -0.005 A 
ATOM      9  C19 <0> A   1     -15.919   4.389  44.903  0.00  0.00    +0.118 A 
ATOM     10  C20 <0> A   1     -16.651   5.565  44.855  0.00  0.00    -0.003 A 
ATOM     11  C21 <0> A   1     -16.080   6.751  45.264  0.00  0.00    +0.087 A 
ATOM     12  F4  <0> A   1     -16.486   3.227  44.507  0.00  0.00    -0.134 F 
ENDBRANCH   2   6
BRANCH   1  15
ATOM     13  C1  <0> A   1     -14.897   6.752  50.666  0.00  0.00    -0.018 C 
ATOM     14  C2  <0> A   1     -14.120   7.233  49.635  0.00  0.00    +0.007 C 
ATOM     15  C3  <0> A   1     -14.725   7.945  48.631  0.00  0.00    -0.072 C 
ATOM     16  S1  <0> A   1     -16.432   7.936  49.153  0.00  0.00    +0.074 S 
ATOM     17  C4  <0> A   1     -16.232   6.995  50.658  0.00  0.00    +0.009 C 
ENDBRANCH   1  15
BRANCH   4  18
ATOM     18  C8  <0> A   1     -12.286  11.168  45.710  0.00  0.00    +0.566 C 
ATOM     19  F1  <0> A   1     -12.931  11.754  44.616  0.00  0.00    -0.149 F 
ATOM     20  F2  <0> A   1     -12.213  12.092  46.758  0.00  0.00    -0.164 F 
ATOM     21  F3  <0> A   1     -10.994  10.781  45.338  0.00  0.00    -0.163 F 
ENDBRANCH   4  18
BRANCH   3  22
ATOM     22  C9  <0> A   1     -13.217   8.821  43.919  0.00  0.00    +0.308 C 
BRANCH  22  23
ATOM     23  C10 <0> A   1     -11.960   7.981  43.682  0.00  0.00    -0.008 C 
BRANCH  23  24
ATOM     24  C11 <0> A   1     -11.824   7.677  42.190  0.00  0.00    +0.221 C 
BRANCH  24  25
ATOM     25  O4  <0> A   1     -11.750   6.263  41.997  0.00  0.00    -0.540 OA
ATOM     26  H15 <0> A   1     -11.725   5.755  42.819  0.00  0.00    +0.369 HD
ENDBRANCH  24  25
BRANCH  24  27
ATOM     27  C12 <0> A   1     -13.040   8.231  41.443  0.00  0.00    -0.046 C 
BRANCH  27  28
ATOM     28  C13 <0> A   1     -12.576   9.244  40.395  0.00  0.00    +0.232 C 
BRANCH  28  29
ATOM     29  O3  <0> A   1     -13.129   8.901  39.123  0.00  0.00    -0.528 OA
ATOM     30  H14 <0> A   1     -13.364   7.967  39.034  0.00  0.00    +0.351 HD
ENDBRANCH  28  29
BRANCH  28  31
ATOM     31  C14 <0> A   1     -13.046  10.644  40.795  0.00  0.00    -0.102 C 
BRANCH  31  32
ATOM     32  C15 <0> A   1     -13.826  11.256  39.659  0.00  0.00    +0.491 C 
ATOM     33  O1  <0> A   1     -13.243  11.871  38.782  0.00  0.00    -0.681 OA
ATOM     34  O2  <0> A   1     -15.038  11.136  39.617  0.00  0.00    -0.712 OA
ENDBRANCH  31  32
ENDBRANCH  28  31
ENDBRANCH  27  28
ENDBRANCH  24  27
ENDBRANCH  23  24
ENDBRANCH  22  23
ENDBRANCH   3  22
TORSDOF 12
