REMARK VINA RESULT:      -7.8      2.950      5.784
REMARK  Name = CHEMBL312626
REMARK  9 active torsions:
REMARK  status: ('A' for Active; 'I' for Inactive)
REMARK    1  A    between atoms: C1_1  and  C2_2
REMARK    2  A    between atoms: C4_5  and  O4_29
REMARK    3  A    between atoms: C6_9  and  C13_18
REMARK    4  A    between atoms: C7_11  and  C12_17
REMARK    5  A    between atoms: C13_18  and  C14_19
REMARK    6  A    between atoms: C14_19  and  C15_20
REMARK    7  A    between atoms: C17_22  and  O3_28
REMARK    8  A    between atoms: O4_29  and  C20_30
REMARK    9  A    between atoms: C20_30  and  C21_31
REMARK                            x       y       z     vdW  Elec       q    Type
REMARK                         _______ _______ _______ _____ _____    ______ ____
ROOT
ATOM      1  C1  <0> A   1     -28.793  -6.395  53.711  0.00  0.00    +0.028 C 
ATOM      2  C2  <0> A   1     -28.067  -5.748  52.529  0.00  0.00    +0.020 C 
ATOM      3  C3  <0> A   1     -26.579  -6.119  52.567  0.00  0.00    +0.009 C 
ATOM      4  C4  <0> A   1     -25.892  -5.478  51.362  0.00  0.00    +0.153 C 
ATOM      5  C5  <0> A   1     -26.044  -3.975  51.360  0.00  0.00    +0.039 C 
ATOM      6  C6  <0> A   1     -24.798  -3.274  51.906  0.00  0.00    +0.012 C 
ATOM      7  C7  <0> A   1     -24.931  -1.771  51.656  0.00  0.00    +0.017 C 
ATOM      8  C8  <0> A   1     -26.255  -1.248  52.124  0.00  0.00    -0.033 C 
ATOM      9  C9  <0> A   1     -27.319  -2.004  52.333  0.00  0.00    -0.011 C 
ATOM     10  C10 <0> A   1     -27.222  -3.466  52.136  0.00  0.00    -0.085 C 
ATOM     11  C11 <0> A   1     -28.171  -4.247  52.626  0.00  0.00    -0.032 C 
ATOM     12  C12 <0> A   1     -24.792  -1.500  50.157  0.00  0.00    +0.028 C 
ENDROOT
BRANCH   6  13
ATOM     13  C13 <0> A   1     -23.555  -3.808  51.192  0.00  0.00    +0.074 C 
BRANCH  13  14
ATOM     14  C14 <0> A   1     -22.391  -2.837  51.401  0.00  0.00    +0.030 C 
BRANCH  14  15
ATOM     15  C15 <0> A   1     -21.576  -3.273  52.620  0.00  0.00    +0.198 C 
ATOM     16  C16 <0> A   1     -21.459  -2.104  53.602  0.00  0.00    +0.034 C 
ATOM     17  C17 <0> A   1     -20.608  -2.532  54.802  0.00  0.00    +0.181 C 
ATOM     18  C18 <0> A   1     -19.218  -2.946  54.301  0.00  0.00    +0.014 C 
ATOM     19  C19 <0> A   1     -19.396  -3.960  53.192  0.00  0.00    +0.497 C 
ATOM     20  O1  <0> A   1     -18.777  -4.997  53.192  0.00  0.00    -0.454 OA
ATOM     21  O2  <0> A   1     -20.266  -3.672  52.202  0.00  0.00    -0.363 OA
BRANCH  17  22
ATOM     22  O3  <0> A   1     -21.231  -3.637  55.462  0.00  0.00    -0.558 OA
ATOM     23  H27 <0> A   1     -21.458  -4.368  54.872  0.00  0.00    +0.384 HD
ENDBRANCH  17  22
ENDBRANCH  14  15
ENDBRANCH  13  14
ENDBRANCH   6  13
BRANCH   4  24
ATOM     24  O4  <0> A   1     -24.501  -5.804  51.392  0.00  0.00    -0.345 OA
BRANCH  24  25
ATOM     25  C20 <0> A   1     -24.220  -7.104  51.913  0.00  0.00    +0.206 C 
BRANCH  25  26
ATOM     26  C21 <0> A   1     -24.221  -8.107  50.789  0.00  0.00    -0.101 A 
ATOM     27  C22 <0> A   1     -24.214  -7.674  49.476  0.00  0.00    +0.070 A 
ATOM     28  C23 <0> A   1     -24.213  -8.593  48.444  0.00  0.00    -0.015 A 
ATOM     29  C24 <0> A   1     -24.221  -9.949  48.726  0.00  0.00    +0.108 A 
ATOM     30  C25 <0> A   1     -24.227 -10.382  50.041  0.00  0.00    -0.025 A 
ATOM     31  C26 <0> A   1     -24.222  -9.461  51.071  0.00  0.00    +0.059 A 
ATOM     32  F1  <0> A   1     -24.220 -10.848  47.717  0.00  0.00    -0.140 F 
ENDBRANCH  25  26
ENDBRANCH  24  25
ENDBRANCH   4  24
TORSDOF 7
