REMARK  Name = CHEMBL487278
REMARK  17 active torsions:
REMARK  status: ('A' for Active; 'I' for Inactive)
REMARK    1  A    between atoms: C1_1  and  C2_2
REMARK    2  A    between atoms: C2_2  and  C3_3
REMARK    3  A    between atoms: C2_2  and  C4_4
REMARK    4  A    between atoms: C5_5  and  C19_26
REMARK    5  A    between atoms: N1_8  and  C8_9
REMARK    6  A    between atoms: C8_9  and  C9_10
REMARK    7  A    between atoms: C9_10  and  C10_11
REMARK    8  A    between atoms: C10_11  and  C11_13
REMARK    9  A    between atoms: C10_11  and  O4_21
REMARK   10  A    between atoms: C11_13  and  C12_14
REMARK   11  A    between atoms: C12_14  and  C13_16
REMARK   12  A    between atoms: C12_14  and  O3_20
REMARK   13  A    between atoms: C13_16  and  C14_17
REMARK   14  A    between atoms: N2_28  and  C20_29
REMARK   15  A    between atoms: C20_29  and  C21_31
REMARK   16  A    between atoms: C20_29  and  C22_33
REMARK   17  A    between atoms: C21_31  and  O6_32
REMARK                            x       y       z     vdW  Elec       q    Type
REMARK                         _______ _______ _______ _____ _____    ______ ____
ROOT
ATOM      1  C4  <0> A   1      -1.412  -0.526   0.013  0.00  0.00    +0.085 C 
ATOM      2  C5  <0> A   1      -2.348  -0.282   0.983  0.00  0.00    -0.220 C 
ATOM      3  C6  <0> A   1      -3.553  -0.989   0.562  0.00  0.00    -0.129 C 
ATOM      4  C7  <0> A   1      -3.260  -1.595  -0.606  0.00  0.00    +0.019 C 
ATOM      5  N1  <0> A   1      -1.971  -1.307  -0.934  0.00  0.00    -0.424 N 
ATOM      6  C15 <0> A   1      -4.242  -2.441  -1.381  0.00  0.00    +0.100 C 
ATOM      7  C16 <0> A   1      -5.398  -2.819  -0.448  0.00  0.00    +0.024 C 
ATOM      8  C17 <0> A   1      -5.929  -1.563   0.248  0.00  0.00    +0.012 C 
ATOM      9  C18 <0> A   1      -4.887  -1.060   1.255  0.00  0.00    +0.089 C 
ENDROOT
BRANCH   2  10
ATOM     10  C19 <0> A   1      -2.174   0.528   2.201  0.00  0.00    +0.609 C 
ATOM     11  O5  <0> A   1      -2.422   1.718   2.180  0.00  0.00    -0.541 OA
ATOM     12  N2  <0> A   1      -1.741  -0.051   3.338  0.00  0.00    -0.713 N 
ATOM     13  H29 <0> A   1      -1.543  -1.000   3.355  0.00  0.00    +0.404 HD
BRANCH  12  14
ATOM     14  C20 <0> A   1      -1.568   0.755   4.550  0.00  0.00    +0.296 C 
BRANCH  14  15
ATOM     15  C22 <0> A   1      -1.686  -0.131   5.763  0.00  0.00    -0.088 A 
ATOM     16  C23 <0> A   1      -1.117  -1.391   5.757  0.00  0.00    +0.037 A 
ATOM     17  C24 <0> A   1      -1.225  -2.204   6.870  0.00  0.00    +0.001 A 
ATOM     18  C25 <0> A   1      -1.902  -1.756   7.989  0.00  0.00    +0.002 A 
ATOM     19  C26 <0> A   1      -2.470  -0.496   7.996  0.00  0.00    -0.000 A 
ATOM     20  C27 <0> A   1      -2.358   0.318   6.884  0.00  0.00    +0.011 A 
ENDBRANCH  14  15
BRANCH  14  21
ATOM     21  C21 <0> A   1      -0.187   1.413   4.531  0.00  0.00    +0.178 C 
BRANCH  21  22
ATOM     22  O6  <0> A   1       0.823   0.405   4.601  0.00  0.00    -0.562 OA
ATOM     23  H32 <0> A   1       1.726   0.751   4.593  0.00  0.00    +0.378 HD
ENDBRANCH  21  22
ENDBRANCH  14  21
ENDBRANCH  12  14
ENDBRANCH   2  10
BRANCH   1  25
ATOM     24  C1  <0> A   1      -0.019   1.526   0.010  0.00  0.00    +0.035 C 
ATOM     25  C2  <0> A   1       0.002  -0.004   0.002  0.00  0.00    +0.045 C 
ATOM     26  C3  <0> A   1       0.742  -0.511   1.242  0.00  0.00    +0.039 C 
ENDBRANCH   1  25
BRANCH   5  27
ATOM     27  C8  <0> A   1      -1.288  -1.780  -2.140  0.00  0.00    +0.290 C 
BRANCH  27  28
ATOM     28  C9  <0> A   1      -0.610  -3.120  -1.850  0.00  0.00    -0.017 C 
BRANCH  28  29
ATOM     29  C10 <0> A   1       0.104  -3.614  -3.110  0.00  0.00    +0.216 C 
BRANCH  29  30
ATOM     30  O4  <0> A   1       1.166  -2.717  -3.439  0.00  0.00    -0.541 OA
ATOM     31  H20 <0> A   1       1.836  -2.630  -2.747  0.00  0.00    +0.366 HD
ENDBRANCH  29  30
BRANCH  29  32
ATOM     32  C11 <0> A   1       0.676  -5.011  -2.858  0.00  0.00    -0.048 C 
BRANCH  32  33
ATOM     33  C12 <0> A   1       1.280  -5.556  -4.154  0.00  0.00    +0.231 C 
BRANCH  33  34
ATOM     34  O3  <0> A   1       2.399  -4.752  -4.533  0.00  0.00    -0.528 OA
ATOM     35  H19 <0> A   1       3.107  -4.729  -3.875  0.00  0.00    +0.350 HD
ENDBRANCH  33  34
BRANCH  33  36
ATOM     36  C13 <0> A   1       1.740  -6.999  -3.935  0.00  0.00    -0.102 C 
BRANCH  36  37
ATOM     37  C14 <0> A   1       2.221  -7.576  -5.240  0.00  0.00    +0.490 C 
ATOM     38  O1  <0> A   1       2.199  -6.897  -6.253  0.00  0.00    -0.681 OA
ATOM     39  O2  <0> A   1       2.634  -8.723  -5.285  0.00  0.00    -0.713 OA
ENDBRANCH  36  37
ENDBRANCH  33  36
ENDBRANCH  32  33
ENDBRANCH  29  32
ENDBRANCH  28  29
ENDBRANCH  27  28
ENDBRANCH   5  27
TORSDOF 15
