REMARK  Name = CHEMBL317576
REMARK  15 active torsions:
REMARK  status: ('A' for Active; 'I' for Inactive)
REMARK    1  A    between atoms: C6_6  and  C7_7
REMARK    2  A    between atoms: C7_7  and  C8_8
REMARK    3  A    between atoms: C7_7  and  C16_18
REMARK    4  A    between atoms: C8_8  and  C9_9
REMARK    5  A    between atoms: C9_9  and  O1_10
REMARK    6  A    between atoms: O1_10  and  C10_11
REMARK    7  A    between atoms: C21_23  and  O2_24
REMARK    8  A    between atoms: O2_24  and  C22_25
REMARK    9  A    between atoms: C22_25  and  C23_26
REMARK   10  A    between atoms: C23_26  and  C24_27
REMARK   11  A    between atoms: C23_26  and  O6_35
REMARK   12  A    between atoms: C24_27  and  C25_28
REMARK   13  A    between atoms: C25_28  and  C26_30
REMARK   14  A    between atoms: C25_28  and  O5_34
REMARK   15  A    between atoms: C26_30  and  C27_31
REMARK                            x       y       z     vdW  Elec       q    Type
REMARK                         _______ _______ _______ _____ _____    ______ ____
ROOT
ATOM      1  C16 <0> A   1      -1.430  -1.541  -1.280  0.00  0.00    -0.069 A 
ATOM      2  C17 <0> A   1      -0.545  -2.559  -1.577  0.00  0.00    +0.055 A 
ATOM      3  C18 <0> A   1      -0.669  -3.263  -2.761  0.00  0.00    -0.029 A 
ATOM      4  C19 <0> A   1      -1.680  -2.948  -3.652  0.00  0.00    +0.057 A 
ATOM      5  C20 <0> A   1      -2.568  -1.930  -3.360  0.00  0.00    -0.045 A 
ATOM      6  C21 <0> A   1      -2.448  -1.227  -2.168  0.00  0.00    +0.123 A 
ATOM      7 Cl1  <0> A   1      -3.836  -1.535  -4.477  0.00  0.00    -0.036 Cl
ATOM      8 Cl2  <0> A   1       0.445  -4.542  -3.131  0.00  0.00    -0.054 Cl
ENDROOT
BRANCH   1   9
ATOM      9  C7  <0> A   1      -1.293  -0.775   0.010  0.00  0.00    +0.109 C 
BRANCH   9  15
ATOM     10  C1  <0> A   1       1.206  -0.638   0.042  0.00  0.00    +0.047 A 
ATOM     11  C2  <0> A   1       2.382   0.087   0.024  0.00  0.00    -0.012 A 
ATOM     12  C3  <0> A   1       2.342   1.469  -0.044  0.00  0.00    +0.100 A 
ATOM     13  C4  <0> A   1       1.123   2.124  -0.095  0.00  0.00    -0.007 A 
ATOM     14  C5  <0> A   1      -0.052   1.397  -0.077  0.00  0.00    +0.049 A 
ATOM     15  C6  <0> A   1      -0.011   0.017  -0.009  0.00  0.00    -0.091 A 
ATOM     16  F2  <0> A   1       3.492   2.179  -0.061  0.00  0.00    -0.139 F 
ENDBRANCH   9  15
BRANCH   9  17
ATOM     17  C8  <0> A   1      -1.270  -1.755   1.185  0.00  0.00    +0.059 C 
BRANCH  17  18
ATOM     18  C9  <0> A   1      -1.256  -0.974   2.501  0.00  0.00    +0.196 C 
BRANCH  18  19
ATOM     19  O1  <0> A   1      -1.235  -1.889   3.598  0.00  0.00    -0.310 OA
BRANCH  19  20
ATOM     20  C10 <0> A   1      -1.221  -1.354   4.848  0.00  0.00    +0.125 A 
ATOM     21  C11 <0> A   1      -1.233   0.023   5.013  0.00  0.00    -0.039 A 
ATOM     22  C12 <0> A   1      -1.219   0.565   6.284  0.00  0.00    +0.029 A 
ATOM     23  C13 <0> A   1      -1.192  -0.265   7.391  0.00  0.00    +0.057 A 
ATOM     24  C14 <0> A   1      -1.179  -1.640   7.227  0.00  0.00    +0.028 A 
ATOM     25  C15 <0> A   1      -1.200  -2.185   5.958  0.00  0.00    +0.015 A 
ATOM     26  F1  <0> A   1      -1.177   0.266   8.633  0.00  0.00    -0.141 F 
ENDBRANCH  19  20
ENDBRANCH  18  19
ENDBRANCH  17  18
ENDBRANCH   9  17
ENDBRANCH   1   9
BRANCH   6  27
ATOM     27  O2  <0> A   1      -3.323  -0.229  -1.875  0.00  0.00    -0.309 OA
BRANCH  27  28
ATOM     28  C22 <0> A   1      -2.978   1.086  -2.315  0.00  0.00    +0.154 C 
BRANCH  28  29
ATOM     29  C23 <0> A   1      -4.074   2.068  -1.897  0.00  0.00    +0.229 C 
BRANCH  29  30
ATOM     30  O6  <0> A   1      -4.125   2.147  -0.471  0.00  0.00    -0.528 OA
ATOM     31  H25 <0> A   1      -3.301   2.449  -0.064  0.00  0.00    +0.359 HD
ENDBRANCH  29  30
BRANCH  29  32
ATOM     32  C24 <0> A   1      -3.767   3.451  -2.474  0.00  0.00    -0.041 C 
BRANCH  32  33
ATOM     33  C25 <0> A   1      -4.924   4.402  -2.162  0.00  0.00    +0.235 C 
BRANCH  33  34
ATOM     34  O5  <0> A   1      -5.016   4.594  -0.749  0.00  0.00    -0.526 OA
ATOM     35  H24 <0> A   1      -4.220   4.972  -0.350  0.00  0.00    +0.350 HD
ENDBRANCH  33  34
BRANCH  33  36
ATOM     36  C26 <0> A   1      -4.675   5.749  -2.844  0.00  0.00    -0.101 C 
BRANCH  36  37
ATOM     37  C27 <0> A   1      -5.870   6.644  -2.639  0.00  0.00    +0.490 C 
ATOM     38  O3  <0> A   1      -6.832   6.242  -2.007  0.00  0.00    -0.680 OA
ATOM     39  O4  <0> A   1      -5.875   7.771  -3.106  0.00  0.00    -0.712 OA
ENDBRANCH  36  37
ENDBRANCH  33  36
ENDBRANCH  32  33
ENDBRANCH  29  32
ENDBRANCH  28  29
ENDBRANCH  27  28
ENDBRANCH   6  27
TORSDOF 15
