REMARK VINA RESULT:      -7.6      0.000      0.000
REMARK  Name = CHEMBL47006
REMARK  6 active torsions:
REMARK  status: ('A' for Active; 'I' for Inactive)
REMARK    1  A    between atoms: C3_3  and  C5_6
REMARK    2  A    between atoms: C5_6  and  O1_7
REMARK    3  A    between atoms: O1_7  and  C6_8
REMARK    4  A    between atoms: C11_13  and  C12_14
REMARK    5  A    between atoms: C13_15  and  C14_16
REMARK    6  A    between atoms: C16_18  and  O4_24
REMARK                            x       y       z     vdW  Elec       q    Type
REMARK                         _______ _______ _______ _____ _____    ______ ____
ROOT
ATOM      1  C6  <0> A   1      -4.145   4.300  45.973  0.00  0.00    +0.169 A 
ATOM      2  C7  <0> A   1      -2.908   3.881  45.512  0.00  0.00    -0.051 A 
ATOM      3  C8  <0> A   1      -2.816   2.789  44.668  0.00  0.00    +0.017 A 
ATOM      4  C9  <0> A   1      -3.957   2.107  44.278  0.00  0.00    +0.013 A 
ATOM      5  C10 <0> A   1      -5.197   2.513  44.729  0.00  0.00    +0.017 A 
ATOM      6  C11 <0> A   1      -5.301   3.610  45.586  0.00  0.00    -0.075 A 
ATOM      7 Cl1  <0> A   1      -6.624   1.656  44.236  0.00  0.00    -0.036 Cl
ATOM      8 Cl2  <0> A   1      -1.260   2.270  44.095  0.00  0.00    -0.048 Cl
ENDROOT
BRANCH   6   9
ATOM      9  C12 <0> A   1      -6.624   4.045  46.077  0.00  0.00    +0.056 C 
ATOM     10  C13 <0> A   1      -7.184   3.428  47.109  0.00  0.00    -0.009 C 
BRANCH  10  11
ATOM     11  C14 <0> A   1      -8.534   3.873  47.610  0.00  0.00    +0.243 C 
ATOM     12  C15 <0> A   1      -8.819   5.295  47.120  0.00  0.00    +0.051 C 
ATOM     13  C16 <0> A   1     -10.173   5.759  47.666  0.00  0.00    +0.186 C 
ATOM     14  C17 <0> A   1     -10.128   5.725  49.198  0.00  0.00    +0.023 C 
ATOM     15  C18 <0> A   1      -9.649   4.357  49.629  0.00  0.00    +0.498 C 
ATOM     16  O2  <0> A   1     -10.241   3.728  50.474  0.00  0.00    -0.451 OA
ATOM     17  O3  <0> A   1      -8.541   3.858  49.042  0.00  0.00    -0.367 OA
BRANCH  13  18
ATOM     18  O4  <0> A   1     -11.203   4.888  47.195  0.00  0.00    -0.564 OA
ATOM     19  H16 <0> A   1     -11.758   4.520  47.896  0.00  0.00    +0.387 HD
ENDBRANCH  13  18
ENDBRANCH  10  11
ENDBRANCH   6   9
BRANCH   1  20
ATOM     20  O1  <0> A   1      -4.237   5.372  46.802  0.00  0.00    -0.291 OA
BRANCH  20  21
ATOM     21  C5  <0> A   1      -3.677   5.231  48.109  0.00  0.00    +0.318 C 
BRANCH  21  24
ATOM     22  C1  <0> A   1      -2.602   8.844  48.653  0.00  0.00    -0.026 C 
ATOM     23  C2  <0> A   1      -2.924   7.699  47.950  0.00  0.00    +0.017 C 
ATOM     24  C3  <0> A   1      -3.285   6.586  48.637  0.00  0.00    -0.168 C 
ATOM     25  S1  <0> A   1      -3.174   7.144  50.328  0.00  0.00    +0.061 S 
ATOM     26  C4  <0> A   1      -2.655   8.822  50.007  0.00  0.00    +0.030 C 
ENDBRANCH  21  24
ENDBRANCH  20  21
ENDBRANCH   1  20
TORSDOF 6
