REMARK VINA RESULT:      -7.6     21.721     23.210
REMARK  Name = CHEMBL296915
REMARK  7 active torsions:
REMARK  status: ('A' for Active; 'I' for Inactive)
REMARK    1  A    between atoms: C5_5  and  C14_15
REMARK    2  A    between atoms: C6_6  and  O1_7
REMARK    3  A    between atoms: O1_7  and  C7_8
REMARK    4  A    between atoms: C7_8  and  C8_9
REMARK    5  A    between atoms: C14_15  and  C15_16
REMARK    6  A    between atoms: C15_16  and  C16_17
REMARK    7  A    between atoms: C18_19  and  O4_25
REMARK                            x       y       z     vdW  Elec       q    Type
REMARK                         _______ _______ _______ _____ _____    ______ ____
ROOT
ATOM      1  C1  <0> A   1     -14.842  11.808  46.142  0.00  0.00    -0.053 A 
ATOM      2  C2  <0> A   1     -15.684  11.602  47.220  0.00  0.00    +0.013 A 
ATOM      3  C3  <0> A   1     -15.650  10.401  47.906  0.00  0.00    +0.007 A 
ATOM      4  C4  <0> A   1     -14.774   9.403  47.515  0.00  0.00    +0.013 A 
ATOM      5  C5  <0> A   1     -13.931   9.604  46.438  0.00  0.00    -0.102 A 
ATOM      6  C6  <0> A   1     -13.963  10.809  45.750  0.00  0.00    +0.162 A 
ATOM      7 Cl1  <0> A   1     -14.735   7.897  48.378  0.00  0.00    -0.038 Cl
ATOM      8 Cl2  <0> A   1     -16.783  12.851  47.713  0.00  0.00    -0.052 Cl
ENDROOT
BRANCH   6   9
ATOM      9  O1  <0> A   1     -13.135  11.009  44.691  0.00  0.00    -0.297 OA
BRANCH   9  10
ATOM     10  C7  <0> A   1     -13.663  11.743  43.584  0.00  0.00    +0.191 C 
BRANCH  10  11
ATOM     11  C8  <0> A   1     -13.843  10.804  42.389  0.00  0.00    +0.000 C 
ATOM     12  C9  <0> A   1     -12.539  10.045  42.137  0.00  0.00    +0.017 C 
ATOM     13  C10 <0> A   1     -12.717   9.106  40.941  0.00  0.00    +0.005 C 
ATOM     14  C11 <0> A   1     -13.079   9.924  39.701  0.00  0.00    +0.001 C 
ATOM     15  C12 <0> A   1     -14.383  10.684  39.953  0.00  0.00    +0.010 C 
ATOM     16  C13 <0> A   1     -14.204  11.622  41.148  0.00  0.00    +0.018 C 
ENDBRANCH  10  11
ENDBRANCH   9  10
ENDBRANCH   6   9
BRANCH   5  17
ATOM     17  C14 <0> A   1     -12.977   8.518  46.014  0.00  0.00    +0.097 C 
BRANCH  17  18
ATOM     18  C15 <0> A   1     -13.544   7.791  44.794  0.00  0.00    +0.061 C 
BRANCH  18  19
ATOM     19  C16 <0> A   1     -14.157   6.459  45.232  0.00  0.00    +0.199 C 
ATOM     20  C17 <0> A   1     -13.907   5.401  44.155  0.00  0.00    +0.041 C 
ATOM     21  C18 <0> A   1     -14.558   4.080  44.580  0.00  0.00    +0.184 C 
ATOM     22  C19 <0> A   1     -16.065   4.306  44.761  0.00  0.00    +0.020 C 
ATOM     23  C20 <0> A   1     -16.259   5.492  45.681  0.00  0.00    +0.496 C 
ATOM     24  O2  <0> A   1     -17.011   5.430  46.625  0.00  0.00    -0.453 OA
ATOM     25  O3  <0> A   1     -15.568   6.621  45.416  0.00  0.00    -0.366 OA
BRANCH  21  26
ATOM     26  O4  <0> A   1     -13.986   3.638  45.812  0.00  0.00    -0.563 OA
ATOM     27  H26 <0> A   1     -14.424   3.992  46.599  0.00  0.00    +0.386 HD
ENDBRANCH  21  26
ENDBRANCH  18  19
ENDBRANCH  17  18
ENDBRANCH   5  17
TORSDOF 7
