MODEL 1
REMARK VINA RESULT:      -8.4      0.000      0.000
REMARK  Name = CHEMBL398240
REMARK  17 active torsions:
REMARK  status: ('A' for Active; 'I' for Inactive)
REMARK    1  A    between atoms: C1_1  and  C2_2
REMARK    2  A    between atoms: C2_2  and  C3_3
REMARK    3  A    between atoms: C2_2  and  N1_4
REMARK    4  A    between atoms: C4_5  and  C27_32
REMARK    5  A    between atoms: C5_6  and  C21_25
REMARK    6  A    between atoms: C6_7  and  C15_19
REMARK    7  A    between atoms: C7_8  and  C8_9
REMARK    8  A    between atoms: N2_11  and  C9_12
REMARK    9  A    between atoms: C9_12  and  C10_13
REMARK   10  A    between atoms: C27_32  and  C28_33
REMARK   11  A    between atoms: C28_33  and  C29_34
REMARK   12  A    between atoms: C29_34  and  C30_36
REMARK   13  A    between atoms: C29_34  and  O5_44
REMARK   14  A    between atoms: C30_36  and  C31_37
REMARK   15  A    between atoms: C31_37  and  C32_39
REMARK   16  A    between atoms: C31_37  and  O4_43
REMARK   17  A    between atoms: C32_39  and  C33_40
REMARK                            x       y       z     vdW  Elec       q    Type
REMARK                         _______ _______ _______ _____ _____    ______ ____
ROOT
ATOM      1  N1  <0> A   1     -15.792   6.262  45.493  0.00  0.00    -0.402 N 
ATOM      2  C4  <0> A   1     -14.566   6.745  45.176  0.00  0.00    +0.073 C 
ATOM      3  C5  <0> A   1     -14.321   7.860  45.920  0.00  0.00    -0.122 C 
ATOM      4  C6  <0> A   1     -15.455   8.081  46.743  0.00  0.00    -0.058 C 
ATOM      5  C7  <0> A   1     -16.362   7.070  46.451  0.00  0.00    -0.030 C 
ENDROOT
BRANCH   3   6
ATOM      6  C21 <0> A   1     -13.093   8.691  45.877  0.00  0.00    -0.008 A 
ATOM      7  C22 <0> A   1     -12.005   8.373  46.689  0.00  0.00    +0.050 A 
ATOM      8  C23 <0> A   1     -10.865   9.148  46.646  0.00  0.00    -0.016 A 
ATOM      9  C24 <0> A   1     -10.800  10.242  45.798  0.00  0.00    +0.095 A 
ATOM     10  C25 <0> A   1     -11.879  10.563  44.990  0.00  0.00    -0.017 A 
ATOM     11  C26 <0> A   1     -13.021   9.788  45.022  0.00  0.00    +0.055 A 
ATOM     12  F1  <0> A   1      -9.682  10.999  45.760  0.00  0.00    -0.142 F 
ENDBRANCH   3   6
BRANCH   4  13
ATOM     13  C15 <0> A   1     -15.639   9.179  47.719  0.00  0.00    -0.012 A 
ATOM     14  C16 <0> A   1     -16.281  10.357  47.335  0.00  0.00    +0.024 A 
ATOM     15  C17 <0> A   1     -16.449  11.377  48.249  0.00  0.00    +0.001 A 
ATOM     16  C18 <0> A   1     -15.982  11.234  49.544  0.00  0.00    -0.003 A 
ATOM     17  C19 <0> A   1     -15.345  10.068  49.930  0.00  0.00    +0.003 A 
ATOM     18  C20 <0> A   1     -15.176   9.039  49.027  0.00  0.00    +0.013 A 
ENDBRANCH   4  13
BRANCH   5  19
ATOM     19  C8  <0> A   1     -17.684   6.893  47.056  0.00  0.00    +0.606 C 
ATOM     20  O1  <0> A   1     -18.686   7.101  46.396  0.00  0.00    -0.519 OA
ATOM     21  N2  <0> A   1     -17.792   6.502  48.340  0.00  0.00    -0.713 N 
ATOM     22  H10 <0> A   1     -16.996   6.400  48.885  0.00  0.00    +0.404 HD
BRANCH  21  23
ATOM     23  C9  <0> A   1     -19.111   6.230  48.915  0.00  0.00    +0.348 C 
BRANCH  23  24
ATOM     24  C10 <0> A   1     -19.567   7.423  49.715  0.00  0.00    +0.105 A 
ATOM     25  C11 <0> A   1     -18.635   8.340  50.164  0.00  0.00    -0.016 A 
ATOM     26  C12 <0> A   1     -19.065   9.434  50.899  0.00  0.00    +0.063 A 
ATOM     27  C13 <0> A   1     -20.422   9.565  51.157  0.00  0.00    -0.027 A 
ATOM     28  C14 <0> A   1     -21.294   8.608  50.675  0.00  0.00    +0.260 A 
ATOM     29  N3  <0> A   1     -20.850   7.582  49.974  0.00  0.00    -0.466 NA
ENDBRANCH  23  24
ENDBRANCH  21  23
ENDBRANCH   5  19
BRANCH   1  31
ATOM     30  C1  <0> A   1     -17.024   5.435  43.550  0.00  0.00    +0.046 C 
ATOM     31  C2  <0> A   1     -16.414   5.073  44.905  0.00  0.00    +0.229 C 
ATOM     32  C3  <0> A   1     -15.355   3.984  44.714  0.00  0.00    +0.042 C 
ENDBRANCH   1  31
BRANCH   2  33
ATOM     33  C27 <0> A   1     -13.626   6.145  44.163  0.00  0.00    +0.117 C 
BRANCH  33  34
ATOM     34  C28 <0> A   1     -13.740   6.911  42.844  0.00  0.00    -0.007 C 
BRANCH  34  35
ATOM     35  C29 <0> A   1     -12.342   7.282  42.348  0.00  0.00    +0.212 C 
BRANCH  35  36
ATOM     36  O5  <0> A   1     -11.535   6.105  42.267  0.00  0.00    -0.541 OA
ATOM     37  H35 <0> A   1     -11.523   5.698  41.390  0.00  0.00    +0.362 HD
ENDBRANCH  35  36
BRANCH  35  38
ATOM     38  C30 <0> A   1     -12.447   7.925  40.963  0.00  0.00    -0.051 C 
BRANCH  38  39
ATOM     39  C31 <0> A   1     -12.988   9.350  41.102  0.00  0.00    +0.230 C 
BRANCH  39  40
ATOM     40  O4  <0> A   1     -11.901  10.255  41.302  0.00  0.00    -0.528 OA
ATOM     41  H34 <0> A   1     -12.095  10.972  41.921  0.00  0.00    +0.349 HD
ENDBRANCH  39  40
BRANCH  39  42
ATOM     42  C32 <0> A   1     -13.743   9.734  39.827  0.00  0.00    -0.103 C 
BRANCH  42  43
ATOM     43  C33 <0> A   1     -13.707  11.231  39.655  0.00  0.00    +0.490 C 
ATOM     44  O2  <0> A   1     -12.926  11.736  38.866  0.00  0.00    -0.681 OA
ATOM     45  O3  <0> A   1     -14.459  11.937  40.305  0.00  0.00    -0.713 OA
ENDBRANCH  42  43
ENDBRANCH  39  42
ENDBRANCH  38  39
ENDBRANCH  35  38
ENDBRANCH  34  35
ENDBRANCH  33  34
ENDBRANCH   2  33
TORSDOF 15
ENDMDL
MODEL 2
REMARK VINA RESULT:      -8.0      1.308      2.037
REMARK  Name = CHEMBL398240
REMARK  17 active torsions:
REMARK  status: ('A' for Active; 'I' for Inactive)
REMARK    1  A    between atoms: C1_1  and  C2_2
REMARK    2  A    between atoms: C2_2  and  C3_3
REMARK    3  A    between atoms: C2_2  and  N1_4
REMARK    4  A    between atoms: C4_5  and  C27_32
REMARK    5  A    between atoms: C5_6  and  C21_25
REMARK    6  A    between atoms: C6_7  and  C15_19
REMARK    7  A    between atoms: C7_8  and  C8_9
REMARK    8  A    between atoms: N2_11  and  C9_12
REMARK    9  A    between atoms: C9_12  and  C10_13
REMARK   10  A    between atoms: C27_32  and  C28_33
REMARK   11  A    between atoms: C28_33  and  C29_34
REMARK   12  A    between atoms: C29_34  and  C30_36
REMARK   13  A    between atoms: C29_34  and  O5_44
REMARK   14  A    between atoms: C30_36  and  C31_37
REMARK   15  A    between atoms: C31_37  and  C32_39
REMARK   16  A    between atoms: C31_37  and  O4_43
REMARK   17  A    between atoms: C32_39  and  C33_40
REMARK                            x       y       z     vdW  Elec       q    Type
REMARK                         _______ _______ _______ _____ _____    ______ ____
ROOT
ATOM      1  N1  <0> A   1     -15.900   6.309  45.748  0.00  0.00    -0.402 N 
ATOM      2  C4  <0> A   1     -14.638   6.741  45.510  0.00  0.00    +0.073 C 
ATOM      3  C5  <0> A   1     -14.483   7.981  46.055  0.00  0.00    -0.122 C 
ATOM      4  C6  <0> A   1     -15.714   8.337  46.662  0.00  0.00    -0.058 C 
ATOM      5  C7  <0> A   1     -16.584   7.275  46.450  0.00  0.00    -0.030 C 
ENDROOT
BRANCH   3   6
ATOM      6  C21 <0> A   1     -13.252   8.807  46.018  0.00  0.00    -0.008 A 
ATOM      7  C22 <0> A   1     -12.315   8.712  47.047  0.00  0.00    +0.050 A 
ATOM      8  C23 <0> A   1     -11.171   9.482  47.009  0.00  0.00    -0.016 A 
ATOM      9  C24 <0> A   1     -10.953  10.350  45.951  0.00  0.00    +0.095 A 
ATOM     10  C25 <0> A   1     -11.880  10.449  44.928  0.00  0.00    -0.017 A 
ATOM     11  C26 <0> A   1     -13.024   9.677  44.954  0.00  0.00    +0.055 A 
ATOM     12  F1  <0> A   1      -9.831  11.103  45.920  0.00  0.00    -0.142 F 
ENDBRANCH   3   6
BRANCH   4  13
ATOM     13  C15 <0> A   1     -16.016   9.598  47.377  0.00  0.00    -0.012 A 
ATOM     14  C16 <0> A   1     -15.960   9.642  48.771  0.00  0.00    +0.024 A 
ATOM     15  C17 <0> A   1     -16.243  10.820  49.432  0.00  0.00    +0.001 A 
ATOM     16  C18 <0> A   1     -16.581  11.955  48.716  0.00  0.00    -0.003 A 
ATOM     17  C19 <0> A   1     -16.637  11.917  47.335  0.00  0.00    +0.003 A 
ATOM     18  C20 <0> A   1     -16.351  10.747  46.661  0.00  0.00    +0.013 A 
ENDBRANCH   4  13
BRANCH   5  19
ATOM     19  C8  <0> A   1     -17.978   7.196  46.895  0.00  0.00    +0.606 C 
ATOM     20  O1  <0> A   1     -18.881   7.326  46.089  0.00  0.00    -0.519 OA
ATOM     21  N2  <0> A   1     -18.259   6.981  48.194  0.00  0.00    -0.713 N 
ATOM     22  H10 <0> A   1     -17.542   6.943  48.847  0.00  0.00    +0.404 HD
BRANCH  21  23
ATOM     23  C9  <0> A   1     -19.648   6.804  48.624  0.00  0.00    +0.348 C 
BRANCH  23  24
ATOM     24  C10 <0> A   1     -19.814   5.438  49.239  0.00  0.00    +0.105 A 
ATOM     25  C11 <0> A   1     -18.696   4.715  49.608  0.00  0.00    -0.016 A 
ATOM     26  C12 <0> A   1     -18.860   3.460  50.173  0.00  0.00    +0.063 A 
ATOM     27  C13 <0> A   1     -20.149   2.977  50.348  0.00  0.00    -0.027 A 
ATOM     28  C14 <0> A   1     -21.219   3.758  49.955  0.00  0.00    +0.260 A 
ATOM     29  N3  <0> A   1     -21.025   4.951  49.425  0.00  0.00    -0.466 NA
ENDBRANCH  23  24
ENDBRANCH  21  23
ENDBRANCH   5  19
BRANCH   1  31
ATOM     30  C1  <0> A   1     -16.918   5.124  43.866  0.00  0.00    +0.046 C 
ATOM     31  C2  <0> A   1     -16.450   5.021  45.319  0.00  0.00    +0.229 C 
ATOM     32  C3  <0> A   1     -15.371   3.941  45.432  0.00  0.00    +0.042 C 
ENDBRANCH   1  31
BRANCH   2  33
ATOM     33  C27 <0> A   1     -13.577   5.974  44.765  0.00  0.00    +0.117 C 
BRANCH  33  34
ATOM     34  C28 <0> A   1     -13.830   6.082  43.261  0.00  0.00    -0.007 C 
BRANCH  34  35
ATOM     35  C29 <0> A   1     -12.815   7.042  42.640  0.00  0.00    +0.212 C 
BRANCH  35  36
ATOM     36  O5  <0> A   1     -11.671   6.307  42.200  0.00  0.00    -0.541 OA
ATOM     37  H35 <0> A   1     -11.782   5.347  42.238  0.00  0.00    +0.362 HD
ENDBRANCH  35  36
BRANCH  35  38
ATOM     38  C30 <0> A   1     -13.452   7.756  41.446  0.00  0.00    -0.051 C 
BRANCH  38  39
ATOM     39  C31 <0> A   1     -12.636   9.005  41.103  0.00  0.00    +0.230 C 
BRANCH  39  40
ATOM     40  O4  <0> A   1     -12.300   8.989  39.715  0.00  0.00    -0.528 OA
ATOM     41  H34 <0> A   1     -11.883   8.169  39.420  0.00  0.00    +0.349 HD
ENDBRANCH  39  40
BRANCH  39  42
ATOM     42  C32 <0> A   1     -13.462  10.255  41.414  0.00  0.00    -0.103 C 
BRANCH  42  43
ATOM     43  C33 <0> A   1     -13.552  11.116  40.181  0.00  0.00    +0.490 C 
ATOM     44  O2  <0> A   1     -12.584  11.765  39.819  0.00  0.00    -0.681 OA
ATOM     45  O3  <0> A   1     -14.591  11.166  39.545  0.00  0.00    -0.713 OA
ENDBRANCH  42  43
ENDBRANCH  39  42
ENDBRANCH  38  39
ENDBRANCH  35  38
ENDBRANCH  34  35
ENDBRANCH  33  34
ENDBRANCH   2  33
TORSDOF 15
ENDMDL
MODEL 3
REMARK VINA RESULT:      -7.6      2.830      8.556
REMARK  Name = CHEMBL398240
REMARK  17 active torsions:
REMARK  status: ('A' for Active; 'I' for Inactive)
REMARK    1  A    between atoms: C1_1  and  C2_2
REMARK    2  A    between atoms: C2_2  and  C3_3
REMARK    3  A    between atoms: C2_2  and  N1_4
REMARK    4  A    between atoms: C4_5  and  C27_32
REMARK    5  A    between atoms: C5_6  and  C21_25
REMARK    6  A    between atoms: C6_7  and  C15_19
REMARK    7  A    between atoms: C7_8  and  C8_9
REMARK    8  A    between atoms: N2_11  and  C9_12
REMARK    9  A    between atoms: C9_12  and  C10_13
REMARK   10  A    between atoms: C27_32  and  C28_33
REMARK   11  A    between atoms: C28_33  and  C29_34
REMARK   12  A    between atoms: C29_34  and  C30_36
REMARK   13  A    between atoms: C29_34  and  O5_44
REMARK   14  A    between atoms: C30_36  and  C31_37
REMARK   15  A    between atoms: C31_37  and  C32_39
REMARK   16  A    between atoms: C31_37  and  O4_43
REMARK   17  A    between atoms: C32_39  and  C33_40
REMARK                            x       y       z     vdW  Elec       q    Type
REMARK                         _______ _______ _______ _____ _____    ______ ____
ROOT
ATOM      1  N1  <0> A   1     -15.215   6.640  45.580  0.00  0.00    -0.402 N 
ATOM      2  C4  <0> A   1     -15.847   6.962  46.734  0.00  0.00    +0.073 C 
ATOM      3  C5  <0> A   1     -15.303   8.108  47.234  0.00  0.00    -0.122 C 
ATOM      4  C6  <0> A   1     -14.278   8.517  46.343  0.00  0.00    -0.058 C 
ATOM      5  C7  <0> A   1     -14.241   7.578  45.320  0.00  0.00    -0.030 C 
ENDROOT
BRANCH   3   6
ATOM      6  C21 <0> A   1     -15.708   8.799  48.481  0.00  0.00    -0.008 A 
ATOM      7  C22 <0> A   1     -15.158   8.416  49.703  0.00  0.00    +0.050 A 
ATOM      8  C23 <0> A   1     -15.538   9.062  50.862  0.00  0.00    -0.016 A 
ATOM      9  C24 <0> A   1     -16.467  10.089  50.812  0.00  0.00    +0.095 A 
ATOM     10  C25 <0> A   1     -17.017  10.473  49.601  0.00  0.00    -0.017 A 
ATOM     11  C26 <0> A   1     -16.637   9.837  48.436  0.00  0.00    +0.055 A 
ATOM     12  F1  <0> A   1     -16.836  10.717  51.950  0.00  0.00    -0.142 F 
ENDBRANCH   3   6
BRANCH   4  13
ATOM     13  C15 <0> A   1     -13.412   9.711  46.479  0.00  0.00    -0.012 A 
ATOM     14  C16 <0> A   1     -13.757  10.902  45.840  0.00  0.00    +0.024 A 
ATOM     15  C17 <0> A   1     -12.946  12.010  45.970  0.00  0.00    +0.001 A 
ATOM     16  C18 <0> A   1     -11.793  11.942  46.732  0.00  0.00    -0.003 A 
ATOM     17  C19 <0> A   1     -11.446  10.764  47.368  0.00  0.00    +0.003 A 
ATOM     18  C20 <0> A   1     -12.252   9.650  47.250  0.00  0.00    +0.013 A 
ENDBRANCH   4  13
BRANCH   5  19
ATOM     19  C8  <0> A   1     -13.332   7.585  44.172  0.00  0.00    +0.606 C 
ATOM     20  O1  <0> A   1     -12.135   7.442  44.343  0.00  0.00    -0.519 OA
ATOM     21  N2  <0> A   1     -13.820   7.749  42.927  0.00  0.00    -0.713 N 
ATOM     22  H10 <0> A   1     -14.764   7.929  42.795  0.00  0.00    +0.404 HD
BRANCH  21  23
ATOM     23  C9  <0> A   1     -12.924   7.657  41.771  0.00  0.00    +0.348 C 
BRANCH  23  24
ATOM     24  C10 <0> A   1     -12.990   8.939  40.981  0.00  0.00    +0.105 A 
ATOM     25  C11 <0> A   1     -13.388  10.106  41.604  0.00  0.00    -0.016 A 
ATOM     26  C12 <0> A   1     -13.446  11.279  40.868  0.00  0.00    +0.063 A 
ATOM     27  C13 <0> A   1     -13.099  11.234  39.525  0.00  0.00    -0.027 A 
ATOM     28  C14 <0> A   1     -12.711  10.030  38.971  0.00  0.00    +0.260 A 
ATOM     29  N3  <0> A   1     -12.662   8.934  39.703  0.00  0.00    -0.466 NA
ENDBRANCH  23  24
ENDBRANCH  21  23
ENDBRANCH   5  19
BRANCH   1  31
ATOM     30  C1  <0> A   1     -15.561   4.219  45.619  0.00  0.00    +0.046 C 
ATOM     31  C2  <0> A   1     -15.515   5.474  44.745  0.00  0.00    +0.229 C 
ATOM     32  C3  <0> A   1     -16.871   5.670  44.062  0.00  0.00    +0.042 C 
ENDBRANCH   1  31
BRANCH   2  33
ATOM     33  C27 <0> A   1     -16.971   6.181  47.362  0.00  0.00    +0.117 C 
BRANCH  33  34
ATOM     34  C28 <0> A   1     -18.312   6.741  46.883  0.00  0.00    -0.007 C 
BRANCH  34  35
ATOM     35  C29 <0> A   1     -19.264   6.874  48.072  0.00  0.00    +0.212 C 
BRANCH  35  36
ATOM     36  O5  <0> A   1     -20.404   6.038  47.867  0.00  0.00    -0.541 OA
ATOM     37  H35 <0> A   1     -20.290   5.385  47.163  0.00  0.00    +0.362 HD
ENDBRANCH  35  36
BRANCH  35  38
ATOM     38  C30 <0> A   1     -18.543   6.447  49.353  0.00  0.00    -0.051 C 
BRANCH  38  39
ATOM     39  C31 <0> A   1     -19.086   7.251  50.537  0.00  0.00    +0.230 C 
BRANCH  39  40
ATOM     40  O4  <0> A   1     -20.027   8.217  50.065  0.00  0.00    -0.528 OA
ATOM     41  H34 <0> A   1     -19.662   9.106  49.966  0.00  0.00    +0.349 HD
ENDBRANCH  39  40
BRANCH  39  42
ATOM     42  C32 <0> A   1     -19.778   6.304  51.521  0.00  0.00    -0.103 C 
BRANCH  42  43
ATOM     43  C33 <0> A   1     -21.259   6.290  51.246  0.00  0.00    +0.490 C 
ATOM     44  O2  <0> A   1     -22.001   7.036  51.862  0.00  0.00    -0.681 OA
ATOM     45  O3  <0> A   1     -21.716   5.531  50.408  0.00  0.00    -0.713 OA
ENDBRANCH  42  43
ENDBRANCH  39  42
ENDBRANCH  38  39
ENDBRANCH  35  38
ENDBRANCH  34  35
ENDBRANCH  33  34
ENDBRANCH   2  33
TORSDOF 15
ENDMDL
MODEL 4
REMARK VINA RESULT:      -7.6      3.497      9.467
REMARK  Name = CHEMBL398240
REMARK  17 active torsions:
REMARK  status: ('A' for Active; 'I' for Inactive)
REMARK    1  A    between atoms: C1_1  and  C2_2
REMARK    2  A    between atoms: C2_2  and  C3_3
REMARK    3  A    between atoms: C2_2  and  N1_4
REMARK    4  A    between atoms: C4_5  and  C27_32
REMARK    5  A    between atoms: C5_6  and  C21_25
REMARK    6  A    between atoms: C6_7  and  C15_19
REMARK    7  A    between atoms: C7_8  and  C8_9
REMARK    8  A    between atoms: N2_11  and  C9_12
REMARK    9  A    between atoms: C9_12  and  C10_13
REMARK   10  A    between atoms: C27_32  and  C28_33
REMARK   11  A    between atoms: C28_33  and  C29_34
REMARK   12  A    between atoms: C29_34  and  C30_36
REMARK   13  A    between atoms: C29_34  and  O5_44
REMARK   14  A    between atoms: C30_36  and  C31_37
REMARK   15  A    between atoms: C31_37  and  C32_39
REMARK   16  A    between atoms: C31_37  and  O4_43
REMARK   17  A    between atoms: C32_39  and  C33_40
REMARK                            x       y       z     vdW  Elec       q    Type
REMARK                         _______ _______ _______ _____ _____    ______ ____
ROOT
ATOM      1  N1  <0> A   1     -14.768   9.968  47.243  0.00  0.00    -0.402 N 
ATOM      2  C4  <0> A   1     -15.789   9.439  47.959  0.00  0.00    +0.073 C 
ATOM      3  C5  <0> A   1     -15.987   8.149  47.566  0.00  0.00    -0.122 C 
ATOM      4  C6  <0> A   1     -15.038   7.863  46.551  0.00  0.00    -0.058 C 
ATOM      5  C7  <0> A   1     -14.292   9.019  46.366  0.00  0.00    -0.030 C 
ENDROOT
BRANCH   3   6
ATOM      6  C21 <0> A   1     -17.009   7.216  48.100  0.00  0.00    -0.008 A 
ATOM      7  C22 <0> A   1     -18.303   7.226  47.583  0.00  0.00    +0.050 A 
ATOM      8  C23 <0> A   1     -19.250   6.356  48.084  0.00  0.00    -0.016 A 
ATOM      9  C24 <0> A   1     -18.917   5.476  49.100  0.00  0.00    +0.095 A 
ATOM     10  C25 <0> A   1     -17.633   5.463  49.617  0.00  0.00    -0.017 A 
ATOM     11  C26 <0> A   1     -16.677   6.324  49.118  0.00  0.00    +0.055 A 
ATOM     12  F1  <0> A   1     -19.849   4.627  49.587  0.00  0.00    -0.142 F 
ENDBRANCH   3   6
BRANCH   4  13
ATOM     13  C15 <0> A   1     -14.877   6.581  45.827  0.00  0.00    -0.012 A 
ATOM     14  C16 <0> A   1     -14.154   5.537  46.404  0.00  0.00    +0.024 A 
ATOM     15  C17 <0> A   1     -14.007   4.346  45.724  0.00  0.00    +0.001 A 
ATOM     16  C18 <0> A   1     -14.576   4.185  44.472  0.00  0.00    -0.003 A 
ATOM     17  C19 <0> A   1     -15.294   5.217  43.895  0.00  0.00    +0.003 A 
ATOM     18  C20 <0> A   1     -15.453   6.411  44.568  0.00  0.00    +0.013 A 
ENDBRANCH   4  13
BRANCH   5  19
ATOM     19  C8  <0> A   1     -13.195   9.198  45.411  0.00  0.00    +0.606 C 
ATOM     20  O1  <0> A   1     -12.093   8.746  45.660  0.00  0.00    -0.519 OA
ATOM     21  N2  <0> A   1     -13.407   9.862  44.258  0.00  0.00    -0.713 N 
ATOM     22  H10 <0> A   1     -14.266  10.279  44.089  0.00  0.00    +0.404 HD
BRANCH  21  23
ATOM     23  C9  <0> A   1     -12.339   9.955  43.260  0.00  0.00    +0.348 C 
BRANCH  23  24
ATOM     24  C10 <0> A   1     -12.913  10.439  41.954  0.00  0.00    +0.105 A 
ATOM     25  C11 <0> A   1     -14.174  11.005  41.929  0.00  0.00    -0.016 A 
ATOM     26  C12 <0> A   1     -14.692  11.448  40.722  0.00  0.00    +0.063 A 
ATOM     27  C13 <0> A   1     -13.919  11.304  39.579  0.00  0.00    -0.027 A 
ATOM     28  C14 <0> A   1     -12.667  10.729  39.681  0.00  0.00    +0.260 A 
ATOM     29  N3  <0> A   1     -12.203  10.324  40.848  0.00  0.00    -0.466 NA
ENDBRANCH  23  24
ENDBRANCH  21  23
ENDBRANCH   5  19
BRANCH   1  31
ATOM     30  C1  <0> A   1     -15.427  12.316  47.420  0.00  0.00    +0.046 C 
ATOM     31  C2  <0> A   1     -14.255  11.334  47.376  0.00  0.00    +0.229 C 
ATOM     32  C3  <0> A   1     -13.444  11.451  48.669  0.00  0.00    +0.042 C 
ENDBRANCH   1  31
BRANCH   2  33
ATOM     33  C27 <0> A   1     -16.579  10.161  49.020  0.00  0.00    +0.117 C 
BRANCH  33  34
ATOM     34  C28 <0> A   1     -16.047   9.777  50.401  0.00  0.00    -0.007 C 
BRANCH  34  35
ATOM     35  C29 <0> A   1     -17.205   9.301  51.280  0.00  0.00    +0.212 C 
BRANCH  35  36
ATOM     36  O5  <0> A   1     -17.223  10.052  52.495  0.00  0.00    -0.541 OA
ATOM     37  H35 <0> A   1     -17.119  11.005  52.368  0.00  0.00    +0.362 HD
ENDBRANCH  35  36
BRANCH  35  38
ATOM     38  C30 <0> A   1     -18.526   9.504  50.535  0.00  0.00    -0.051 C 
BRANCH  38  39
ATOM     39  C31 <0> A   1     -19.670   8.892  51.349  0.00  0.00    +0.230 C 
BRANCH  39  40
ATOM     40  O4  <0> A   1     -20.041   9.790  52.397  0.00  0.00    -0.528 OA
ATOM     41  H34 <0> A   1     -20.959  10.087  52.354  0.00  0.00    +0.349 HD
ENDBRANCH  39  40
BRANCH  39  42
ATOM     42  C32 <0> A   1     -20.873   8.650  50.435  0.00  0.00    -0.103 C 
BRANCH  42  43
ATOM     43  C33 <0> A   1     -22.010   9.544  50.856  0.00  0.00    +0.490 C 
ATOM     44  O2  <0> A   1     -22.846   9.137  51.645  0.00  0.00    -0.681 OA
ATOM     45  O3  <0> A   1     -22.095  10.674  50.407  0.00  0.00    -0.713 OA
ENDBRANCH  42  43
ENDBRANCH  39  42
ENDBRANCH  38  39
ENDBRANCH  35  38
ENDBRANCH  34  35
ENDBRANCH  33  34
ENDBRANCH   2  33
TORSDOF 15
ENDMDL
MODEL 5
REMARK VINA RESULT:      -7.6      3.492      9.395
REMARK  Name = CHEMBL398240
REMARK  17 active torsions:
REMARK  status: ('A' for Active; 'I' for Inactive)
REMARK    1  A    between atoms: C1_1  and  C2_2
REMARK    2  A    between atoms: C2_2  and  C3_3
REMARK    3  A    between atoms: C2_2  and  N1_4
REMARK    4  A    between atoms: C4_5  and  C27_32
REMARK    5  A    between atoms: C5_6  and  C21_25
REMARK    6  A    between atoms: C6_7  and  C15_19
REMARK    7  A    between atoms: C7_8  and  C8_9
REMARK    8  A    between atoms: N2_11  and  C9_12
REMARK    9  A    between atoms: C9_12  and  C10_13
REMARK   10  A    between atoms: C27_32  and  C28_33
REMARK   11  A    between atoms: C28_33  and  C29_34
REMARK   12  A    between atoms: C29_34  and  C30_36
REMARK   13  A    between atoms: C29_34  and  O5_44
REMARK   14  A    between atoms: C30_36  and  C31_37
REMARK   15  A    between atoms: C31_37  and  C32_39
REMARK   16  A    between atoms: C31_37  and  O4_43
REMARK   17  A    between atoms: C32_39  and  C33_40
REMARK                            x       y       z     vdW  Elec       q    Type
REMARK                         _______ _______ _______ _____ _____    ______ ____
ROOT
ATOM      1  N1  <0> A   1     -14.730   9.954  47.231  0.00  0.00    -0.402 N 
ATOM      2  C4  <0> A   1     -15.749   9.429  47.954  0.00  0.00    +0.073 C 
ATOM      3  C5  <0> A   1     -15.951   8.138  47.565  0.00  0.00    -0.122 C 
ATOM      4  C6  <0> A   1     -15.009   7.848  46.546  0.00  0.00    -0.058 C 
ATOM      5  C7  <0> A   1     -14.261   9.003  46.354  0.00  0.00    -0.030 C 
ENDROOT
BRANCH   3   6
ATOM      6  C21 <0> A   1     -16.971   7.208  48.108  0.00  0.00    -0.008 A 
ATOM      7  C22 <0> A   1     -16.641   6.336  49.144  0.00  0.00    +0.050 A 
ATOM      8  C23 <0> A   1     -17.594   5.473  49.645  0.00  0.00    -0.016 A 
ATOM      9  C24 <0> A   1     -18.876   5.471  49.120  0.00  0.00    +0.095 A 
ATOM     10  C25 <0> A   1     -19.208   6.335  48.090  0.00  0.00    -0.017 A 
ATOM     11  C26 <0> A   1     -18.264   7.207  47.587  0.00  0.00    +0.055 A 
ATOM     12  F1  <0> A   1     -19.804   4.623  49.615  0.00  0.00    -0.142 F 
ENDBRANCH   3   6
BRANCH   4  13
ATOM     13  C15 <0> A   1     -14.854   6.564  45.824  0.00  0.00    -0.012 A 
ATOM     14  C16 <0> A   1     -15.397   6.409  44.548  0.00  0.00    +0.024 A 
ATOM     15  C17 <0> A   1     -15.251   5.211  43.880  0.00  0.00    +0.001 A 
ATOM     16  C18 <0> A   1     -14.568   4.164  44.473  0.00  0.00    -0.003 A 
ATOM     17  C19 <0> A   1     -14.028   4.311  45.739  0.00  0.00    +0.003 A 
ATOM     18  C20 <0> A   1     -14.162   5.507  46.414  0.00  0.00    +0.013 A 
ENDBRANCH   4  13
BRANCH   5  19
ATOM     19  C8  <0> A   1     -13.170   9.177  45.392  0.00  0.00    +0.606 C 
ATOM     20  O1  <0> A   1     -12.078   8.687  45.617  0.00  0.00    -0.519 OA
ATOM     21  N2  <0> A   1     -13.374   9.879  44.261  0.00  0.00    -0.713 N 
ATOM     22  H10 <0> A   1     -14.223  10.325  44.113  0.00  0.00    +0.404 HD
BRANCH  21  23
ATOM     23  C9  <0> A   1     -12.314   9.970  43.254  0.00  0.00    +0.348 C 
BRANCH  23  24
ATOM     24  C10 <0> A   1     -12.898  10.452  41.951  0.00  0.00    +0.105 A 
ATOM     25  C11 <0> A   1     -14.155  11.026  41.937  0.00  0.00    -0.016 A 
ATOM     26  C12 <0> A   1     -14.683  11.467  40.734  0.00  0.00    +0.063 A 
ATOM     27  C13 <0> A   1     -13.923  11.314  39.583  0.00  0.00    -0.027 A 
ATOM     28  C14 <0> A   1     -12.674  10.731  39.675  0.00  0.00    +0.260 A 
ATOM     29  N3  <0> A   1     -12.201  10.328  40.839  0.00  0.00    -0.466 NA
ENDBRANCH  23  24
ENDBRANCH  21  23
ENDBRANCH   5  19
BRANCH   1  31
ATOM     30  C1  <0> A   1     -15.385  12.304  47.404  0.00  0.00    +0.046 C 
ATOM     31  C2  <0> A   1     -14.215  11.319  47.359  0.00  0.00    +0.229 C 
ATOM     32  C3  <0> A   1     -13.398  11.438  48.648  0.00  0.00    +0.042 C 
ENDBRANCH   1  31
BRANCH   2  33
ATOM     33  C27 <0> A   1     -16.531  10.154  49.018  0.00  0.00    +0.117 C 
BRANCH  33  34
ATOM     34  C28 <0> A   1     -16.003   9.760  50.398  0.00  0.00    -0.007 C 
BRANCH  34  35
ATOM     35  C29 <0> A   1     -17.169   9.323  51.285  0.00  0.00    +0.212 C 
BRANCH  35  36
ATOM     36  O5  <0> A   1     -17.192  10.119  52.471  0.00  0.00    -0.541 OA
ATOM     37  H35 <0> A   1     -17.937   9.928  53.058  0.00  0.00    +0.362 HD
ENDBRANCH  35  36
BRANCH  35  38
ATOM     38  C30 <0> A   1     -18.484   9.504  50.524  0.00  0.00    -0.051 C 
BRANCH  38  39
ATOM     39  C31 <0> A   1     -19.632   8.898  51.336  0.00  0.00    +0.230 C 
BRANCH  39  40
ATOM     40  O4  <0> A   1     -20.014   9.806  52.371  0.00  0.00    -0.528 OA
ATOM     41  H34 <0> A   1     -19.821   9.488  53.263  0.00  0.00    +0.349 HD
ENDBRANCH  39  40
BRANCH  39  42
ATOM     42  C32 <0> A   1     -20.827   8.642  50.416  0.00  0.00    -0.103 C 
BRANCH  42  43
ATOM     43  C33 <0> A   1     -21.981   9.515  50.837  0.00  0.00    +0.490 C 
ATOM     44  O2  <0> A   1     -22.094  10.639  50.377  0.00  0.00    -0.681 OA
ATOM     45  O3  <0> A   1     -22.800   9.098  51.638  0.00  0.00    -0.713 OA
ENDBRANCH  42  43
ENDBRANCH  39  42
ENDBRANCH  38  39
ENDBRANCH  35  38
ENDBRANCH  34  35
ENDBRANCH  33  34
ENDBRANCH   2  33
TORSDOF 15
ENDMDL
MODEL 6
REMARK VINA RESULT:      -7.6      3.557      7.265
REMARK  Name = CHEMBL398240
REMARK  17 active torsions:
REMARK  status: ('A' for Active; 'I' for Inactive)
REMARK    1  A    between atoms: C1_1  and  C2_2
REMARK    2  A    between atoms: C2_2  and  C3_3
REMARK    3  A    between atoms: C2_2  and  N1_4
REMARK    4  A    between atoms: C4_5  and  C27_32
REMARK    5  A    between atoms: C5_6  and  C21_25
REMARK    6  A    between atoms: C6_7  and  C15_19
REMARK    7  A    between atoms: C7_8  and  C8_9
REMARK    8  A    between atoms: N2_11  and  C9_12
REMARK    9  A    between atoms: C9_12  and  C10_13
REMARK   10  A    between atoms: C27_32  and  C28_33
REMARK   11  A    between atoms: C28_33  and  C29_34
REMARK   12  A    between atoms: C29_34  and  C30_36
REMARK   13  A    between atoms: C29_34  and  O5_44
REMARK   14  A    between atoms: C30_36  and  C31_37
REMARK   15  A    between atoms: C31_37  and  C32_39
REMARK   16  A    between atoms: C31_37  and  O4_43
REMARK   17  A    between atoms: C32_39  and  C33_40
REMARK                            x       y       z     vdW  Elec       q    Type
REMARK                         _______ _______ _______ _____ _____    ______ ____
ROOT
ATOM      1  N1  <0> A   1     -12.058   8.928  46.670  0.00  0.00    -0.402 N 
ATOM      2  C4  <0> A   1     -12.520   8.382  47.821  0.00  0.00    +0.073 C 
ATOM      3  C5  <0> A   1     -13.556   9.137  48.286  0.00  0.00    -0.122 C 
ATOM      4  C6  <0> A   1     -13.745  10.208  47.376  0.00  0.00    -0.058 C 
ATOM      5  C7  <0> A   1     -12.791  10.056  46.377  0.00  0.00    -0.030 C 
ENDROOT
BRANCH   3   6
ATOM      6  C21 <0> A   1     -14.340   8.884  49.519  0.00  0.00    -0.008 A 
ATOM      7  C22 <0> A   1     -13.840   9.279  50.759  0.00  0.00    +0.050 A 
ATOM      8  C23 <0> A   1     -14.574   9.041  51.903  0.00  0.00    -0.016 A 
ATOM      9  C24 <0> A   1     -15.804   8.410  51.822  0.00  0.00    +0.095 A 
ATOM     10  C25 <0> A   1     -16.305   8.015  50.592  0.00  0.00    -0.017 A 
ATOM     11  C26 <0> A   1     -15.582   8.255  49.442  0.00  0.00    +0.055 A 
ATOM     12  F1  <0> A   1     -16.518   8.179  52.946  0.00  0.00    -0.142 F 
ENDBRANCH   3   6
BRANCH   4  13
ATOM     13  C15 <0> A   1     -14.760  11.282  47.473  0.00  0.00    -0.012 A 
ATOM     14  C16 <0> A   1     -16.041  11.084  46.957  0.00  0.00    +0.024 A 
ATOM     15  C17 <0> A   1     -16.981  12.089  47.050  0.00  0.00    +0.001 A 
ATOM     16  C18 <0> A   1     -16.657  13.291  47.654  0.00  0.00    -0.003 A 
ATOM     17  C19 <0> A   1     -15.388  13.493  48.167  0.00  0.00    +0.003 A 
ATOM     18  C20 <0> A   1     -14.440  12.493  48.086  0.00  0.00    +0.013 A 
ENDBRANCH   4  13
BRANCH   5  19
ATOM     19  C8  <0> A   1     -12.601  10.935  45.221  0.00  0.00    +0.606 C 
ATOM     20  O1  <0> A   1     -11.767  11.820  45.262  0.00  0.00    -0.519 OA
ATOM     21  N2  <0> A   1     -13.350  10.764  44.115  0.00  0.00    -0.713 N 
ATOM     22  H10 <0> A   1     -14.059  10.103  44.106  0.00  0.00    +0.404 HD
BRANCH  21  23
ATOM     23  C9  <0> A   1     -13.093  11.578  42.924  0.00  0.00    +0.348 C 
BRANCH  23  24
ATOM     24  C10 <0> A   1     -13.022  10.686  41.711  0.00  0.00    +0.105 A 
ATOM     25  C11 <0> A   1     -13.290   9.336  41.839  0.00  0.00    -0.016 A 
ATOM     26  C12 <0> A   1     -13.223   8.525  40.717  0.00  0.00    +0.063 A 
ATOM     27  C13 <0> A   1     -12.887   9.104  39.502  0.00  0.00    -0.027 A 
ATOM     28  C14 <0> A   1     -12.633  10.461  39.451  0.00  0.00    +0.260 A 
ATOM     29  N3  <0> A   1     -12.712  11.204  40.539  0.00  0.00    -0.466 NA
ENDBRANCH  23  24
ENDBRANCH  21  23
ENDBRANCH   5  19
BRANCH   1  31
ATOM     30  C1  <0> A   1     -11.455   8.043  44.472  0.00  0.00    +0.046 C 
ATOM     31  C2  <0> A   1     -10.948   8.405  45.869  0.00  0.00    +0.229 C 
ATOM     32  C3  <0> A   1      -9.855   9.471  45.754  0.00  0.00    +0.042 C 
ENDBRANCH   1  31
BRANCH   2  33
ATOM     33  C27 <0> A   1     -11.977   7.141  48.479  0.00  0.00    +0.117 C 
BRANCH  33  34
ATOM     34  C28 <0> A   1     -13.007   6.015  48.373  0.00  0.00    -0.007 C 
BRANCH  34  35
ATOM     35  C29 <0> A   1     -13.476   5.887  46.923  0.00  0.00    +0.212 C 
BRANCH  35  36
ATOM     36  O5  <0> A   1     -12.823   4.775  46.307  0.00  0.00    -0.541 OA
ATOM     37  H35 <0> A   1     -13.337   4.361  45.600  0.00  0.00    +0.362 HD
ENDBRANCH  35  36
BRANCH  35  38
ATOM     38  C30 <0> A   1     -14.990   5.669  46.895  0.00  0.00    -0.051 C 
BRANCH  38  39
ATOM     39  C31 <0> A   1     -15.587   6.396  45.687  0.00  0.00    +0.230 C 
BRANCH  39  40
ATOM     40  O4  <0> A   1     -14.609   7.274  45.128  0.00  0.00    -0.528 OA
ATOM     41  H34 <0> A   1     -13.815   7.374  45.670  0.00  0.00    +0.349 HD
ENDBRANCH  39  40
BRANCH  39  42
ATOM     42  C32 <0> A   1     -16.013   5.371  44.634  0.00  0.00    -0.103 C 
BRANCH  42  43
ATOM     43  C33 <0> A   1     -14.968   5.302  43.550  0.00  0.00    +0.490 C 
ATOM     44  O2  <0> A   1     -15.029   6.058  42.595  0.00  0.00    -0.681 OA
ATOM     45  O3  <0> A   1     -14.062   4.489  43.628  0.00  0.00    -0.713 OA
ENDBRANCH  42  43
ENDBRANCH  39  42
ENDBRANCH  38  39
ENDBRANCH  35  38
ENDBRANCH  34  35
ENDBRANCH  33  34
ENDBRANCH   2  33
TORSDOF 15
ENDMDL
MODEL 7
REMARK VINA RESULT:      -7.4     15.205     18.351
REMARK  Name = CHEMBL398240
REMARK  17 active torsions:
REMARK  status: ('A' for Active; 'I' for Inactive)
REMARK    1  A    between atoms: C1_1  and  C2_2
REMARK    2  A    between atoms: C2_2  and  C3_3
REMARK    3  A    between atoms: C2_2  and  N1_4
REMARK    4  A    between atoms: C4_5  and  C27_32
REMARK    5  A    between atoms: C5_6  and  C21_25
REMARK    6  A    between atoms: C6_7  and  C15_19
REMARK    7  A    between atoms: C7_8  and  C8_9
REMARK    8  A    between atoms: N2_11  and  C9_12
REMARK    9  A    between atoms: C9_12  and  C10_13
REMARK   10  A    between atoms: C27_32  and  C28_33
REMARK   11  A    between atoms: C28_33  and  C29_34
REMARK   12  A    between atoms: C29_34  and  C30_36
REMARK   13  A    between atoms: C29_34  and  O5_44
REMARK   14  A    between atoms: C30_36  and  C31_37
REMARK   15  A    between atoms: C31_37  and  C32_39
REMARK   16  A    between atoms: C31_37  and  O4_43
REMARK   17  A    between atoms: C32_39  and  C33_40
REMARK                            x       y       z     vdW  Elec       q    Type
REMARK                         _______ _______ _______ _____ _____    ______ ____
ROOT
ATOM      1  N1  <0> A   1     -25.855  -2.800  51.776  0.00  0.00    -0.402 N 
ATOM      2  C4  <0> A   1     -24.949  -3.744  51.425  0.00  0.00    +0.073 C 
ATOM      3  C5  <0> A   1     -25.564  -4.961  51.396  0.00  0.00    -0.122 C 
ATOM      4  C6  <0> A   1     -26.923  -4.760  51.749  0.00  0.00    -0.058 C 
ATOM      5  C7  <0> A   1     -27.076  -3.400  51.986  0.00  0.00    -0.030 C 
ENDROOT
BRANCH   3   6
ATOM      6  C21 <0> A   1     -24.928  -6.257  51.058  0.00  0.00    -0.008 A 
ATOM      7  C22 <0> A   1     -24.420  -7.071  52.070  0.00  0.00    +0.050 A 
ATOM      8  C23 <0> A   1     -23.828  -8.276  51.751  0.00  0.00    -0.016 A 
ATOM      9  C24 <0> A   1     -23.737  -8.677  50.428  0.00  0.00    +0.095 A 
ATOM     10  C25 <0> A   1     -24.239  -7.872  49.420  0.00  0.00    -0.017 A 
ATOM     11  C26 <0> A   1     -24.839  -6.668  49.730  0.00  0.00    +0.055 A 
ATOM     12  F1  <0> A   1     -23.156  -9.857  50.122  0.00  0.00    -0.142 F 
ENDBRANCH   3   6
BRANCH   4  13
ATOM     13  C15 <0> A   1     -27.974  -5.799  51.849  0.00  0.00    -0.012 A 
ATOM     14  C16 <0> A   1     -28.252  -6.395  53.080  0.00  0.00    +0.024 A 
ATOM     15  C17 <0> A   1     -29.231  -7.363  53.167  0.00  0.00    +0.001 A 
ATOM     16  C18 <0> A   1     -29.937  -7.743  52.038  0.00  0.00    -0.003 A 
ATOM     17  C19 <0> A   1     -29.664  -7.155  50.816  0.00  0.00    +0.003 A 
ATOM     18  C20 <0> A   1     -28.691  -6.181  50.717  0.00  0.00    +0.013 A 
ENDBRANCH   4  13
BRANCH   5  19
ATOM     19  C8  <0> A   1     -28.313  -2.725  52.386  0.00  0.00    +0.606 C 
ATOM     20  O1  <0> A   1     -28.785  -2.926  53.490  0.00  0.00    -0.519 OA
ATOM     21  N2  <0> A   1     -28.929  -1.885  51.532  0.00  0.00    -0.713 N 
ATOM     22  H10 <0> A   1     -28.591  -1.775  50.630  0.00  0.00    +0.404 HD
BRANCH  21  23
ATOM     23  C9  <0> A   1     -30.110  -1.135  51.967  0.00  0.00    +0.348 C 
BRANCH  23  24
ATOM     24  C10 <0> A   1     -29.809   0.341  51.933  0.00  0.00    +0.105 A 
ATOM     25  C11 <0> A   1     -28.615   0.783  51.395  0.00  0.00    -0.016 A 
ATOM     26  C12 <0> A   1     -28.349   2.143  51.369  0.00  0.00    +0.063 A 
ATOM     27  C13 <0> A   1     -29.297   3.012  51.888  0.00  0.00    -0.027 A 
ATOM     28  C14 <0> A   1     -30.468   2.497  52.410  0.00  0.00    +0.260 A 
ATOM     29  N3  <0> A   1     -30.691   1.197  52.413  0.00  0.00    -0.466 NA
ENDBRANCH  23  24
ENDBRANCH  21  23
ENDBRANCH   5  19
BRANCH   1  31
ATOM     30  C1  <0> A   1     -24.736  -1.133  53.172  0.00  0.00    +0.046 C 
ATOM     31  C2  <0> A   1     -25.577  -1.368  51.916  0.00  0.00    +0.229 C 
ATOM     32  C3  <0> A   1     -24.809  -0.875  50.688  0.00  0.00    +0.042 C 
ENDBRANCH   1  31
BRANCH   2  33
ATOM     33  C27 <0> A   1     -23.497  -3.491  51.115  0.00  0.00    +0.117 C 
BRANCH  33  34
ATOM     34  C28 <0> A   1     -22.637  -3.941  52.296  0.00  0.00    -0.007 C 
BRANCH  34  35
ATOM     35  C29 <0> A   1     -21.475  -2.964  52.484  0.00  0.00    +0.212 C 
BRANCH  35  36
ATOM     36  O5  <0> A   1     -21.676  -1.819  51.651  0.00  0.00    -0.541 OA
ATOM     37  H35 <0> A   1     -21.296  -1.004  52.007  0.00  0.00    +0.362 HD
ENDBRANCH  35  36
BRANCH  35  38
ATOM     38  C30 <0> A   1     -21.411  -2.524  53.948  0.00  0.00    -0.051 C 
BRANCH  38  39
ATOM     39  C31 <0> A   1     -20.174  -3.137  54.610  0.00  0.00    +0.230 C 
BRANCH  39  40
ATOM     40  O4  <0> A   1     -20.546  -4.334  55.296  0.00  0.00    -0.528 OA
ATOM     41  H34 <0> A   1     -21.491  -4.403  55.483  0.00  0.00    +0.349 HD
ENDBRANCH  39  40
BRANCH  39  42
ATOM     42  C32 <0> A   1     -19.132  -3.465  53.539  0.00  0.00    -0.103 C 
BRANCH  42  43
ATOM     43  C33 <0> A   1     -18.359  -4.691  53.950  0.00  0.00    +0.490 C 
ATOM     44  O2  <0> A   1     -17.546  -4.624  54.857  0.00  0.00    -0.681 OA
ATOM     45  O3  <0> A   1     -18.545  -5.750  53.375  0.00  0.00    -0.713 OA
ENDBRANCH  42  43
ENDBRANCH  39  42
ENDBRANCH  38  39
ENDBRANCH  35  38
ENDBRANCH  34  35
ENDBRANCH  33  34
ENDBRANCH   2  33
TORSDOF 15
ENDMDL
MODEL 8
REMARK VINA RESULT:      -7.4      2.743      8.463
REMARK  Name = CHEMBL398240
REMARK  17 active torsions:
REMARK  status: ('A' for Active; 'I' for Inactive)
REMARK    1  A    between atoms: C1_1  and  C2_2
REMARK    2  A    between atoms: C2_2  and  C3_3
REMARK    3  A    between atoms: C2_2  and  N1_4
REMARK    4  A    between atoms: C4_5  and  C27_32
REMARK    5  A    between atoms: C5_6  and  C21_25
REMARK    6  A    between atoms: C6_7  and  C15_19
REMARK    7  A    between atoms: C7_8  and  C8_9
REMARK    8  A    between atoms: N2_11  and  C9_12
REMARK    9  A    between atoms: C9_12  and  C10_13
REMARK   10  A    between atoms: C27_32  and  C28_33
REMARK   11  A    between atoms: C28_33  and  C29_34
REMARK   12  A    between atoms: C29_34  and  C30_36
REMARK   13  A    between atoms: C29_34  and  O5_44
REMARK   14  A    between atoms: C30_36  and  C31_37
REMARK   15  A    between atoms: C31_37  and  C32_39
REMARK   16  A    between atoms: C31_37  and  O4_43
REMARK   17  A    between atoms: C32_39  and  C33_40
REMARK                            x       y       z     vdW  Elec       q    Type
REMARK                         _______ _______ _______ _____ _____    ______ ____
ROOT
ATOM      1  N1  <0> A   1     -14.712   6.525  45.556  0.00  0.00    -0.402 N 
ATOM      2  C4  <0> A   1     -15.296   6.828  46.740  0.00  0.00    +0.073 C 
ATOM      3  C5  <0> A   1     -14.946   8.096  47.097  0.00  0.00    -0.122 C 
ATOM      4  C6  <0> A   1     -14.099   8.606  46.080  0.00  0.00    -0.058 C 
ATOM      5  C7  <0> A   1     -13.965   7.600  45.131  0.00  0.00    -0.030 C 
ENDROOT
BRANCH   3   6
ATOM      6  C21 <0> A   1     -15.372   8.811  48.325  0.00  0.00    -0.008 A 
ATOM      7  C22 <0> A   1     -14.778   8.512  49.550  0.00  0.00    +0.050 A 
ATOM      8  C23 <0> A   1     -15.178   9.179  50.689  0.00  0.00    -0.016 A 
ATOM      9  C24 <0> A   1     -16.169  10.145  50.618  0.00  0.00    +0.095 A 
ATOM     10  C25 <0> A   1     -16.763  10.445  49.403  0.00  0.00    -0.017 A 
ATOM     11  C26 <0> A   1     -16.364   9.787  48.257  0.00  0.00    +0.055 A 
ATOM     12  F1  <0> A   1     -16.557  10.795  51.737  0.00  0.00    -0.142 F 
ENDBRANCH   3   6
BRANCH   4  13
ATOM     13  C15 <0> A   1     -13.474   9.948  46.040  0.00  0.00    -0.012 A 
ATOM     14  C16 <0> A   1     -12.326  10.209  46.789  0.00  0.00    +0.024 A 
ATOM     15  C17 <0> A   1     -11.750  11.461  46.749  0.00  0.00    +0.001 A 
ATOM     16  C18 <0> A   1     -12.306  12.458  45.967  0.00  0.00    -0.003 A 
ATOM     17  C19 <0> A   1     -13.445  12.206  45.222  0.00  0.00    +0.003 A 
ATOM     18  C20 <0> A   1     -14.028  10.955  45.250  0.00  0.00    +0.013 A 
ENDBRANCH   4  13
BRANCH   5  19
ATOM     19  C8  <0> A   1     -13.175   7.672  43.900  0.00  0.00    +0.606 C 
ATOM     20  O1  <0> A   1     -11.959   7.705  43.960  0.00  0.00    -0.519 OA
ATOM     21  N2  <0> A   1     -13.792   7.702  42.704  0.00  0.00    -0.713 N 
ATOM     22  H10 <0> A   1     -14.760   7.742  42.658  0.00  0.00    +0.404 HD
BRANCH  21  23
ATOM     23  C9  <0> A   1     -13.002   7.673  41.470  0.00  0.00    +0.348 C 
BRANCH  23  24
ATOM     24  C10 <0> A   1     -13.075   9.019  40.795  0.00  0.00    +0.105 A 
ATOM     25  C11 <0> A   1     -13.579  10.104  41.487  0.00  0.00    -0.016 A 
ATOM     26  C12 <0> A   1     -13.641  11.336  40.857  0.00  0.00    +0.063 A 
ATOM     27  C13 <0> A   1     -13.192  11.433  39.548  0.00  0.00    -0.027 A 
ATOM     28  C14 <0> A   1     -12.701  10.305  38.921  0.00  0.00    +0.260 A 
ATOM     29  N3  <0> A   1     -12.651   9.148  39.553  0.00  0.00    -0.466 NA
ENDBRANCH  23  24
ENDBRANCH  21  23
ENDBRANCH   5  19
BRANCH   1  31
ATOM     30  C1  <0> A   1     -14.506   4.099  45.790  0.00  0.00    +0.046 C 
ATOM     31  C2  <0> A   1     -14.848   5.251  44.844  0.00  0.00    +0.229 C 
ATOM     32  C3  <0> A   1     -16.288   5.095  44.349  0.00  0.00    +0.042 C 
ENDBRANCH   1  31
BRANCH   2  33
ATOM     33  C27 <0> A   1     -16.190   5.911  47.535  0.00  0.00    +0.117 C 
BRANCH  33  34
ATOM     34  C28 <0> A   1     -17.637   6.397  47.436  0.00  0.00    -0.007 C 
BRANCH  34  35
ATOM     35  C29 <0> A   1     -18.423   5.908  48.653  0.00  0.00    +0.212 C 
BRANCH  35  36
ATOM     36  O5  <0> A   1     -17.914   4.640  49.072  0.00  0.00    -0.541 OA
ATOM     37  H35 <0> A   1     -17.091   4.695  49.576  0.00  0.00    +0.362 HD
ENDBRANCH  35  36
BRANCH  35  38
ATOM     38  C30 <0> A   1     -18.277   6.918  49.793  0.00  0.00    -0.051 C 
BRANCH  38  39
ATOM     39  C31 <0> A   1     -19.444   7.909  49.750  0.00  0.00    +0.230 C 
BRANCH  39  40
ATOM     40  O4  <0> A   1     -20.537   7.326  49.037  0.00  0.00    -0.528 OA
ATOM     41  H34 <0> A   1     -20.276   6.853  48.235  0.00  0.00    +0.349 HD
ENDBRANCH  39  40
BRANCH  39  42
ATOM     42  C32 <0> A   1     -19.885   8.240  51.177  0.00  0.00    -0.103 C 
BRANCH  42  43
ATOM     43  C33 <0> A   1     -21.387   8.172  51.266  0.00  0.00    +0.490 C 
ATOM     44  O2  <0> A   1     -21.928   7.166  51.694  0.00  0.00    -0.681 OA
ATOM     45  O3  <0> A   1     -22.062   9.123  50.910  0.00  0.00    -0.713 OA
ENDBRANCH  42  43
ENDBRANCH  39  42
ENDBRANCH  38  39
ENDBRANCH  35  38
ENDBRANCH  34  35
ENDBRANCH  33  34
ENDBRANCH   2  33
TORSDOF 15
ENDMDL
MODEL 9
REMARK VINA RESULT:      -7.4     14.731     19.170
REMARK  Name = CHEMBL398240
REMARK  17 active torsions:
REMARK  status: ('A' for Active; 'I' for Inactive)
REMARK    1  A    between atoms: C1_1  and  C2_2
REMARK    2  A    between atoms: C2_2  and  C3_3
REMARK    3  A    between atoms: C2_2  and  N1_4
REMARK    4  A    between atoms: C4_5  and  C27_32
REMARK    5  A    between atoms: C5_6  and  C21_25
REMARK    6  A    between atoms: C6_7  and  C15_19
REMARK    7  A    between atoms: C7_8  and  C8_9
REMARK    8  A    between atoms: N2_11  and  C9_12
REMARK    9  A    between atoms: C9_12  and  C10_13
REMARK   10  A    between atoms: C27_32  and  C28_33
REMARK   11  A    between atoms: C28_33  and  C29_34
REMARK   12  A    between atoms: C29_34  and  C30_36
REMARK   13  A    between atoms: C29_34  and  O5_44
REMARK   14  A    between atoms: C30_36  and  C31_37
REMARK   15  A    between atoms: C31_37  and  C32_39
REMARK   16  A    between atoms: C31_37  and  O4_43
REMARK   17  A    between atoms: C32_39  and  C33_40
REMARK                            x       y       z     vdW  Elec       q    Type
REMARK                         _______ _______ _______ _____ _____    ______ ____
ROOT
ATOM      1  N1  <0> A   1     -24.461  -3.581  51.760  0.00  0.00    -0.402 N 
ATOM      2  C4  <0> A   1     -25.164  -4.739  51.732  0.00  0.00    +0.073 C 
ATOM      3  C5  <0> A   1     -26.479  -4.467  51.968  0.00  0.00    -0.122 C 
ATOM      4  C6  <0> A   1     -26.598  -3.066  52.152  0.00  0.00    -0.058 C 
ATOM      5  C7  <0> A   1     -25.320  -2.537  52.022  0.00  0.00    -0.030 C 
ENDROOT
BRANCH   3   6
ATOM      6  C21 <0> A   1     -27.583  -5.456  52.022  0.00  0.00    -0.008 A 
ATOM      7  C22 <0> A   1     -27.918  -6.064  53.231  0.00  0.00    +0.050 A 
ATOM      8  C23 <0> A   1     -28.945  -6.984  53.276  0.00  0.00    -0.016 A 
ATOM      9  C24 <0> A   1     -29.643  -7.304  52.123  0.00  0.00    +0.095 A 
ATOM     10  C25 <0> A   1     -29.314  -6.703  50.920  0.00  0.00    -0.017 A 
ATOM     11  C26 <0> A   1     -28.292  -5.777  50.866  0.00  0.00    +0.055 A 
ATOM     12  F1  <0> A   1     -30.648  -8.206  52.173  0.00  0.00    -0.142 F 
ENDBRANCH   3   6
BRANCH   4  13
ATOM     13  C15 <0> A   1     -27.842  -2.313  52.434  0.00  0.00    -0.012 A 
ATOM     14  C16 <0> A   1     -28.759  -2.069  51.412  0.00  0.00    +0.024 A 
ATOM     15  C17 <0> A   1     -29.915  -1.366  51.681  0.00  0.00    +0.001 A 
ATOM     16  C18 <0> A   1     -30.167  -0.905  52.961  0.00  0.00    -0.003 A 
ATOM     17  C19 <0> A   1     -29.261  -1.144  53.978  0.00  0.00    +0.003 A 
ATOM     18  C20 <0> A   1     -28.103  -1.851  53.724  0.00  0.00    +0.013 A 
ENDBRANCH   4  13
BRANCH   5  19
ATOM     19  C8  <0> A   1     -24.952  -1.125  52.141  0.00  0.00    +0.606 C 
ATOM     20  O1  <0> A   1     -24.402  -0.723  53.150  0.00  0.00    -0.519 OA
ATOM     21  N2  <0> A   1     -25.222  -0.271  51.134  0.00  0.00    -0.713 N 
ATOM     22  H10 <0> A   1     -25.718  -0.576  50.359  0.00  0.00    +0.404 HD
BRANCH  21  23
ATOM     23  C9  <0> A   1     -24.766   1.119  51.211  0.00  0.00    +0.348 C 
BRANCH  23  24
ATOM     24  C10 <0> A   1     -25.923   2.007  51.590  0.00  0.00    +0.105 A 
ATOM     25  C11 <0> A   1     -27.202   1.671  51.188  0.00  0.00    -0.016 A 
ATOM     26  C12 <0> A   1     -28.259   2.495  51.542  0.00  0.00    +0.063 A 
ATOM     27  C13 <0> A   1     -27.989   3.632  52.290  0.00  0.00    -0.027 A 
ATOM     28  C14 <0> A   1     -26.685   3.903  52.655  0.00  0.00    +0.260 A 
ATOM     29  N3  <0> A   1     -25.704   3.093  52.305  0.00  0.00    -0.466 NA
ENDBRANCH  23  24
ENDBRANCH  21  23
ENDBRANCH   5  19
BRANCH   1  31
ATOM     30  C1  <0> A   1     -22.744  -2.415  50.467  0.00  0.00    +0.046 C 
ATOM     31  C2  <0> A   1     -23.016  -3.460  51.551  0.00  0.00    +0.229 C 
ATOM     32  C3  <0> A   1     -22.346  -3.027  52.857  0.00  0.00    +0.042 C 
ENDBRANCH   1  31
BRANCH   2  33
ATOM     33  C27 <0> A   1     -24.586  -6.107  51.479  0.00  0.00    +0.117 C 
BRANCH  33  34
ATOM     34  C28 <0> A   1     -24.738  -6.460  49.999  0.00  0.00    -0.007 C 
BRANCH  34  35
ATOM     35  C29 <0> A   1     -25.299  -7.877  49.867  0.00  0.00    +0.212 C 
BRANCH  35  36
ATOM     36  O5  <0> A   1     -26.288  -7.904  48.836  0.00  0.00    -0.541 OA
ATOM     37  H35 <0> A   1     -26.566  -8.795  48.583  0.00  0.00    +0.362 HD
ENDBRANCH  35  36
BRANCH  35  38
ATOM     38  C30 <0> A   1     -24.167  -8.843  49.514  0.00  0.00    -0.051 C 
BRANCH  38  39
ATOM     39  C31 <0> A   1     -24.431 -10.201  50.170  0.00  0.00    +0.230 C 
BRANCH  39  40
ATOM     40  O4  <0> A   1     -25.836 -10.460  50.178  0.00  0.00    -0.528 OA
ATOM     41  H34 <0> A   1     -26.365  -9.753  50.569  0.00  0.00    +0.349 HD
ENDBRANCH  39  40
BRANCH  39  42
ATOM     42  C32 <0> A   1     -23.714 -11.297  49.379  0.00  0.00    -0.103 C 
BRANCH  42  43
ATOM     43  C33 <0> A   1     -24.727 -12.283  48.857  0.00  0.00    +0.490 C 
ATOM     44  O2  <0> A   1     -24.987 -13.288  49.497  0.00  0.00    -0.681 OA
ATOM     45  O3  <0> A   1     -25.286 -12.075  47.793  0.00  0.00    -0.713 OA
ENDBRANCH  42  43
ENDBRANCH  39  42
ENDBRANCH  38  39
ENDBRANCH  35  38
ENDBRANCH  34  35
ENDBRANCH  33  34
ENDBRANCH   2  33
TORSDOF 15
ENDMDL
MODEL 10
REMARK VINA RESULT:      -7.4     15.339     18.827
REMARK  Name = CHEMBL398240
REMARK  17 active torsions:
REMARK  status: ('A' for Active; 'I' for Inactive)
REMARK    1  A    between atoms: C1_1  and  C2_2
REMARK    2  A    between atoms: C2_2  and  C3_3
REMARK    3  A    between atoms: C2_2  and  N1_4
REMARK    4  A    between atoms: C4_5  and  C27_32
REMARK    5  A    between atoms: C5_6  and  C21_25
REMARK    6  A    between atoms: C6_7  and  C15_19
REMARK    7  A    between atoms: C7_8  and  C8_9
REMARK    8  A    between atoms: N2_11  and  C9_12
REMARK    9  A    between atoms: C9_12  and  C10_13
REMARK   10  A    between atoms: C27_32  and  C28_33
REMARK   11  A    between atoms: C28_33  and  C29_34
REMARK   12  A    between atoms: C29_34  and  C30_36
REMARK   13  A    between atoms: C29_34  and  O5_44
REMARK   14  A    between atoms: C30_36  and  C31_37
REMARK   15  A    between atoms: C31_37  and  C32_39
REMARK   16  A    between atoms: C31_37  and  O4_43
REMARK   17  A    between atoms: C32_39  and  C33_40
REMARK                            x       y       z     vdW  Elec       q    Type
REMARK                         _______ _______ _______ _____ _____    ______ ____
ROOT
ATOM      1  N1  <0> A   1     -25.527  -2.698  52.133  0.00  0.00    -0.402 N 
ATOM      2  C4  <0> A   1     -26.758  -3.252  52.248  0.00  0.00    +0.073 C 
ATOM      3  C5  <0> A   1     -26.686  -4.570  51.907  0.00  0.00    -0.122 C 
ATOM      4  C6  <0> A   1     -25.339  -4.848  51.562  0.00  0.00    -0.058 C 
ATOM      5  C7  <0> A   1     -24.637  -3.658  51.707  0.00  0.00    -0.030 C 
ENDROOT
BRANCH   3   6
ATOM      6  C21 <0> A   1     -27.812  -5.536  51.898  0.00  0.00    -0.008 A 
ATOM      7  C22 <0> A   1     -28.558  -5.728  50.736  0.00  0.00    +0.050 A 
ATOM      8  C23 <0> A   1     -29.605  -6.627  50.733  0.00  0.00    -0.016 A 
ATOM      9  C24 <0> A   1     -29.915  -7.338  51.881  0.00  0.00    +0.095 A 
ATOM     10  C25 <0> A   1     -29.176  -7.150  53.037  0.00  0.00    -0.017 A 
ATOM     11  C26 <0> A   1     -28.123  -6.257  53.048  0.00  0.00    +0.055 A 
ATOM     12  F1  <0> A   1     -30.941  -8.217  51.872  0.00  0.00    -0.142 F 
ENDBRANCH   3   6
BRANCH   4  13
ATOM     13  C15 <0> A   1     -24.789  -6.152  51.126  0.00  0.00    -0.012 A 
ATOM     14  C16 <0> A   1     -24.809  -6.504  49.776  0.00  0.00    +0.024 A 
ATOM     15  C17 <0> A   1     -24.295  -7.721  49.377  0.00  0.00    +0.001 A 
ATOM     16  C18 <0> A   1     -23.761  -8.591  50.311  0.00  0.00    -0.003 A 
ATOM     17  C19 <0> A   1     -23.739  -8.247  51.651  0.00  0.00    +0.003 A 
ATOM     18  C20 <0> A   1     -24.244  -7.030  52.062  0.00  0.00    +0.013 A 
ENDBRANCH   4  13
BRANCH   5  19
ATOM     19  C8  <0> A   1     -23.208  -3.461  51.454  0.00  0.00    +0.606 C 
ATOM     20  O1  <0> A   1     -22.825  -3.140  50.344  0.00  0.00    -0.519 OA
ATOM     21  N2  <0> A   1     -22.317  -3.634  52.450  0.00  0.00    -0.713 N 
ATOM     22  H10 <0> A   1     -22.614  -3.954  53.317  0.00  0.00    +0.404 HD
BRANCH  21  23
ATOM     23  C9  <0> A   1     -20.899  -3.342  52.224  0.00  0.00    +0.348 C 
BRANCH  23  24
ATOM     24  C10 <0> A   1     -20.110  -3.698  53.457  0.00  0.00    +0.105 A 
ATOM     25  C11 <0> A   1     -20.508  -3.211  54.688  0.00  0.00    -0.016 A 
ATOM     26  C12 <0> A   1     -19.774  -3.546  55.816  0.00  0.00    +0.063 A 
ATOM     27  C13 <0> A   1     -18.663  -4.362  55.663  0.00  0.00    -0.027 A 
ATOM     28  C14 <0> A   1     -18.326  -4.811  54.401  0.00  0.00    +0.260 A 
ATOM     29  N3  <0> A   1     -19.051  -4.477  53.350  0.00  0.00    -0.466 NA
ENDBRANCH  23  24
ENDBRANCH  21  23
ENDBRANCH   5  19
BRANCH   1  31
ATOM     30  C1  <0> A   1     -24.222  -1.229  53.588  0.00  0.00    +0.046 C 
ATOM     31  C2  <0> A   1     -25.197  -1.298  52.411  0.00  0.00    +0.229 C 
ATOM     32  C3  <0> A   1     -24.548  -0.671  51.175  0.00  0.00    +0.042 C 
ENDBRANCH   1  31
BRANCH   2  33
ATOM     33  C27 <0> A   1     -28.005  -2.528  52.683  0.00  0.00    +0.117 C 
BRANCH  33  34
ATOM     34  C28 <0> A   1     -28.718  -1.956  51.457  0.00  0.00    -0.007 C 
BRANCH  34  35
ATOM     35  C29 <0> A   1     -29.045  -0.482  51.697  0.00  0.00    +0.212 C 
BRANCH  35  36
ATOM     36  O5  <0> A   1     -28.981  -0.201  53.097  0.00  0.00    -0.541 OA
ATOM     37  H35 <0> A   1     -29.486  -0.819  53.644  0.00  0.00    +0.362 HD
ENDBRANCH  35  36
BRANCH  35  38
ATOM     38  C30 <0> A   1     -28.031   0.392  50.956  0.00  0.00    -0.051 C 
BRANCH  38  39
ATOM     39  C31 <0> A   1     -28.622   1.788  50.740  0.00  0.00    +0.230 C 
BRANCH  39  40
ATOM     40  O4  <0> A   1     -29.943   1.835  51.283  0.00  0.00    -0.528 OA
ATOM     41  H34 <0> A   1     -30.591   1.318  50.787  0.00  0.00    +0.349 HD
ENDBRANCH  39  40
BRANCH  39  42
ATOM     42  C32 <0> A   1     -27.745   2.827  51.443  0.00  0.00    -0.103 C 
BRANCH  42  43
ATOM     43  C33 <0> A   1     -28.405   3.254  52.728  0.00  0.00    +0.490 C 
ATOM     44  O2  <0> A   1     -28.218   2.617  53.751  0.00  0.00    -0.681 OA
ATOM     45  O3  <0> A   1     -29.127   4.236  52.745  0.00  0.00    -0.713 OA
ENDBRANCH  42  43
ENDBRANCH  39  42
ENDBRANCH  38  39
ENDBRANCH  35  38
ENDBRANCH  34  35
ENDBRANCH  33  34
ENDBRANCH   2  33
TORSDOF 15
ENDMDL
