REMARK VINA RESULT:      -7.2     18.629     22.953
REMARK  Name = CHEMBL101497
REMARK  13 active torsions:
REMARK  status: ('A' for Active; 'I' for Inactive)
REMARK    1  A    between atoms: C1_1  and  C2_2
REMARK    2  A    between atoms: C2_2  and  C3_3
REMARK    3  A    between atoms: C2_2  and  C4_4
REMARK    4  A    between atoms: C11_12  and  C19_26
REMARK    5  A    between atoms: C12_13  and  O1_14
REMARK    6  A    between atoms: O1_14  and  C13_15
REMARK    7  A    between atoms: C13_15  and  C14_16
REMARK    8  A    between atoms: C14_16  and  C15_17
REMARK    9  A    between atoms: C14_16  and  O5_25
REMARK   10  A    between atoms: C15_17  and  C16_18
REMARK   11  A    between atoms: C16_18  and  C17_20
REMARK   12  A    between atoms: C16_18  and  O4_24
REMARK   13  A    between atoms: C17_20  and  C18_21
REMARK                            x       y       z     vdW  Elec       q    Type
REMARK                         _______ _______ _______ _____ _____    ______ ____
ROOT
ATOM      1  C4  <0> A   1     -26.779  -5.257  51.835  0.00  0.00    -0.033 A 
ATOM      2  C5  <0> A   1     -25.881  -4.181  51.694  0.00  0.00    -0.085 A 
ATOM      3  C6  <0> A   1     -26.203  -2.898  52.167  0.00  0.00    +0.040 A 
ATOM      4  C7  <0> A   1     -25.311  -1.881  52.015  0.00  0.00    +0.009 A 
ATOM      5  C8  <0> A   1     -24.082  -2.094  51.394  0.00  0.00    +0.028 A 
ATOM      6  C9  <0> A   1     -23.737  -3.323  50.923  0.00  0.00    +0.045 A 
ATOM      7  C10 <0> A   1     -24.631  -4.400  51.062  0.00  0.00    +0.127 A 
ATOM      8  N1  <0> A   1     -24.315  -5.617  50.608  0.00  0.00    -0.458 NA
ATOM      9  C11 <0> A   1     -25.148  -6.632  50.733  0.00  0.00    +0.195 A 
ATOM     10  C12 <0> A   1     -26.402  -6.481  51.356  0.00  0.00    +0.058 A 
ENDROOT
BRANCH   9  11
ATOM     11  C19 <0> A   1     -24.752  -7.961  50.213  0.00  0.00    -0.070 A 
ATOM     12  C20 <0> A   1     -24.873  -8.245  48.852  0.00  0.00    +0.100 A 
ATOM     13  C21 <0> A   1     -24.504  -9.485  48.374  0.00  0.00    -0.015 A 
ATOM     14  C22 <0> A   1     -24.013 -10.447  49.241  0.00  0.00    +0.115 A 
ATOM     15  C23 <0> A   1     -23.890 -10.171  50.593  0.00  0.00    -0.026 A 
ATOM     16  C24 <0> A   1     -24.251  -8.932  51.081  0.00  0.00    +0.087 A 
ATOM     17  F1  <0> A   1     -23.652 -11.660  48.767  0.00  0.00    -0.136 F 
ENDBRANCH   9  11
BRANCH   1  19
ATOM     18  C1  <0> A   1     -29.217  -5.055  51.436  0.00  0.00    +0.036 C 
ATOM     19  C2  <0> A   1     -28.118  -5.065  52.499  0.00  0.00    +0.039 C 
ATOM     20  C3  <0> A   1     -28.369  -6.210  53.482  0.00  0.00    +0.031 C 
ENDBRANCH   1  19
BRANCH  10  21
ATOM     21  O1  <0> A   1     -27.236  -7.547  51.477  0.00  0.00    -0.310 OA
BRANCH  21  22
ATOM     22  C13 <0> A   1     -27.982  -7.921  50.318  0.00  0.00    +0.149 C 
BRANCH  22  23
ATOM     23  C14 <0> A   1     -28.583  -9.313  50.526  0.00  0.00    +0.228 C 
BRANCH  23  24
ATOM     24  O5  <0> A   1     -27.532 -10.264  50.705  0.00  0.00    -0.530 OA
ATOM     25  H21 <0> A   1     -26.658  -9.866  50.827  0.00  0.00    +0.363 HD
ENDBRANCH  23  24
BRANCH  23  26
ATOM     26  C15 <0> A   1     -29.478  -9.302  51.768  0.00  0.00    -0.043 C 
BRANCH  26  27
ATOM     27  C16 <0> A   1     -30.456 -10.475  51.702  0.00  0.00    +0.235 C 
BRANCH  27  28
ATOM     28  O4  <0> A   1     -30.278 -11.176  50.470  0.00  0.00    -0.527 OA
ATOM     29  H20 <0> A   1     -29.368 -11.456  50.305  0.00  0.00    +0.350 HD
ENDBRANCH  27  28
BRANCH  27  30
ATOM     30  C17 <0> A   1     -30.193 -11.426  52.872  0.00  0.00    -0.101 C 
BRANCH  30  31
ATOM     31  C18 <0> A   1     -29.583 -12.703  52.354  0.00  0.00    +0.491 C 
ATOM     32  O2  <0> A   1     -30.283 -13.685  52.178  0.00  0.00    -0.680 OA
ATOM     33  O3  <0> A   1     -28.389 -12.753  52.110  0.00  0.00    -0.712 OA
ENDBRANCH  30  31
ENDBRANCH  27  30
ENDBRANCH  26  27
ENDBRANCH  23  26
ENDBRANCH  22  23
ENDBRANCH  21  22
ENDBRANCH  10  21
TORSDOF 11
