MODEL 1
REMARK VINA RESULT:      -7.5      0.000      0.000
REMARK  Name = CHEMBL140527
REMARK  12 active torsions:
REMARK  status: ('A' for Active; 'I' for Inactive)
REMARK    1  A    between atoms: C1_1  and  C2_2
REMARK    2  A    between atoms: C4_4  and  C21_27
REMARK    3  A    between atoms: C5_5  and  O1_15
REMARK    4  A    between atoms: C6_6  and  C8_8
REMARK    5  A    between atoms: O1_15  and  C15_16
REMARK    6  A    between atoms: C15_16  and  C16_17
REMARK    7  A    between atoms: C16_17  and  C17_18
REMARK    8  A    between atoms: C16_17  and  O5_26
REMARK    9  A    between atoms: C17_18  and  C18_19
REMARK   10  A    between atoms: C18_19  and  C19_21
REMARK   11  A    between atoms: C18_19  and  O4_25
REMARK   12  A    between atoms: C19_21  and  C20_22
REMARK                            x       y       z     vdW  Elec       q    Type
REMARK                         _______ _______ _______ _____ _____    ______ ____
ROOT
ATOM      1  C1  <0> A   1     -17.641   7.461  47.759  0.00  0.00    +0.087 C 
ATOM      2  C2  <0> A   1     -16.534   7.189  46.773  0.00  0.00    -0.089 A 
ATOM      3  C3  <0> A   1     -16.553   6.032  46.016  0.00  0.00    +0.006 A 
ATOM      4  C4  <0> A   1     -15.539   5.781  45.112  0.00  0.00    -0.095 A 
ATOM      5  C5  <0> A   1     -14.503   6.690  44.963  0.00  0.00    +0.092 A 
ATOM      6  C6  <0> A   1     -14.486   7.850  45.723  0.00  0.00    -0.086 A 
ATOM      7  C7  <0> A   1     -15.505   8.100  46.622  0.00  0.00    +0.012 A 
ATOM      8  C21 <0> A   1     -15.561   4.519  44.288  0.00  0.00    +0.096 C 
ENDROOT
BRANCH   6   9
ATOM      9  C8  <0> A   1     -13.361   8.840  45.564  0.00  0.00    +0.039 C 
ATOM     10  C9  <0> A   1     -12.790   9.175  46.957  0.00  0.00    +0.026 C 
ATOM     11  C10 <0> A   1     -11.401   9.725  46.785  0.00  0.00    +0.003 C 
ATOM     12  C11 <0> A   1     -11.378  11.264  46.721  0.00  0.00    -0.002 C 
ATOM     13  C12 <0> A   1     -12.526  11.843  45.871  0.00  0.00    -0.002 C 
ATOM     14  C13 <0> A   1     -12.759  11.060  44.608  0.00  0.00    +0.013 C 
ATOM     15  C14 <0> A   1     -13.865  10.018  44.873  0.00  0.00    +0.008 C 
ENDBRANCH   6   9
BRANCH   5  16
ATOM     16  O1  <0> A   1     -13.505   6.445  44.074  0.00  0.00    -0.318 OA
BRANCH  16  17
ATOM     17  C15 <0> A   1     -13.647   7.005  42.768  0.00  0.00    +0.146 C 
BRANCH  17  18
ATOM     18  C16 <0> A   1     -12.270   7.393  42.227  0.00  0.00    +0.224 C 
BRANCH  18  19
ATOM     19  O5  <0> A   1     -11.454   6.225  42.114  0.00  0.00    -0.531 OA
ATOM     20  H28 <0> A   1     -11.157   6.039  41.213  0.00  0.00    +0.363 HD
ENDBRANCH  18  19
BRANCH  18  21
ATOM     21  C17 <0> A   1     -12.427   8.040  40.849  0.00  0.00    -0.043 C 
BRANCH  21  22
ATOM     22  C18 <0> A   1     -12.948   9.470  41.013  0.00  0.00    +0.234 C 
BRANCH  22  23
ATOM     23  O4  <0> A   1     -11.845  10.376  41.072  0.00  0.00    -0.527 OA
ATOM     24  H27 <0> A   1     -10.989   9.945  41.199  0.00  0.00    +0.350 HD
ENDBRANCH  22  23
BRANCH  22  25
ATOM     25  C19 <0> A   1     -13.838   9.828  39.821  0.00  0.00    -0.101 C 
BRANCH  25  26
ATOM     26  C20 <0> A   1     -13.933  11.327  39.697  0.00  0.00    +0.491 C 
ATOM     27  O2  <0> A   1     -13.347  11.901  38.795  0.00  0.00    -0.680 OA
ATOM     28  O3  <0> A   1     -14.594  11.965  40.499  0.00  0.00    -0.713 OA
ENDBRANCH  25  26
ENDBRANCH  22  25
ENDBRANCH  21  22
ENDBRANCH  18  21
ENDBRANCH  17  18
ENDBRANCH  16  17
ENDBRANCH   5  16
TORSDOF 10
ENDMDL
MODEL 2
REMARK VINA RESULT:      -7.2      1.769      4.149
REMARK  Name = CHEMBL140527
REMARK  12 active torsions:
REMARK  status: ('A' for Active; 'I' for Inactive)
REMARK    1  A    between atoms: C1_1  and  C2_2
REMARK    2  A    between atoms: C4_4  and  C21_27
REMARK    3  A    between atoms: C5_5  and  O1_15
REMARK    4  A    between atoms: C6_6  and  C8_8
REMARK    5  A    between atoms: O1_15  and  C15_16
REMARK    6  A    between atoms: C15_16  and  C16_17
REMARK    7  A    between atoms: C16_17  and  C17_18
REMARK    8  A    between atoms: C16_17  and  O5_26
REMARK    9  A    between atoms: C17_18  and  C18_19
REMARK   10  A    between atoms: C18_19  and  C19_21
REMARK   11  A    between atoms: C18_19  and  O4_25
REMARK   12  A    between atoms: C19_21  and  C20_22
REMARK                            x       y       z     vdW  Elec       q    Type
REMARK                         _______ _______ _______ _____ _____    ______ ____
ROOT
ATOM      1  C1  <0> A   1     -15.075  10.862  48.162  0.00  0.00    +0.087 C 
ATOM      2  C2  <0> A   1     -14.600  10.351  46.827  0.00  0.00    -0.089 A 
ATOM      3  C3  <0> A   1     -14.235  11.244  45.836  0.00  0.00    +0.006 A 
ATOM      4  C4  <0> A   1     -13.800  10.778  44.610  0.00  0.00    -0.095 A 
ATOM      5  C5  <0> A   1     -13.728   9.413  44.375  0.00  0.00    +0.092 A 
ATOM      6  C6  <0> A   1     -14.093   8.519  45.370  0.00  0.00    -0.086 A 
ATOM      7  C7  <0> A   1     -14.523   8.990  46.595  0.00  0.00    +0.012 A 
ATOM      8  C21 <0> A   1     -13.404  11.753  43.531  0.00  0.00    +0.096 C 
ENDROOT
BRANCH   6   9
ATOM      9  C8  <0> A   1     -14.016   7.036  45.117  0.00  0.00    +0.039 C 
ATOM     10  C9  <0> A   1     -15.210   6.616  44.235  0.00  0.00    +0.026 C 
ATOM     11  C10 <0> A   1     -14.879   5.308  43.572  0.00  0.00    +0.003 C 
ATOM     12  C11 <0> A   1     -15.405   4.095  44.363  0.00  0.00    -0.002 C 
ATOM     13  C12 <0> A   1     -15.200   4.239  45.883  0.00  0.00    -0.002 C 
ATOM     14  C13 <0> A   1     -13.854   4.813  46.231  0.00  0.00    +0.013 C 
ATOM     15  C14 <0> A   1     -13.999   6.340  46.396  0.00  0.00    +0.008 C 
ENDBRANCH   6   9
BRANCH   5  16
ATOM     16  O1  <0> A   1     -13.300   8.953  43.170  0.00  0.00    -0.318 OA
BRANCH  16  17
ATOM     17  C15 <0> A   1     -11.959   8.465  43.101  0.00  0.00    +0.146 C 
BRANCH  17  18
ATOM     18  C16 <0> A   1     -11.775   7.658  41.814  0.00  0.00    +0.224 C 
BRANCH  18  19
ATOM     19  O5  <0> A   1     -11.673   6.269  42.132  0.00  0.00    -0.531 OA
ATOM     20  H28 <0> A   1     -12.153   5.690  41.524  0.00  0.00    +0.363 HD
ENDBRANCH  18  19
BRANCH  18  21
ATOM     21  C17 <0> A   1     -12.979   7.883  40.895  0.00  0.00    -0.043 C 
BRANCH  21  22
ATOM     22  C18 <0> A   1     -12.693   9.060  39.959  0.00  0.00    +0.234 C 
BRANCH  22  23
ATOM     23  O4  <0> A   1     -12.114   8.574  38.746  0.00  0.00    -0.527 OA
ATOM     24  H27 <0> A   1     -11.973   7.618  38.733  0.00  0.00    +0.350 HD
ENDBRANCH  22  23
BRANCH  22  25
ATOM     25  C19 <0> A   1     -13.999   9.790  39.644  0.00  0.00    -0.101 C 
BRANCH  25  26
ATOM     26  C20 <0> A   1     -13.729  11.265  39.497  0.00  0.00    +0.491 C 
ATOM     27  O2  <0> A   1     -12.845  11.651  38.752  0.00  0.00    -0.680 OA
ATOM     28  O3  <0> A   1     -14.393  12.072  40.124  0.00  0.00    -0.713 OA
ENDBRANCH  25  26
ENDBRANCH  22  25
ENDBRANCH  21  22
ENDBRANCH  18  21
ENDBRANCH  17  18
ENDBRANCH  16  17
ENDBRANCH   5  16
TORSDOF 10
ENDMDL
MODEL 3
REMARK VINA RESULT:      -7.1      1.822      2.061
REMARK  Name = CHEMBL140527
REMARK  12 active torsions:
REMARK  status: ('A' for Active; 'I' for Inactive)
REMARK    1  A    between atoms: C1_1  and  C2_2
REMARK    2  A    between atoms: C4_4  and  C21_27
REMARK    3  A    between atoms: C5_5  and  O1_15
REMARK    4  A    between atoms: C6_6  and  C8_8
REMARK    5  A    between atoms: O1_15  and  C15_16
REMARK    6  A    between atoms: C15_16  and  C16_17
REMARK    7  A    between atoms: C16_17  and  C17_18
REMARK    8  A    between atoms: C16_17  and  O5_26
REMARK    9  A    between atoms: C17_18  and  C18_19
REMARK   10  A    between atoms: C18_19  and  C19_21
REMARK   11  A    between atoms: C18_19  and  O4_25
REMARK   12  A    between atoms: C19_21  and  C20_22
REMARK                            x       y       z     vdW  Elec       q    Type
REMARK                         _______ _______ _______ _____ _____    ______ ____
ROOT
ATOM      1  C1  <0> A   1     -12.821   5.753  49.150  0.00  0.00    +0.087 C 
ATOM      2  C2  <0> A   1     -13.074   6.207  47.735  0.00  0.00    -0.089 A 
ATOM      3  C3  <0> A   1     -13.522   5.302  46.790  0.00  0.00    +0.006 A 
ATOM      4  C4  <0> A   1     -13.755   5.716  45.493  0.00  0.00    -0.095 A 
ATOM      5  C5  <0> A   1     -13.539   7.040  45.139  0.00  0.00    +0.092 A 
ATOM      6  C6  <0> A   1     -13.091   7.945  46.089  0.00  0.00    -0.086 A 
ATOM      7  C7  <0> A   1     -12.865   7.528  47.386  0.00  0.00    +0.012 A 
ATOM      8  C21 <0> A   1     -14.242   4.729  44.463  0.00  0.00    +0.096 C 
ENDROOT
BRANCH   6   9
ATOM      9  C8  <0> A   1     -12.856   9.384  45.708  0.00  0.00    +0.039 C 
ATOM     10  C9  <0> A   1     -11.823   9.996  46.676  0.00  0.00    +0.026 C 
ATOM     11  C10 <0> A   1     -11.216  11.207  46.024  0.00  0.00    +0.003 C 
ATOM     12  C11 <0> A   1     -11.933  12.512  46.419  0.00  0.00    -0.002 C 
ATOM     13  C12 <0> A   1     -13.466  12.365  46.450  0.00  0.00    -0.002 C 
ATOM     14  C13 <0> A   1     -13.991  11.563  45.291  0.00  0.00    +0.013 C 
ATOM     15  C14 <0> A   1     -14.129  10.092  45.734  0.00  0.00    +0.008 C 
ENDBRANCH   6   9
BRANCH   5  16
ATOM     16  O1  <0> A   1     -13.768   7.449  43.863  0.00  0.00    -0.318 OA
BRANCH  16  17
ATOM     17  C15 <0> A   1     -12.783   7.108  42.886  0.00  0.00    +0.146 C 
BRANCH  17  18
ATOM     18  C16 <0> A   1     -12.405   8.355  42.086  0.00  0.00    +0.224 C 
BRANCH  18  19
ATOM     19  O5  <0> A   1     -12.142   7.991  40.729  0.00  0.00    -0.531 OA
ATOM     20  H28 <0> A   1     -11.293   7.546  40.599  0.00  0.00    +0.363 HD
ENDBRANCH  18  19
BRANCH  18  21
ATOM     21  C17 <0> A   1     -13.561   9.358  42.129  0.00  0.00    -0.043 C 
BRANCH  21  22
ATOM     22  C18 <0> A   1     -13.066  10.727  41.655  0.00  0.00    +0.234 C 
BRANCH  22  23
ATOM     23  O4  <0> A   1     -11.666  10.657  41.377  0.00  0.00    -0.527 OA
ATOM     24  H27 <0> A   1     -11.129  11.258  41.911  0.00  0.00    +0.350 HD
ENDBRANCH  22  23
BRANCH  22  25
ATOM     25  C19 <0> A   1     -13.818  11.129  40.385  0.00  0.00    -0.101 C 
BRANCH  25  26
ATOM     26  C20 <0> A   1     -12.871  11.110  39.213  0.00  0.00    +0.491 C 
ATOM     27  O2  <0> A   1     -12.564  10.050  38.695  0.00  0.00    -0.680 OA
ATOM     28  O3  <0> A   1     -12.413  12.155  38.782  0.00  0.00    -0.713 OA
ENDBRANCH  25  26
ENDBRANCH  22  25
ENDBRANCH  21  22
ENDBRANCH  18  21
ENDBRANCH  17  18
ENDBRANCH  16  17
ENDBRANCH   5  16
TORSDOF 10
ENDMDL
MODEL 4
REMARK VINA RESULT:      -7.1      2.099      4.583
REMARK  Name = CHEMBL140527
REMARK  12 active torsions:
REMARK  status: ('A' for Active; 'I' for Inactive)
REMARK    1  A    between atoms: C1_1  and  C2_2
REMARK    2  A    between atoms: C4_4  and  C21_27
REMARK    3  A    between atoms: C5_5  and  O1_15
REMARK    4  A    between atoms: C6_6  and  C8_8
REMARK    5  A    between atoms: O1_15  and  C15_16
REMARK    6  A    between atoms: C15_16  and  C16_17
REMARK    7  A    between atoms: C16_17  and  C17_18
REMARK    8  A    between atoms: C16_17  and  O5_26
REMARK    9  A    between atoms: C17_18  and  C18_19
REMARK   10  A    between atoms: C18_19  and  C19_21
REMARK   11  A    between atoms: C18_19  and  O4_25
REMARK   12  A    between atoms: C19_21  and  C20_22
REMARK                            x       y       z     vdW  Elec       q    Type
REMARK                         _______ _______ _______ _____ _____    ______ ____
ROOT
ATOM      1  C1  <0> A   1     -17.827   8.629  50.448  0.00  0.00    +0.087 C 
ATOM      2  C2  <0> A   1     -17.034   9.007  49.224  0.00  0.00    -0.089 A 
ATOM      3  C3  <0> A   1     -16.704  10.331  48.997  0.00  0.00    +0.006 A 
ATOM      4  C4  <0> A   1     -15.977  10.680  47.876  0.00  0.00    -0.095 A 
ATOM      5  C5  <0> A   1     -15.578   9.702  46.977  0.00  0.00    +0.092 A 
ATOM      6  C6  <0> A   1     -15.909   8.375  47.207  0.00  0.00    -0.086 A 
ATOM      7  C7  <0> A   1     -16.632   8.030  48.332  0.00  0.00    +0.012 A 
ATOM      8  C21 <0> A   1     -15.619  12.124  47.630  0.00  0.00    +0.096 C 
ENDROOT
BRANCH   6   9
ATOM      9  C8  <0> A   1     -15.477   7.310  46.232  0.00  0.00    +0.039 C 
ATOM     10  C9  <0> A   1     -16.664   6.361  45.970  0.00  0.00    +0.026 C 
ATOM     11  C10 <0> A   1     -16.424   5.644  44.670  0.00  0.00    +0.003 C 
ATOM     12  C11 <0> A   1     -15.744   4.275  44.868  0.00  0.00    -0.002 C 
ATOM     13  C12 <0> A   1     -14.621   4.313  45.923  0.00  0.00    -0.002 C 
ATOM     14  C13 <0> A   1     -13.768   5.547  45.811  0.00  0.00    +0.013 C 
ATOM     15  C14 <0> A   1     -14.320   6.615  46.778  0.00  0.00    +0.008 C 
ENDBRANCH   6   9
BRANCH   5  16
ATOM     16  O1  <0> A   1     -14.862  10.044  45.873  0.00  0.00    -0.318 OA
BRANCH  16  17
ATOM     17  C15 <0> A   1     -13.455  10.219  46.040  0.00  0.00    +0.146 C 
BRANCH  17  18
ATOM     18  C16 <0> A   1     -12.875  10.906  44.803  0.00  0.00    +0.224 C 
BRANCH  18  19
ATOM     19  O5  <0> A   1     -11.519  10.495  44.620  0.00  0.00    -0.531 OA
ATOM     20  H28 <0> A   1     -10.900  10.893  45.247  0.00  0.00    +0.363 HD
ENDBRANCH  18  19
BRANCH  18  21
ATOM     21  C17 <0> A   1     -13.697  10.515  43.571  0.00  0.00    -0.043 C 
BRANCH  21  22
ATOM     22  C18 <0> A   1     -13.292  11.397  42.388  0.00  0.00    +0.234 C 
BRANCH  22  23
ATOM     23  O4  <0> A   1     -12.106  10.873  41.786  0.00  0.00    -0.527 OA
ATOM     24  H27 <0> A   1     -11.310  10.985  42.323  0.00  0.00    +0.350 HD
ENDBRANCH  22  23
BRANCH  22  25
ATOM     25  C19 <0> A   1     -14.421  11.417  41.357  0.00  0.00    -0.101 C 
BRANCH  25  26
ATOM     26  C20 <0> A   1     -13.889  10.969  40.020  0.00  0.00    +0.491 C 
ATOM     27  O2  <0> A   1     -13.724   9.781  39.797  0.00  0.00    -0.680 OA
ATOM     28  O3  <0> A   1     -13.623  11.793  39.162  0.00  0.00    -0.713 OA
ENDBRANCH  25  26
ENDBRANCH  22  25
ENDBRANCH  21  22
ENDBRANCH  18  21
ENDBRANCH  17  18
ENDBRANCH  16  17
ENDBRANCH   5  16
TORSDOF 10
ENDMDL
MODEL 5
REMARK VINA RESULT:      -7.1     16.877     20.808
REMARK  Name = CHEMBL140527
REMARK  12 active torsions:
REMARK  status: ('A' for Active; 'I' for Inactive)
REMARK    1  A    between atoms: C1_1  and  C2_2
REMARK    2  A    between atoms: C4_4  and  C21_27
REMARK    3  A    between atoms: C5_5  and  O1_15
REMARK    4  A    between atoms: C6_6  and  C8_8
REMARK    5  A    between atoms: O1_15  and  C15_16
REMARK    6  A    between atoms: C15_16  and  C16_17
REMARK    7  A    between atoms: C16_17  and  C17_18
REMARK    8  A    between atoms: C16_17  and  O5_26
REMARK    9  A    between atoms: C17_18  and  C18_19
REMARK   10  A    between atoms: C18_19  and  C19_21
REMARK   11  A    between atoms: C18_19  and  O4_25
REMARK   12  A    between atoms: C19_21  and  C20_22
REMARK                            x       y       z     vdW  Elec       q    Type
REMARK                         _______ _______ _______ _____ _____    ______ ____
ROOT
ATOM      1  C1  <0> A   1     -29.512  -4.132  53.557  0.00  0.00    +0.087 C 
ATOM      2  C2  <0> A   1     -28.513  -4.655  52.558  0.00  0.00    -0.089 A 
ATOM      3  C3  <0> A   1     -28.608  -5.957  52.103  0.00  0.00    +0.006 A 
ATOM      4  C4  <0> A   1     -27.693  -6.439  51.187  0.00  0.00    -0.095 A 
ATOM      5  C5  <0> A   1     -26.679  -5.615  50.723  0.00  0.00    +0.092 A 
ATOM      6  C6  <0> A   1     -26.586  -4.309  51.179  0.00  0.00    -0.086 A 
ATOM      7  C7  <0> A   1     -27.505  -3.830  52.091  0.00  0.00    +0.012 A 
ATOM      8  C21 <0> A   1     -27.798  -7.859  50.693  0.00  0.00    +0.096 C 
ENDROOT
BRANCH   6   9
ATOM      9  C8  <0> A   1     -25.484  -3.411  50.677  0.00  0.00    +0.039 C 
ATOM     10  C9  <0> A   1     -24.325  -3.424  51.695  0.00  0.00    +0.026 C 
ATOM     11  C10 <0> A   1     -23.071  -2.976  50.997  0.00  0.00    +0.003 C 
ATOM     12  C11 <0> A   1     -22.815  -1.465  51.156  0.00  0.00    -0.002 C 
ATOM     13  C12 <0> A   1     -24.097  -0.623  51.010  0.00  0.00    -0.002 C 
ATOM     14  C13 <0> A   1     -24.977  -1.103  49.888  0.00  0.00    +0.013 C 
ATOM     15  C14 <0> A   1     -26.024  -2.075  50.467  0.00  0.00    +0.008 C 
ENDBRANCH   6   9
BRANCH   5  16
ATOM     16  O1  <0> A   1     -25.778  -6.087  49.821  0.00  0.00    -0.318 OA
BRANCH  16  17
ATOM     17  C15 <0> A   1     -24.676  -6.837  50.336  0.00  0.00    +0.146 C 
BRANCH  17  18
ATOM     18  C16 <0> A   1     -24.344  -7.980  49.376  0.00  0.00    +0.224 C 
BRANCH  18  19
ATOM     19  O5  <0> A   1     -23.344  -7.550  48.449  0.00  0.00    -0.531 OA
ATOM     20  H28 <0> A   1     -23.292  -8.090  47.649  0.00  0.00    +0.363 HD
ENDBRANCH  18  19
BRANCH  18  21
ATOM     21  C17 <0> A   1     -23.820  -9.178  50.171  0.00  0.00    -0.043 C 
BRANCH  21  22
ATOM     22  C18 <0> A   1     -24.955 -10.180  50.391  0.00  0.00    +0.234 C 
BRANCH  22  23
ATOM     23  O4  <0> A   1     -25.698 -10.333  49.179  0.00  0.00    -0.527 OA
ATOM     24  H27 <0> A   1     -26.260 -11.119  49.159  0.00  0.00    +0.350 HD
ENDBRANCH  22  23
BRANCH  22  25
ATOM     25  C19 <0> A   1     -24.370 -11.531  50.804  0.00  0.00    -0.101 C 
BRANCH  25  26
ATOM     26  C20 <0> A   1     -24.390 -12.470  49.625  0.00  0.00    +0.491 C 
ATOM     27  O2  <0> A   1     -23.564 -12.348  48.736  0.00  0.00    -0.680 OA
ATOM     28  O3  <0> A   1     -25.231 -13.350  49.560  0.00  0.00    -0.713 OA
ENDBRANCH  25  26
ENDBRANCH  22  25
ENDBRANCH  21  22
ENDBRANCH  18  21
ENDBRANCH  17  18
ENDBRANCH  16  17
ENDBRANCH   5  16
TORSDOF 10
ENDMDL
MODEL 6
REMARK VINA RESULT:      -7.0      8.754     11.583
REMARK  Name = CHEMBL140527
REMARK  12 active torsions:
REMARK  status: ('A' for Active; 'I' for Inactive)
REMARK    1  A    between atoms: C1_1  and  C2_2
REMARK    2  A    between atoms: C4_4  and  C21_27
REMARK    3  A    between atoms: C5_5  and  O1_15
REMARK    4  A    between atoms: C6_6  and  C8_8
REMARK    5  A    between atoms: O1_15  and  C15_16
REMARK    6  A    between atoms: C15_16  and  C16_17
REMARK    7  A    between atoms: C16_17  and  C17_18
REMARK    8  A    between atoms: C16_17  and  O5_26
REMARK    9  A    between atoms: C17_18  and  C18_19
REMARK   10  A    between atoms: C18_19  and  C19_21
REMARK   11  A    between atoms: C18_19  and  O4_25
REMARK   12  A    between atoms: C19_21  and  C20_22
REMARK                            x       y       z     vdW  Elec       q    Type
REMARK                         _______ _______ _______ _____ _____    ______ ____
ROOT
ATOM      1  C1  <0> A   1      -0.327   3.269  44.788  0.00  0.00    +0.087 C 
ATOM      2  C2  <0> A   1      -1.713   3.628  45.258  0.00  0.00    -0.089 A 
ATOM      3  C3  <0> A   1      -2.814   3.000  44.706  0.00  0.00    +0.006 A 
ATOM      4  C4  <0> A   1      -4.085   3.328  45.135  0.00  0.00    -0.095 A 
ATOM      5  C5  <0> A   1      -4.257   4.288  46.121  0.00  0.00    +0.092 A 
ATOM      6  C6  <0> A   1      -3.151   4.917  46.674  0.00  0.00    -0.086 A 
ATOM      7  C7  <0> A   1      -1.882   4.582  46.245  0.00  0.00    +0.012 A 
ATOM      8  C21 <0> A   1      -5.285   2.643  44.532  0.00  0.00    +0.096 C 
ENDROOT
BRANCH   6   9
ATOM      9  C8  <0> A   1      -3.334   5.961  47.745  0.00  0.00    +0.039 C 
ATOM     10  C9  <0> A   1      -2.338   7.112  47.497  0.00  0.00    +0.026 C 
ATOM     11  C10 <0> A   1      -2.839   8.339  48.208  0.00  0.00    +0.003 C 
ATOM     12  C11 <0> A   1      -2.229   8.496  49.614  0.00  0.00    -0.002 C 
ATOM     13  C12 <0> A   1      -2.147   7.163  50.383  0.00  0.00    -0.002 C 
ATOM     14  C13 <0> A   1      -3.383   6.323  50.210  0.00  0.00    +0.013 C 
ATOM     15  C14 <0> A   1      -3.147   5.337  49.048  0.00  0.00    +0.008 C 
ENDBRANCH   6   9
BRANCH   5  16
ATOM     16  O1  <0> A   1      -5.507   4.612  46.545  0.00  0.00    -0.318 OA
BRANCH  16  17
ATOM     17  C15 <0> A   1      -6.117   5.759  45.950  0.00  0.00    +0.146 C 
BRANCH  17  18
ATOM     18  C16 <0> A   1      -7.614   5.502  45.767  0.00  0.00    +0.224 C 
BRANCH  18  19
ATOM     19  O5  <0> A   1      -7.914   5.406  44.373  0.00  0.00    -0.531 OA
ATOM     20  H28 <0> A   1      -7.186   5.672  43.795  0.00  0.00    +0.363 HD
ENDBRANCH  18  19
BRANCH  18  21
ATOM     21  C17 <0> A   1      -7.995   4.193  46.461  0.00  0.00    -0.043 C 
BRANCH  21  22
ATOM     22  C18 <0> A   1      -8.803   4.502  47.724  0.00  0.00    +0.234 C 
BRANCH  22  23
ATOM     23  O4  <0> A   1     -10.135   4.004  47.572  0.00  0.00    -0.527 OA
ATOM     24  H27 <0> A   1     -10.790   4.688  47.378  0.00  0.00    +0.350 HD
ENDBRANCH  22  23
BRANCH  22  25
ATOM     25  C19 <0> A   1      -8.143   3.831  48.929  0.00  0.00    -0.101 C 
BRANCH  25  26
ATOM     26  C20 <0> A   1      -8.929   4.149  50.175  0.00  0.00    +0.491 C 
ATOM     27  O2  <0> A   1      -8.828   5.247  50.695  0.00  0.00    -0.680 OA
ATOM     28  O3  <0> A   1      -9.665   3.308  50.663  0.00  0.00    -0.713 OA
ENDBRANCH  25  26
ENDBRANCH  22  25
ENDBRANCH  21  22
ENDBRANCH  18  21
ENDBRANCH  17  18
ENDBRANCH  16  17
ENDBRANCH   5  16
TORSDOF 10
ENDMDL
MODEL 7
REMARK VINA RESULT:      -6.9      9.775     12.793
REMARK  Name = CHEMBL140527
REMARK  12 active torsions:
REMARK  status: ('A' for Active; 'I' for Inactive)
REMARK    1  A    between atoms: C1_1  and  C2_2
REMARK    2  A    between atoms: C4_4  and  C21_27
REMARK    3  A    between atoms: C5_5  and  O1_15
REMARK    4  A    between atoms: C6_6  and  C8_8
REMARK    5  A    between atoms: O1_15  and  C15_16
REMARK    6  A    between atoms: C15_16  and  C16_17
REMARK    7  A    between atoms: C16_17  and  C17_18
REMARK    8  A    between atoms: C16_17  and  O5_26
REMARK    9  A    between atoms: C17_18  and  C18_19
REMARK   10  A    between atoms: C18_19  and  C19_21
REMARK   11  A    between atoms: C18_19  and  O4_25
REMARK   12  A    between atoms: C19_21  and  C20_22
REMARK                            x       y       z     vdW  Elec       q    Type
REMARK                         _______ _______ _______ _____ _____    ______ ____
ROOT
ATOM      1  C1  <0> A   1      -0.592   3.086  44.510  0.00  0.00    +0.087 C 
ATOM      2  C2  <0> A   1      -1.974   3.439  44.997  0.00  0.00    -0.089 A 
ATOM      3  C3  <0> A   1      -3.079   2.813  44.449  0.00  0.00    +0.006 A 
ATOM      4  C4  <0> A   1      -4.347   3.134  44.894  0.00  0.00    -0.095 A 
ATOM      5  C5  <0> A   1      -4.511   4.085  45.891  0.00  0.00    +0.092 A 
ATOM      6  C6  <0> A   1      -3.401   4.711  46.438  0.00  0.00    -0.086 A 
ATOM      7  C7  <0> A   1      -2.135   4.383  45.994  0.00  0.00    +0.012 A 
ATOM      8  C21 <0> A   1      -5.550   2.452  44.295  0.00  0.00    +0.096 C 
ENDROOT
BRANCH   6   9
ATOM      9  C8  <0> A   1      -3.576   5.744  47.521  0.00  0.00    +0.039 C 
ATOM     10  C9  <0> A   1      -2.685   6.962  47.199  0.00  0.00    +0.026 C 
ATOM     11  C10 <0> A   1      -3.216   8.154  47.947  0.00  0.00    +0.003 C 
ATOM     12  C11 <0> A   1      -2.514   8.360  49.303  0.00  0.00    -0.002 C 
ATOM     13  C12 <0> A   1      -2.281   7.040  50.062  0.00  0.00    -0.002 C 
ATOM     14  C13 <0> A   1      -3.464   6.114  49.983  0.00  0.00    +0.013 C 
ATOM     15  C14 <0> A   1      -3.248   5.141  48.805  0.00  0.00    +0.008 C 
ENDBRANCH   6   9
BRANCH   5  16
ATOM     16  O1  <0> A   1      -5.757   4.403  46.329  0.00  0.00    -0.318 OA
BRANCH  16  17
ATOM     17  C15 <0> A   1      -6.534   3.346  46.896  0.00  0.00    +0.146 C 
BRANCH  17  18
ATOM     18  C16 <0> A   1      -7.246   3.854  48.151  0.00  0.00    +0.224 C 
BRANCH  18  19
ATOM     19  O5  <0> A   1      -8.395   3.044  48.409  0.00  0.00    -0.531 OA
ATOM     20  H28 <0> A   1      -9.148   3.236  47.834  0.00  0.00    +0.363 HD
ENDBRANCH  18  19
BRANCH  18  21
ATOM     21  C17 <0> A   1      -6.290   3.779  49.345  0.00  0.00    -0.043 C 
BRANCH  21  22
ATOM     22  C18 <0> A   1      -6.798   2.731  50.339  0.00  0.00    +0.234 C 
BRANCH  22  23
ATOM     23  O4  <0> A   1      -6.439   1.426  49.881  0.00  0.00    -0.527 OA
ATOM     24  H27 <0> A   1      -5.487   1.260  49.873  0.00  0.00    +0.350 HD
ENDBRANCH  22  23
BRANCH  22  25
ATOM     25  C19 <0> A   1      -6.168   2.982  51.710  0.00  0.00    -0.101 C 
BRANCH  25  26
ATOM     26  C20 <0> A   1      -4.982   2.069  51.893  0.00  0.00    +0.491 C 
ATOM     27  O2  <0> A   1      -3.892   2.390  51.451  0.00  0.00    -0.680 OA
ATOM     28  O3  <0> A   1      -5.114   1.010  52.482  0.00  0.00    -0.713 OA
ENDBRANCH  25  26
ENDBRANCH  22  25
ENDBRANCH  21  22
ENDBRANCH  18  21
ENDBRANCH  17  18
ENDBRANCH  16  17
ENDBRANCH   5  16
TORSDOF 10
ENDMDL
MODEL 8
REMARK VINA RESULT:      -6.9     15.871     19.992
REMARK  Name = CHEMBL140527
REMARK  12 active torsions:
REMARK  status: ('A' for Active; 'I' for Inactive)
REMARK    1  A    between atoms: C1_1  and  C2_2
REMARK    2  A    between atoms: C4_4  and  C21_27
REMARK    3  A    between atoms: C5_5  and  O1_15
REMARK    4  A    between atoms: C6_6  and  C8_8
REMARK    5  A    between atoms: O1_15  and  C15_16
REMARK    6  A    between atoms: C15_16  and  C16_17
REMARK    7  A    between atoms: C16_17  and  C17_18
REMARK    8  A    between atoms: C16_17  and  O5_26
REMARK    9  A    between atoms: C17_18  and  C18_19
REMARK   10  A    between atoms: C18_19  and  C19_21
REMARK   11  A    between atoms: C18_19  and  O4_25
REMARK   12  A    between atoms: C19_21  and  C20_22
REMARK                            x       y       z     vdW  Elec       q    Type
REMARK                         _______ _______ _______ _____ _____    ______ ____
ROOT
ATOM      1  C1  <0> A   1     -28.934   1.691  51.173  0.00  0.00    +0.087 C 
ATOM      2  C2  <0> A   1     -27.925   0.593  50.951  0.00  0.00    -0.089 A 
ATOM      3  C3  <0> A   1     -26.581   0.903  50.846  0.00  0.00    +0.006 A 
ATOM      4  C4  <0> A   1     -25.654  -0.101  50.642  0.00  0.00    -0.095 A 
ATOM      5  C5  <0> A   1     -26.072  -1.420  50.543  0.00  0.00    +0.092 A 
ATOM      6  C6  <0> A   1     -27.420  -1.728  50.649  0.00  0.00    -0.086 A 
ATOM      7  C7  <0> A   1     -28.343  -0.721  50.858  0.00  0.00    +0.012 A 
ATOM      8  C21 <0> A   1     -24.190   0.238  50.526  0.00  0.00    +0.096 C 
ENDROOT
BRANCH   6   9
ATOM      9  C8  <0> A   1     -27.877  -3.160  50.542  0.00  0.00    +0.039 C 
ATOM     10  C9  <0> A   1     -28.336  -3.431  49.095  0.00  0.00    +0.026 C 
ATOM     11  C10 <0> A   1     -28.301  -4.915  48.852  0.00  0.00    +0.003 C 
ATOM     12  C11 <0> A   1     -29.664  -5.587  49.106  0.00  0.00    -0.002 C 
ATOM     13  C12 <0> A   1     -30.370  -5.049  50.365  0.00  0.00    -0.002 C 
ATOM     14  C13 <0> A   1     -29.423  -4.854  51.518  0.00  0.00    +0.013 C 
ATOM     15  C14 <0> A   1     -28.938  -3.389  51.513  0.00  0.00    +0.008 C 
ENDBRANCH   6   9
BRANCH   5  16
ATOM     16  O1  <0> A   1     -25.162  -2.409  50.342  0.00  0.00    -0.318 OA
BRANCH  16  17
ATOM     17  C15 <0> A   1     -24.728  -3.135  51.493  0.00  0.00    +0.146 C 
BRANCH  17  18
ATOM     18  C16 <0> A   1     -24.283  -4.537  51.073  0.00  0.00    +0.224 C 
BRANCH  18  19
ATOM     19  O5  <0> A   1     -23.181  -4.951  51.884  0.00  0.00    -0.531 OA
ATOM     20  H28 <0> A   1     -22.983  -4.348  52.614  0.00  0.00    +0.363 HD
ENDBRANCH  18  19
BRANCH  18  21
ATOM     21  C17 <0> A   1     -25.445  -5.517  51.254  0.00  0.00    -0.043 C 
BRANCH  21  22
ATOM     22  C18 <0> A   1     -25.296  -6.672  50.261  0.00  0.00    +0.234 C 
BRANCH  22  23
ATOM     23  O4  <0> A   1     -24.077  -6.520  49.531  0.00  0.00    -0.527 OA
ATOM     24  H27 <0> A   1     -24.195  -6.177  48.636  0.00  0.00    +0.350 HD
ENDBRANCH  22  23
BRANCH  22  25
ATOM     25  C19 <0> A   1     -25.272  -7.999  51.023  0.00  0.00    -0.101 C 
BRANCH  25  26
ATOM     26  C20 <0> A   1     -23.847  -8.365  51.350  0.00  0.00    +0.491 C 
ATOM     27  O2  <0> A   1     -23.314  -7.908  52.346  0.00  0.00    -0.680 OA
ATOM     28  O3  <0> A   1     -23.228  -9.119  50.618  0.00  0.00    -0.713 OA
ENDBRANCH  25  26
ENDBRANCH  22  25
ENDBRANCH  21  22
ENDBRANCH  18  21
ENDBRANCH  17  18
ENDBRANCH  16  17
ENDBRANCH   5  16
TORSDOF 10
ENDMDL
MODEL 9
REMARK VINA RESULT:      -6.9     13.613     17.425
REMARK  Name = CHEMBL140527
REMARK  12 active torsions:
REMARK  status: ('A' for Active; 'I' for Inactive)
REMARK    1  A    between atoms: C1_1  and  C2_2
REMARK    2  A    between atoms: C4_4  and  C21_27
REMARK    3  A    between atoms: C5_5  and  O1_15
REMARK    4  A    between atoms: C6_6  and  C8_8
REMARK    5  A    between atoms: O1_15  and  C15_16
REMARK    6  A    between atoms: C15_16  and  C16_17
REMARK    7  A    between atoms: C16_17  and  C17_18
REMARK    8  A    between atoms: C16_17  and  O5_26
REMARK    9  A    between atoms: C17_18  and  C18_19
REMARK   10  A    between atoms: C18_19  and  C19_21
REMARK   11  A    between atoms: C18_19  and  O4_25
REMARK   12  A    between atoms: C19_21  and  C20_22
REMARK                            x       y       z     vdW  Elec       q    Type
REMARK                         _______ _______ _______ _____ _____    ______ ____
ROOT
ATOM      1  C1  <0> A   1     -27.865   2.717  51.348  0.00  0.00    +0.087 C 
ATOM      2  C2  <0> A   1     -26.929   1.570  51.068  0.00  0.00    -0.089 A 
ATOM      3  C3  <0> A   1     -27.418   0.396  50.524  0.00  0.00    +0.006 A 
ATOM      4  C4  <0> A   1     -26.562  -0.657  50.267  0.00  0.00    -0.095 A 
ATOM      5  C5  <0> A   1     -25.210  -0.536  50.553  0.00  0.00    +0.092 A 
ATOM      6  C6  <0> A   1     -24.721   0.642  51.098  0.00  0.00    -0.086 A 
ATOM      7  C7  <0> A   1     -25.581   1.694  51.349  0.00  0.00    +0.012 A 
ATOM      8  C21 <0> A   1     -27.097  -1.936  49.675  0.00  0.00    +0.096 C 
ENDROOT
BRANCH   6   9
ATOM      9  C8  <0> A   1     -23.253   0.776  51.410  0.00  0.00    +0.039 C 
ATOM     10  C9  <0> A   1     -23.055   0.671  52.936  0.00  0.00    +0.026 C 
ATOM     11  C10 <0> A   1     -21.625   0.295  53.208  0.00  0.00    +0.003 C 
ATOM     12  C11 <0> A   1     -20.730   1.522  53.465  0.00  0.00    -0.002 C 
ATOM     13  C12 <0> A   1     -21.030   2.691  52.507  0.00  0.00    -0.002 C 
ATOM     14  C13 <0> A   1     -21.257   2.233  51.092  0.00  0.00    +0.013 C 
ATOM     15  C14 <0> A   1     -22.772   2.042  50.874  0.00  0.00    +0.008 C 
ENDBRANCH   6   9
BRANCH   5  16
ATOM     16  O1  <0> A   1     -24.366  -1.571  50.300  0.00  0.00    -0.318 OA
BRANCH  16  17
ATOM     17  C15 <0> A   1     -23.991  -2.388  51.410  0.00  0.00    +0.146 C 
BRANCH  17  18
ATOM     18  C16 <0> A   1     -23.971  -3.856  50.978  0.00  0.00    +0.224 C 
BRANCH  18  19
ATOM     19  O5  <0> A   1     -22.903  -4.534  51.641  0.00  0.00    -0.531 OA
ATOM     20  H28 <0> A   1     -23.101  -4.780  52.556  0.00  0.00    +0.363 HD
ENDBRANCH  18  19
BRANCH  18  21
ATOM     21  C17 <0> A   1     -25.302  -4.515  51.349  0.00  0.00    -0.043 C 
BRANCH  21  22
ATOM     22  C18 <0> A   1     -25.459  -5.822  50.570  0.00  0.00    +0.234 C 
BRANCH  22  23
ATOM     23  O4  <0> A   1     -24.309  -6.026  49.745  0.00  0.00    -0.527 OA
ATOM     24  H27 <0> A   1     -24.384  -5.638  48.863  0.00  0.00    +0.350 HD
ENDBRANCH  22  23
BRANCH  22  25
ATOM     25  C19 <0> A   1     -25.594  -6.988  51.552  0.00  0.00    -0.101 C 
BRANCH  25  26
ATOM     26  C20 <0> A   1     -24.320  -7.793  51.557  0.00  0.00    +0.491 C 
ATOM     27  O2  <0> A   1     -24.214  -8.769  50.835  0.00  0.00    -0.680 OA
ATOM     28  O3  <0> A   1     -23.397  -7.467  52.283  0.00  0.00    -0.713 OA
ENDBRANCH  25  26
ENDBRANCH  22  25
ENDBRANCH  21  22
ENDBRANCH  18  21
ENDBRANCH  17  18
ENDBRANCH  16  17
ENDBRANCH   5  16
TORSDOF 10
ENDMDL
MODEL 10
REMARK VINA RESULT:      -6.7      1.813      3.581
REMARK  Name = CHEMBL140527
REMARK  12 active torsions:
REMARK  status: ('A' for Active; 'I' for Inactive)
REMARK    1  A    between atoms: C1_1  and  C2_2
REMARK    2  A    between atoms: C4_4  and  C21_27
REMARK    3  A    between atoms: C5_5  and  O1_15
REMARK    4  A    between atoms: C6_6  and  C8_8
REMARK    5  A    between atoms: O1_15  and  C15_16
REMARK    6  A    between atoms: C15_16  and  C16_17
REMARK    7  A    between atoms: C16_17  and  C17_18
REMARK    8  A    between atoms: C16_17  and  O5_26
REMARK    9  A    between atoms: C17_18  and  C18_19
REMARK   10  A    between atoms: C18_19  and  C19_21
REMARK   11  A    between atoms: C18_19  and  O4_25
REMARK   12  A    between atoms: C19_21  and  C20_22
REMARK                            x       y       z     vdW  Elec       q    Type
REMARK                         _______ _______ _______ _____ _____    ______ ____
ROOT
ATOM      1  C1  <0> A   1     -16.385   4.149  44.318  0.00  0.00    +0.087 C 
ATOM      2  C2  <0> A   1     -15.533   5.372  44.545  0.00  0.00    -0.089 A 
ATOM      3  C3  <0> A   1     -14.613   5.759  43.588  0.00  0.00    +0.006 A 
ATOM      4  C4  <0> A   1     -13.830   6.878  43.793  0.00  0.00    -0.095 A 
ATOM      5  C5  <0> A   1     -13.969   7.615  44.961  0.00  0.00    +0.092 A 
ATOM      6  C6  <0> A   1     -14.893   7.225  45.918  0.00  0.00    -0.086 A 
ATOM      7  C7  <0> A   1     -15.677   6.108  45.706  0.00  0.00    +0.012 A 
ATOM      8  C21 <0> A   1     -12.826   7.298  42.750  0.00  0.00    +0.096 C 
ENDROOT
BRANCH   6   9
ATOM      9  C8  <0> A   1     -15.046   8.024  47.187  0.00  0.00    +0.039 C 
ATOM     10  C9  <0> A   1     -14.350   7.270  48.339  0.00  0.00    +0.026 C 
ATOM     11  C10 <0> A   1     -14.052   8.249  49.441  0.00  0.00    +0.003 C 
ATOM     12  C11 <0> A   1     -15.158   8.285  50.514  0.00  0.00    -0.002 C 
ATOM     13  C12 <0> A   1     -16.576   8.239  49.912  0.00  0.00    -0.002 C 
ATOM     14  C13 <0> A   1     -16.711   9.107  48.691  0.00  0.00    +0.013 C 
ATOM     15  C14 <0> A   1     -16.463   8.238  47.441  0.00  0.00    +0.008 C 
ENDBRANCH   6   9
BRANCH   5  16
ATOM     16  O1  <0> A   1     -13.200   8.717  45.165  0.00  0.00    -0.318 OA
BRANCH  16  17
ATOM     17  C15 <0> A   1     -13.866   9.980  45.175  0.00  0.00    +0.146 C 
BRANCH  17  18
ATOM     18  C16 <0> A   1     -13.246  10.893  44.116  0.00  0.00    +0.224 C 
BRANCH  18  19
ATOM     19  O5  <0> A   1     -11.827  10.724  44.112  0.00  0.00    -0.531 OA
ATOM     20  H28 <0> A   1     -11.344  11.462  43.715  0.00  0.00    +0.363 HD
ENDBRANCH  18  19
BRANCH  18  21
ATOM     21  C17 <0> A   1     -13.806  10.529  42.738  0.00  0.00    -0.043 C 
BRANCH  21  22
ATOM     22  C18 <0> A   1     -13.020  11.272  41.656  0.00  0.00    +0.234 C 
BRANCH  22  23
ATOM     23  O4  <0> A   1     -11.778  10.604  41.424  0.00  0.00    -0.527 OA
ATOM     24  H27 <0> A   1     -11.088  10.823  42.064  0.00  0.00    +0.350 HD
ENDBRANCH  22  23
BRANCH  22  25
ATOM     25  C19 <0> A   1     -13.835  11.298  40.362  0.00  0.00    -0.101 C 
BRANCH  25  26
ATOM     26  C20 <0> A   1     -12.910  11.140  39.182  0.00  0.00    +0.491 C 
ATOM     27  O2  <0> A   1     -12.690  10.032  38.725  0.00  0.00    -0.680 OA
ATOM     28  O3  <0> A   1     -12.382  12.121  38.686  0.00  0.00    -0.713 OA
ENDBRANCH  25  26
ENDBRANCH  22  25
ENDBRANCH  21  22
ENDBRANCH  18  21
ENDBRANCH  17  18
ENDBRANCH  16  17
ENDBRANCH   5  16
TORSDOF 10
ENDMDL
