REMARK  Name = CHEMBL341284
REMARK  11 active torsions:
REMARK  status: ('A' for Active; 'I' for Inactive)
REMARK    1  A    between atoms: C1_1  and  C2_2
REMARK    2  A    between atoms: C5_5  and  S1_8
REMARK    3  A    between atoms: S1_8  and  N1_11
REMARK    4  A    between atoms: C8_12  and  C21_31
REMARK    5  A    between atoms: C9_13  and  C14_19
REMARK    6  A    between atoms: C10_14  and  C11_16
REMARK    7  A    between atoms: C11_16  and  C12_17
REMARK    8  A    between atoms: C11_16  and  C13_18
REMARK    9  A    between atoms: C14_19  and  C15_20
REMARK   10  A    between atoms: C15_20  and  C16_21
REMARK   11  A    between atoms: C18_24  and  O5_30
REMARK                            x       y       z     vdW  Elec       q    Type
REMARK                         _______ _______ _______ _____ _____    ______ ____
ROOT
ATOM      1  N1  <0> A   1       1.825  -4.633  -0.114  0.00  0.00    -0.734 N 
ATOM      2  C8  <0> A   1       2.381  -5.319  -1.152  0.00  0.00    +0.141 C 
ATOM      3  C9  <0> A   1       3.451  -6.009  -0.657  0.00  0.00    -0.168 C 
ATOM      4  C10 <0> A   1       3.543  -5.735   0.708  0.00  0.00    +0.127 C 
ATOM      5  N2  <0> A   1       2.580  -4.910   1.033  0.00  0.00    -0.237 NA
ENDROOT
BRANCH   2   6
ATOM      6  C21 <0> A   1       1.912  -5.317  -2.555  0.00  0.00    -0.089 A 
ATOM      7  C22 <0> A   1       2.745  -4.846  -3.571  0.00  0.00    +0.084 A 
ATOM      8  C23 <0> A   1       2.303  -4.846  -4.878  0.00  0.00    -0.020 A 
ATOM      9  C24 <0> A   1       1.034  -5.313  -5.182  0.00  0.00    +0.124 A 
ATOM     10  C25 <0> A   1       0.203  -5.781  -4.177  0.00  0.00    -0.011 A 
ATOM     11  C26 <0> A   1       0.638  -5.790  -2.868  0.00  0.00    +0.127 A 
ATOM     12  F1  <0> A   1       0.606  -5.311  -6.464  0.00  0.00    -0.134 F 
ENDBRANCH   2   6
BRANCH   1  13
ATOM     13  S1  <0> A   1       0.500  -3.643  -0.195  0.00  0.00    +2.687 S 
ATOM     14  O1  <0> A   1       0.034  -3.479   1.137  0.00  0.00    -0.914 OA
ATOM     15  O2  <0> A   1      -0.325  -4.154  -1.233  0.00  0.00    -0.921 OA
BRANCH  13  20
ATOM     16  C1  <0> A   1       2.423   1.773  -2.029  0.00  0.00    +0.105 C 
ATOM     17  C2  <0> A   1       1.943   0.420  -1.571  0.00  0.00    -0.018 A 
ATOM     18  C3  <0> A   1       1.551  -0.525  -2.500  0.00  0.00    -0.005 A 
ATOM     19  C4  <0> A   1       1.110  -1.766  -2.080  0.00  0.00    +0.131 A 
ATOM     20  C5  <0> A   1       1.062  -2.062  -0.731  0.00  0.00    -0.682 A 
ATOM     21  C6  <0> A   1       1.455  -1.117   0.199  0.00  0.00    +0.137 A 
ATOM     22  C7  <0> A   1       1.899   0.123  -0.222  0.00  0.00    -0.004 A 
ENDBRANCH  13  20
ENDBRANCH   1  13
BRANCH   4  23
ATOM     23  C11 <0> A   1       4.582  -6.289   1.648  0.00  0.00    +0.076 C 
ATOM     24  C12 <0> A   1       5.377  -5.137   2.266  0.00  0.00    +0.041 C 
ATOM     25  C13 <0> A   1       3.893  -7.085   2.758  0.00  0.00    +0.041 C 
ENDBRANCH   4  23
BRANCH   3  26
ATOM     26  C14 <0> A   1       4.368  -6.908  -1.445  0.00  0.00    +0.117 C 
BRANCH  26  27
ATOM     27  C15 <0> A   1       5.605  -6.120  -1.880  0.00  0.00    +0.055 C 
BRANCH  27  28
ATOM     28  C16 <0> A   1       6.589  -7.059  -2.581  0.00  0.00    +0.198 C 
ATOM     29  C17 <0> A   1       7.769  -6.250  -3.125  0.00  0.00    +0.040 C 
ATOM     30  C18 <0> A   1       8.772  -7.199  -3.789  0.00  0.00    +0.183 C 
ATOM     31  C19 <0> A   1       9.259  -8.215  -2.747  0.00  0.00    +0.021 C 
ATOM     32  C20 <0> A   1       8.047  -8.845  -2.097  0.00  0.00    +0.496 C 
ATOM     33  O3  <0> A   1       7.955 -10.045  -1.985  0.00  0.00    -0.452 OA
ATOM     34  O4  <0> A   1       7.071  -8.030  -1.645  0.00  0.00    -0.366 OA
BRANCH  30  35
ATOM     35  O5  <0> A   1       8.138  -7.886  -4.870  0.00  0.00    -0.564 OA
ATOM     36  H25 <0> A   1       8.716  -8.504  -5.337  0.00  0.00    +0.387 HD
ENDBRANCH  30  35
ENDBRANCH  27  28
ENDBRANCH  26  27
ENDBRANCH   3  26
TORSDOF 8
