REMARK  Name = CHEMBL331680
REMARK  15 active torsions:
REMARK  status: ('A' for Active; 'I' for Inactive)
REMARK    1  A    between atoms: C1_1  and  C2_2
REMARK    2  A    between atoms: C2_2  and  C3_3
REMARK    3  A    between atoms: C2_2  and  C4_4
REMARK    4  A    between atoms: C6_6  and  C22_30
REMARK    5  A    between atoms: C7_7  and  C16_23
REMARK    6  A    between atoms: N1_8  and  C8_9
REMARK    7  A    between atoms: C9_10  and  C10_11
REMARK    8  A    between atoms: C10_11  and  C11_13
REMARK    9  A    between atoms: C10_11  and  O4_22
REMARK   10  A    between atoms: C11_13  and  C12_14
REMARK   11  A    between atoms: C12_14  and  C13_16
REMARK   12  A    between atoms: C12_14  and  O3_21
REMARK   13  A    between atoms: C13_16  and  C14_17
REMARK   14  A    between atoms: C14_17  and  O2_19
REMARK   15  A    between atoms: O2_19  and  C15_20
REMARK                            x       y       z     vdW  Elec       q    Type
REMARK                         _______ _______ _______ _____ _____    ______ ____
ROOT
ATOM      1  C4  <0> A   1       0.707  -0.490  -1.238  0.00  0.00    +0.038 C 
ATOM      2  C5  <0> A   1       0.666   0.105  -2.445  0.00  0.00    -0.017 C 
ATOM      3  C6  <0> A   1       1.458  -0.664  -3.332  0.00  0.00    -0.114 C 
ATOM      4  C7  <0> A   1       1.962  -1.728  -2.601  0.00  0.00    +0.101 C 
ATOM      5  N1  <0> A   1       1.497  -1.603  -1.317  0.00  0.00    -0.391 N 
ENDROOT
BRANCH   4   6
ATOM      6  C16 <0> A   1       2.844  -2.797  -3.110  0.00  0.00    -0.037 A 
ATOM      7  C17 <0> A   1       3.955  -3.202  -2.367  0.00  0.00    +0.053 A 
ATOM      8  C18 <0> A   1       4.775  -4.201  -2.847  0.00  0.00    -0.029 A 
ATOM      9  C19 <0> A   1       4.499  -4.803  -4.064  0.00  0.00    +0.108 A 
ATOM     10  C20 <0> A   1       3.397  -4.405  -4.806  0.00  0.00    -0.031 A 
ATOM     11  C21 <0> A   1       2.567  -3.411  -4.333  0.00  0.00    +0.129 A 
ATOM     12  F1  <0> A   1       5.306  -5.781  -4.530  0.00  0.00    -0.141 F 
ENDBRANCH   4   6
BRANCH   3  13
ATOM     13  C22 <0> A   1       1.701  -0.385  -4.765  0.00  0.00    +0.208 A 
ATOM     14  C23 <0> A   1       1.123   0.738  -5.360  0.00  0.00    -0.030 A 
ATOM     15  C24 <0> A   1       1.360   0.984  -6.700  0.00  0.00    +0.064 A 
ATOM     16  C25 <0> A   1       2.166   0.101  -7.405  0.00  0.00    -0.052 A 
ATOM     17  C26 <0> A   1       2.707  -0.992  -6.754  0.00  0.00    +0.258 A 
ATOM     18  N2  <0> A   1       2.471  -1.202  -5.474  0.00  0.00    -0.481 NA
ENDBRANCH   3  13
BRANCH   1  20
ATOM     19  C1  <0> A   1      -0.019   1.526   0.010  0.00  0.00    +0.041 C 
ATOM     20  C2  <0> A   1       0.002  -0.004   0.002  0.00  0.00    +0.051 C 
ATOM     21  C3  <0> A   1      -1.433  -0.534   0.013  0.00  0.00    +0.033 C 
ENDBRANCH   1  20
BRANCH   5  22
ATOM     22  C8  <0> A   1       1.780  -2.472  -0.264  0.00  0.00    +0.201 C 
ATOM     23  C9  <0> A   1       1.629  -3.773  -0.424  0.00  0.00    -0.054 C 
BRANCH  23  24
ATOM     24  C10 <0> A   1       1.935  -4.712   0.714  0.00  0.00    +0.268 C 
BRANCH  24  25
ATOM     25  O4  <0> A   1       2.256  -3.956   1.883  0.00  0.00    -0.538 OA
ATOM     26  H21 <0> A   1       1.546  -3.370   2.180  0.00  0.00    +0.370 HD
ENDBRANCH  24  25
BRANCH  24  27
ATOM     27  C11 <0> A   1       0.713  -5.590   0.994  0.00  0.00    -0.015 C 
BRANCH  27  28
ATOM     28  C12 <0> A   1       1.063  -6.627   2.063  0.00  0.00    +0.233 C 
BRANCH  28  29
ATOM     29  O3  <0> A   1       1.342  -5.962   3.297  0.00  0.00    -0.530 OA
ATOM     30  H20 <0> A   1       0.604  -5.439   3.638  0.00  0.00    +0.366 HD
ENDBRANCH  28  29
BRANCH  28  31
ATOM     31  C13 <0> A   1      -0.116  -7.582   2.253  0.00  0.00    +0.073 C 
BRANCH  31  32
ATOM     32  C14 <0> A   1       0.273  -8.675   3.215  0.00  0.00    +0.456 C 
ATOM     33  O1  <0> A   1       1.380  -8.688   3.699  0.00  0.00    -0.486 OA
BRANCH  32  34
ATOM     34  O2  <0> A   1      -0.611  -9.633   3.534  0.00  0.00    -0.359 OA
ATOM     35  C15 <0> A   1      -0.175 -10.638   4.452  0.00  0.00    +0.258 C 
ENDBRANCH  32  34
ENDBRANCH  31  32
ENDBRANCH  28  31
ENDBRANCH  27  28
ENDBRANCH  24  27
ENDBRANCH  23  24
ENDBRANCH   5  22
TORSDOF 12
