REMARK  Name = CHEMBL389442
REMARK  15 active torsions:
REMARK  status: ('A' for Active; 'I' for Inactive)
REMARK    1  A    between atoms: C1_1  and  C2_2
REMARK    2  A    between atoms: C2_2  and  C3_3
REMARK    3  A    between atoms: C2_2  and  N1_4
REMARK    4  A    between atoms: C4_5  and  C28_33
REMARK    5  A    between atoms: C5_6  and  C22_26
REMARK    6  A    between atoms: N2_11  and  C15_18
REMARK    7  A    between atoms: C15_18  and  C16_19
REMARK    8  A    between atoms: C28_33  and  C29_34
REMARK    9  A    between atoms: C29_34  and  C30_35
REMARK   10  A    between atoms: C30_35  and  C31_37
REMARK   11  A    between atoms: C30_35  and  O5_45
REMARK   12  A    between atoms: C31_37  and  C32_38
REMARK   13  A    between atoms: C32_38  and  C33_40
REMARK   14  A    between atoms: C32_38  and  O4_44
REMARK   15  A    between atoms: C33_40  and  C34_41
REMARK                            x       y       z     vdW  Elec       q    Type
REMARK                         _______ _______ _______ _____ _____    ______ ____
ROOT
ATOM      1  N1  <0> A   1      -0.973  -0.215   0.086  0.00  0.00    -0.391 N 
ATOM      2  C4  <0> A   1      -1.385  -1.024  -0.921  0.00  0.00    +0.107 C 
ATOM      3  C5  <0> A   1      -2.662  -1.437  -0.678  0.00  0.00    -0.131 C 
ATOM      4  C6  <0> A   1      -3.062  -0.826   0.585  0.00  0.00    -0.046 C 
ATOM      5  C7  <0> A   1      -1.969  -0.078   1.023  0.00  0.00    -0.043 C 
ATOM      6  C8  <0> A   1      -2.063   0.632   2.242  0.00  0.00    +0.575 C 
ATOM      7  O1  <0> A   1      -1.109   1.289   2.623  0.00  0.00    -0.515 OA
ATOM      8  N2  <0> A   1      -3.179   0.601   2.990  0.00  0.00    -0.516 N 
ATOM      9  C9  <0> A   1      -4.293  -0.126   2.611  0.00  0.00    +0.167 A 
ATOM     10  C10 <0> A   1      -4.279  -0.851   1.407  0.00  0.00    -0.054 A 
ATOM     11  C11 <0> A   1      -5.401  -1.585   1.024  0.00  0.00    +0.065 A 
ATOM     12  C12 <0> A   1      -6.524  -1.583   1.822  0.00  0.00    -0.017 A 
ATOM     13  C13 <0> A   1      -6.544  -0.855   3.002  0.00  0.00    +0.045 A 
ATOM     14  C14 <0> A   1      -5.434  -0.141   3.404  0.00  0.00    -0.031 A 
ENDROOT
BRANCH   3  15
ATOM     15  C22 <0> A   1      -3.483  -2.330  -1.531  0.00  0.00    -0.011 A 
ATOM     16  C23 <0> A   1      -3.864  -1.922  -2.807  0.00  0.00    +0.054 A 
ATOM     17  C24 <0> A   1      -4.628  -2.756  -3.597  0.00  0.00    -0.012 A 
ATOM     18  C25 <0> A   1      -5.017  -3.998  -3.123  0.00  0.00    +0.097 A 
ATOM     19  C26 <0> A   1      -4.641  -4.409  -1.854  0.00  0.00    -0.015 A 
ATOM     20  C27 <0> A   1      -3.872  -3.583  -1.059  0.00  0.00    +0.052 A 
ATOM     21  F2  <0> A   1      -5.766  -4.812  -3.899  0.00  0.00    -0.140 F 
ENDBRANCH   3  15
BRANCH   1  23
ATOM     22  C1  <0> A   1       0.182   1.938   0.208  0.00  0.00    +0.045 C 
ATOM     23  C2  <0> A   1       0.347   0.417   0.166  0.00  0.00    +0.228 C 
ATOM     24  C3  <0> A   1       1.061  -0.053   1.435  0.00  0.00    +0.046 C 
ENDBRANCH   1  23
BRANCH   8  25
ATOM     25  C15 <0> A   1      -3.216   1.358   4.244  0.00  0.00    +0.359 C 
BRANCH  25  26
ATOM     26  C16 <0> A   1      -2.867   0.446   5.392  0.00  0.00    -0.151 A 
ATOM     27  C17 <0> A   1      -3.867  -0.073   6.192  0.00  0.00    +0.058 A 
ATOM     28  C18 <0> A   1      -3.547  -0.909   7.245  0.00  0.00    -0.003 A 
ATOM     29  C19 <0> A   1      -2.225  -1.228   7.499  0.00  0.00    +0.051 A 
ATOM     30  C20 <0> A   1      -1.224  -0.711   6.700  0.00  0.00    -0.025 A 
ATOM     31  C21 <0> A   1      -1.544   0.123   5.641  0.00  0.00    +0.123 A 
ATOM     32  F1  <0> A   1      -0.566   0.625   4.857  0.00  0.00    -0.116 F 
ENDBRANCH  25  26
ENDBRANCH   8  25
BRANCH   2  33
ATOM     33  C28 <0> A   1      -0.560  -1.408  -2.123  0.00  0.00    +0.121 C 
BRANCH  33  34
ATOM     34  C29 <0> A   1       0.226  -2.684  -1.815  0.00  0.00    -0.006 C 
BRANCH  34  35
ATOM     35  C30 <0> A   1       1.063  -3.074  -3.035  0.00  0.00    +0.214 C 
BRANCH  35  36
ATOM     36  O5  <0> A   1       2.052  -2.070  -3.275  0.00  0.00    -0.542 OA
ATOM     37  H33 <0> A   1       2.664  -1.938  -2.538  0.00  0.00    +0.364 HD
ENDBRANCH  35  36
BRANCH  35  38
ATOM     38  C31 <0> A   1       1.752  -4.415  -2.773  0.00  0.00    -0.051 C 
BRANCH  38  39
ATOM     39  C32 <0> A   1       2.488  -4.866  -4.037  0.00  0.00    +0.231 C 
BRANCH  39  40
ATOM     40  O4  <0> A   1       3.545  -3.948  -4.325  0.00  0.00    -0.528 OA
ATOM     41  H32 <0> A   1       4.204  -3.874  -3.621  0.00  0.00    +0.349 HD
ENDBRANCH  39  40
BRANCH  39  42
ATOM     42  C33 <0> A   1       3.071  -6.263  -3.816  0.00  0.00    -0.103 C 
BRANCH  42  43
ATOM     43  C34 <0> A   1       3.689  -6.757  -5.099  0.00  0.00    +0.491 C 
ATOM     44  O2  <0> A   1       3.666  -6.057  -6.096  0.00  0.00    -0.681 OA
ATOM     45  O3  <0> A   1       4.213  -7.857  -5.139  0.00  0.00    -0.713 OA
ENDBRANCH  42  43
ENDBRANCH  39  42
ENDBRANCH  38  39
ENDBRANCH  35  38
ENDBRANCH  34  35
ENDBRANCH  33  34
ENDBRANCH   2  33
TORSDOF 13
