REMARK VINA RESULT:      -6.5     18.320     21.541
REMARK  Name = CHEMBL331610
REMARK  16 active torsions:
REMARK  status: ('A' for Active; 'I' for Inactive)
REMARK    1  A    between atoms: C1_1  and  C2_2
REMARK    2  A    between atoms: C2_2  and  C3_3
REMARK    3  A    between atoms: C3_3  and  C4_4
REMARK    4  A    between atoms: C3_3  and  C5_5
REMARK    5  A    between atoms: C3_3  and  C6_6
REMARK    6  A    between atoms: C6_6  and  O2_8
REMARK    7  A    between atoms: O2_8  and  C7_9
REMARK    8  A    between atoms: C8_11  and  C26_37
REMARK    9  A    between atoms: C9_13  and  C25_36
REMARK   10  A    between atoms: C13_18  and  C18_25
REMARK   11  A    between atoms: C14_20  and  C17_24
REMARK   12  A    between atoms: C18_25  and  C19_26
REMARK   13  A    between atoms: C19_26  and  C20_27
REMARK   14  A    between atoms: C22_29  and  O5_35
REMARK   15  A    between atoms: C26_37  and  C27_39
REMARK   16  A    between atoms: C26_37  and  O6_45
REMARK                            x       y       z     vdW  Elec       q    Type
REMARK                         _______ _______ _______ _____ _____    ______ ____
ROOT
ATOM      1  C7  <0> A   1     -29.610  -4.143  53.336  0.00  0.00    +0.201 C 
ATOM      2  C8  <0> A   1     -29.948  -5.626  53.200  0.00  0.00    -0.048 C 
ATOM      3  C9  <0> A   1     -31.063  -5.773  52.156  0.00  0.00    +0.033 C 
ATOM      4  C10 <0> A   1     -30.529  -5.262  50.842  0.00  0.00    -0.039 C 
ATOM      5  C11 <0> A   1     -29.660  -4.270  50.805  0.00  0.00    -0.069 C 
ATOM      6  C12 <0> A   1     -29.179  -3.539  52.021  0.00  0.00    +0.044 C 
ATOM      7  C13 <0> A   1     -27.658  -3.400  51.920  0.00  0.00    +0.011 C 
ATOM      8  C14 <0> A   1     -27.325  -2.565  50.682  0.00  0.00    +0.022 C 
ATOM      9  C15 <0> A   1     -28.042  -3.064  49.466  0.00  0.00    -0.017 C 
ATOM     10  C16 <0> A   1     -29.111  -3.833  49.501  0.00  0.00    -0.011 C 
ATOM     11  C17 <0> A   1     -25.817  -2.626  50.431  0.00  0.00    +0.029 C 
ATOM     12  C25 <0> A   1     -32.282  -4.950  52.577  0.00  0.00    +0.041 C 
ENDROOT
BRANCH   1  13
ATOM     13  O2  <0> A   1     -30.763  -3.445  53.811  0.00  0.00    -0.333 OA
BRANCH  13  14
ATOM     14  C6  <0> A   1     -30.574  -2.561  54.804  0.00  0.00    +0.464 C 
ATOM     15  O1  <0> A   1     -30.493  -2.945  55.947  0.00  0.00    -0.502 OA
BRANCH  14  16
ATOM     16  C3  <0> A   1     -30.462  -1.091  54.493  0.00  0.00    -0.052 C 
ATOM     17  C4  <0> A   1     -28.988  -0.714  54.335  0.00  0.00    +0.060 C 
ATOM     18  C5  <0> A   1     -31.077  -0.280  55.636  0.00  0.00    +0.060 C 
BRANCH  16  20
ATOM     19  C1  <0> A   1     -30.243  -0.163  52.183  0.00  0.00    +0.024 C 
ATOM     20  C2  <0> A   1     -31.209  -0.787  53.192  0.00  0.00    +0.036 C 
ENDBRANCH  16  20
ENDBRANCH  14  16
ENDBRANCH  13  14
ENDBRANCH   1  13
BRANCH   7  21
ATOM     21  C18 <0> A   1     -27.023  -4.786  51.794  0.00  0.00    +0.034 C 
BRANCH  21  22
ATOM     22  C19 <0> A   1     -25.514  -4.679  52.019  0.00  0.00    +0.053 C 
BRANCH  22  23
ATOM     23  C20 <0> A   1     -24.811  -5.857  51.341  0.00  0.00    +0.178 C 
ATOM     24  C21 <0> A   1     -25.693  -6.399  50.213  0.00  0.00    +0.033 C 
ATOM     25  C22 <0> A   1     -25.005  -7.604  49.565  0.00  0.00    +0.181 C 
ATOM     26  C23 <0> A   1     -24.785  -8.683  50.632  0.00  0.00    +0.007 C 
ATOM     27  C24 <0> A   1     -24.083  -8.047  51.813  0.00  0.00    +0.498 C 
ATOM     28  O3  <0> A   1     -23.104  -8.558  52.302  0.00  0.00    -0.454 OA
ATOM     29  O4  <0> A   1     -24.583  -6.894  52.302  0.00  0.00    -0.341 OA
BRANCH  25  30
ATOM     30  O5  <0> A   1     -23.746  -7.201  49.021  0.00  0.00    -0.563 OA
ATOM     31  H35 <0> A   1     -23.167  -7.937  48.781  0.00  0.00    +0.385 HD
ENDBRANCH  25  30
ENDBRANCH  22  23
ENDBRANCH  21  22
ENDBRANCH   7  21
BRANCH   2  32
ATOM     32  C26 <0> A   1     -28.708  -6.398  52.744  0.00  0.00    +0.279 C 
BRANCH  32  33
ATOM     33  C27 <0> A   1     -29.114  -7.772  52.280  0.00  0.00    -0.067 A 
ATOM     34  C28 <0> A   1     -28.668  -8.251  51.062  0.00  0.00    -0.003 A 
ATOM     35  C29 <0> A   1     -29.040  -9.512  50.636  0.00  0.00    +0.005 A 
ATOM     36  C30 <0> A   1     -29.859 -10.295  51.428  0.00  0.00    -0.009 A 
ATOM     37  C31 <0> A   1     -30.305  -9.817  52.646  0.00  0.00    -0.014 A 
ATOM     38  C32 <0> A   1     -29.929  -8.558  53.074  0.00  0.00    +0.014 A 
ENDBRANCH  32  33
BRANCH  32  39
ATOM     39  O6  <0> A   1     -27.792  -6.514  53.835  0.00  0.00    -0.535 OA
ATOM     40  H44 <0> A   1     -27.947  -5.881  54.548  0.00  0.00    +0.364 HD
ENDBRANCH  32  39
ENDBRANCH   2  32
TORSDOF 11
