REMARK VINA RESULT:      -7.4     16.964     20.039
REMARK  Name = CHEMBL168307
REMARK  4 active torsions:
REMARK  status: ('A' for Active; 'I' for Inactive)
REMARK    1  A    between atoms: C1_1  and  C2_2
REMARK    2  A    between atoms: C4_4  and  C21_25
REMARK    3  A    between atoms: C15_15  and  C16_16
REMARK    4  A    between atoms: C18_18  and  O3_24
REMARK                            x       y       z     vdW  Elec       q    Type
REMARK                         _______ _______ _______ _____ _____    ______ ____
ROOT
ATOM      1  C1  <0> A   1     -12.565   8.404  38.786  0.00  0.00    +0.095 C 
ATOM      2  C2  <0> A   1     -12.886   8.727  40.223  0.00  0.00    -0.072 A 
ATOM      3  C3  <0> A   1     -12.932  10.048  40.637  0.00  0.00    +0.012 A 
ATOM      4  C4  <0> A   1     -13.225  10.357  41.950  0.00  0.00    -0.048 A 
ATOM      5  C5  <0> A   1     -13.473   9.337  42.864  0.00  0.00    -0.075 A 
ATOM      6  C6  <0> A   1     -13.426   7.998  42.448  0.00  0.00    -0.039 A 
ATOM      7  C7  <0> A   1     -13.134   7.705  41.115  0.00  0.00    +0.025 A 
ATOM      8  C8  <0> A   1     -13.726   7.129  43.606  0.00  0.00    -0.048 A 
ATOM      9  C9  <0> A   1     -13.805   5.743  43.734  0.00  0.00    +0.032 A 
ATOM     10  C10 <0> A   1     -14.108   5.178  44.956  0.00  0.00    +0.018 A 
ATOM     11  C11 <0> A   1     -14.335   5.979  46.062  0.00  0.00    +0.020 A 
ATOM     12  C12 <0> A   1     -14.260   7.354  45.956  0.00  0.00    +0.039 A 
ATOM     13  C13 <0> A   1     -13.956   7.939  44.730  0.00  0.00    -0.073 A 
ATOM     14  C14 <0> A   1     -13.807   9.351  44.308  0.00  0.00    -0.015 C 
ATOM     15  C15 <0> A   1     -13.947  10.436  45.084  0.00  0.00    +0.030 C 
ATOM     16  C21 <0> A   1     -13.274  11.796  42.393  0.00  0.00    +0.096 C 
ENDROOT
BRANCH  15  17
ATOM     17  C16 <0> A   1     -13.969  10.290  46.584  0.00  0.00    +0.233 C 
ATOM     18  C17 <0> A   1     -14.764  11.446  47.197  0.00  0.00    +0.049 C 
ATOM     19  C18 <0> A   1     -14.749  11.318  48.724  0.00  0.00    +0.189 C 
ATOM     20  C19 <0> A   1     -13.295  11.354  49.212  0.00  0.00    +0.026 C 
ATOM     21  C20 <0> A   1     -12.507  10.326  48.431  0.00  0.00    +0.496 C 
ATOM     22  O1  <0> A   1     -11.789   9.534  48.995  0.00  0.00    -0.449 OA
ATOM     23  O2  <0> A   1     -12.629  10.317  47.087  0.00  0.00    -0.365 OA
BRANCH  19  24
ATOM     24  O3  <0> A   1     -15.355  10.081  49.106  0.00  0.00    -0.565 OA
ATOM     25  H17 <0> A   1     -14.838   9.571  49.745  0.00  0.00    +0.388 HD
ENDBRANCH  19  24
ENDBRANCH  15  17
TORSDOF 2
