REMARK  Name = CHEMBL350895
REMARK  8 active torsions:
REMARK  status: ('A' for Active; 'I' for Inactive)
REMARK    1  A    between atoms: C1_1  and  C2_2
REMARK    2  A    between atoms: C2_2  and  C3_3
REMARK    3  A    between atoms: C4_4  and  C20_22
REMARK    4  A    between atoms: C5_5  and  C14_15
REMARK    5  A    between atoms: C7_7  and  C8_9
REMARK    6  A    between atoms: C20_22  and  C21_23
REMARK    7  A    between atoms: C21_23  and  C22_24
REMARK    8  A    between atoms: C24_26  and  O3_32
REMARK                            x       y       z     vdW  Elec       q    Type
REMARK                         _______ _______ _______ _____ _____    ______ ____
ROOT
ATOM      1  C3  <0> A   1       0.684  -0.512  -1.426  0.00  0.00    +0.150 A 
ATOM      2  C4  <0> A   1      -0.213  -0.601  -2.471  0.00  0.00    -0.120 A 
ATOM      3  C5  <0> A   1       0.221  -1.104  -3.702  0.00  0.00    +0.004 A 
ATOM      4  C6  <0> A   1       1.555  -1.497  -3.823  0.00  0.00    -0.015 A 
ATOM      5  C7  <0> A   1       2.394  -1.375  -2.721  0.00  0.00    +0.174 A 
ATOM      6  N1  <0> A   1       1.939  -0.887  -1.574  0.00  0.00    -0.472 NA
ENDROOT
BRANCH   3   7
ATOM      7  C14 <0> A   1      -0.713  -1.216  -4.850  0.00  0.00    -0.061 A 
ATOM      8  C15 <0> A   1      -1.890  -1.951  -4.723  0.00  0.00    +0.065 A 
ATOM      9  C16 <0> A   1      -2.755  -2.053  -5.793  0.00  0.00    -0.010 A 
ATOM     10  C17 <0> A   1      -2.455  -1.426  -6.992  0.00  0.00    +0.107 A 
ATOM     11  C18 <0> A   1      -1.286  -0.694  -7.122  0.00  0.00    -0.011 A 
ATOM     12  C19 <0> A   1      -0.418  -0.582  -6.055  0.00  0.00    +0.062 A 
ATOM     13  F1  <0> A   1      -3.304  -1.530  -8.037  0.00  0.00    -0.136 F 
ENDBRANCH   3   7
BRANCH   5  14
ATOM     14  C8  <0> A   1       3.815  -1.788  -2.831  0.00  0.00    -0.051 A 
ATOM     15  C9  <0> A   1       4.306  -2.292  -4.034  0.00  0.00    +0.024 A 
ATOM     16  C10 <0> A   1       5.628  -2.675  -4.131  0.00  0.00    +0.003 A 
ATOM     17  C11 <0> A   1       6.466  -2.561  -3.036  0.00  0.00    +0.016 A 
ATOM     18  C12 <0> A   1       5.984  -2.062  -1.839  0.00  0.00    +0.001 A 
ATOM     19  C13 <0> A   1       4.665  -1.670  -1.733  0.00  0.00    +0.056 A 
ENDBRANCH   5  14
BRANCH   1  21
ATOM     20  C1  <0> A   1       0.503   1.532  -0.033  0.00  0.00    +0.034 C 
ATOM     21  C2  <0> A   1       0.223   0.029  -0.097  0.00  0.00    +0.090 C 
ENDBRANCH   1  21
BRANCH   2  22
ATOM     22  C20 <0> A   1      -1.643  -0.163  -2.288  0.00  0.00    +0.086 C 
BRANCH  22  23
ATOM     23  C21 <0> A   1      -1.797   1.285  -2.759  0.00  0.00    +0.059 C 
BRANCH  23  24
ATOM     24  C22 <0> A   1      -3.242   1.740  -2.543  0.00  0.00    +0.198 C 
ATOM     25  C23 <0> A   1      -3.427   3.145  -3.123  0.00  0.00    +0.040 C 
ATOM     26  C24 <0> A   1      -4.863   3.614  -2.869  0.00  0.00    +0.184 C 
ATOM     27  C25 <0> A   1      -5.121   3.625  -1.357  0.00  0.00    +0.021 C 
ATOM     28  C26 <0> A   1      -4.734   2.272  -0.799  0.00  0.00    +0.496 C 
ATOM     29  O1  <0> A   1      -5.480   1.665  -0.069  0.00  0.00    -0.452 OA
ATOM     30  O2  <0> A   1      -3.531   1.765  -1.141  0.00  0.00    -0.366 OA
BRANCH  26  31
ATOM     31  O3  <0> A   1      -5.778   2.721  -3.506  0.00  0.00    -0.563 OA
ATOM     32  H26 <0> A   1      -6.708   2.958  -3.386  0.00  0.00    +0.387 HD
ENDBRANCH  26  31
ENDBRANCH  23  24
ENDBRANCH  22  23
ENDBRANCH   2  22
TORSDOF 7
