REMARK VINA RESULT:      -7.6     10.395     16.264
REMARK  Name = CHEMBL262322
REMARK  16 active torsions:
REMARK  status: ('A' for Active; 'I' for Inactive)
REMARK    1  A    between atoms: C1_1  and  C2_2
REMARK    2  A    between atoms: C2_2  and  C3_3
REMARK    3  A    between atoms: C2_2  and  N1_4
REMARK    4  A    between atoms: C4_5  and  C26_31
REMARK    5  A    between atoms: C5_6  and  C20_24
REMARK    6  A    between atoms: C6_7  and  C15_18
REMARK    7  A    between atoms: C7_8  and  C8_9
REMARK    8  A    between atoms: N2_11  and  C9_12
REMARK    9  A    between atoms: C26_31  and  C27_32
REMARK   10  A    between atoms: C27_32  and  C28_33
REMARK   11  A    between atoms: C28_33  and  C29_35
REMARK   12  A    between atoms: C28_33  and  O5_43
REMARK   13  A    between atoms: C29_35  and  C30_36
REMARK   14  A    between atoms: C30_36  and  C31_38
REMARK   15  A    between atoms: C30_36  and  O4_42
REMARK   16  A    between atoms: C31_38  and  C32_39
REMARK                            x       y       z     vdW  Elec       q    Type
REMARK                         _______ _______ _______ _____ _____    ______ ____
ROOT
ATOM      1  N1  <0> A   1     -24.164  -2.795  51.739  0.00  0.00    -0.394 N 
ATOM      2  C4  <0> A   1     -24.776  -1.593  51.875  0.00  0.00    +0.070 C 
ATOM      3  C5  <0> A   1     -26.080  -1.713  51.495  0.00  0.00    -0.097 C 
ATOM      4  C6  <0> A   1     -26.287  -3.060  51.104  0.00  0.00    -0.059 C 
ATOM      5  C7  <0> A   1     -25.070  -3.711  51.262  0.00  0.00    -0.028 C 
ENDROOT
BRANCH   3   6
ATOM      6  C20 <0> A   1     -27.095  -0.632  51.493  0.00  0.00    +0.006 A 
ATOM      7  C21 <0> A   1     -27.159   0.265  50.428  0.00  0.00    +0.046 A 
ATOM      8  C22 <0> A   1     -28.106   1.269  50.431  0.00  0.00    -0.021 A 
ATOM      9  C23 <0> A   1     -28.992   1.387  51.490  0.00  0.00    +0.094 A 
ATOM     10  C24 <0> A   1     -28.932   0.497  52.550  0.00  0.00    -0.022 A 
ATOM     11  C25 <0> A   1     -27.993  -0.514  52.553  0.00  0.00    +0.071 A 
ATOM     12  F1  <0> A   1     -29.917   2.372  51.488  0.00  0.00    -0.144 F 
ENDBRANCH   3   6
BRANCH   4  13
ATOM     13  C15 <0> A   1     -27.552  -3.655  50.616  0.00  0.00    +0.202 A 
ATOM     14  C16 <0> A   1     -27.940  -3.463  49.290  0.00  0.00    -0.046 A 
ATOM     15  C17 <0> A   1     -29.124  -4.026  48.848  0.00  0.00    +0.063 A 
ATOM     16  C18 <0> A   1     -29.883  -4.764  49.746  0.00  0.00    -0.047 A 
ATOM     17  C19 <0> A   1     -29.438  -4.914  51.047  0.00  0.00    +0.263 A 
ATOM     18  N3  <0> A   1     -28.304  -4.373  51.441  0.00  0.00    -0.460 NA
ENDBRANCH   4  13
BRANCH   5  19
ATOM     19  C8  <0> A   1     -24.801  -5.123  50.975  0.00  0.00    +0.604 C 
ATOM     20  O1  <0> A   1     -24.093  -5.428  50.032  0.00  0.00    -0.496 OA
ATOM     21  N2  <0> A   1     -25.337  -6.084  51.753  0.00  0.00    -0.667 N 
ATOM     22  H10 <0> A   1     -25.981  -5.849  52.439  0.00  0.00    +0.415 HD
BRANCH  21  23
ATOM     23  C9  <0> A   1     -24.964  -7.419  51.572  0.00  0.00    +0.144 A 
ATOM     24  C10 <0> A   1     -25.748  -8.262  50.795  0.00  0.00    +0.011 A 
ATOM     25  C11 <0> A   1     -25.377  -9.580  50.618  0.00  0.00    +0.028 A 
ATOM     26  C12 <0> A   1     -24.225 -10.062  51.215  0.00  0.00    -0.010 A 
ATOM     27  C13 <0> A   1     -23.443  -9.225  51.990  0.00  0.00    +0.027 A 
ATOM     28  C14 <0> A   1     -23.805  -7.904  52.164  0.00  0.00    -0.017 A 
ENDBRANCH  21  23
ENDBRANCH   5  19
BRANCH   1  30
ATOM     29  C1  <0> A   1     -21.883  -2.632  50.872  0.00  0.00    +0.043 C 
ATOM     30  C2  <0> A   1     -22.759  -3.070  52.048  0.00  0.00    +0.231 C 
ATOM     31  C3  <0> A   1     -22.351  -2.294  53.303  0.00  0.00    +0.047 C 
ENDBRANCH   1  30
BRANCH   2  32
ATOM     32  C26 <0> A   1     -24.120  -0.329  52.366  0.00  0.00    +0.121 C 
BRANCH  32  33
ATOM     33  C27 <0> A   1     -23.615   0.482  51.170  0.00  0.00    -0.007 C 
BRANCH  33  34
ATOM     34  C28 <0> A   1     -22.627   1.545  51.655  0.00  0.00    +0.213 C 
BRANCH  34  35
ATOM     35  O5  <0> A   1     -21.407   0.915  52.053  0.00  0.00    -0.542 OA
ATOM     36  H33 <0> A   1     -21.342   0.750  53.003  0.00  0.00    +0.363 HD
ENDBRANCH  34  35
BRANCH  34  37
ATOM     37  C29 <0> A   1     -22.345   2.533  50.522  0.00  0.00    -0.051 C 
BRANCH  37  38
ATOM     38  C30 <0> A   1     -21.096   3.351  50.858  0.00  0.00    +0.231 C 
BRANCH  38  39
ATOM     39  O4  <0> A   1     -19.999   2.893  50.065  0.00  0.00    -0.528 OA
ATOM     40  H32 <0> A   1     -19.905   3.353  49.220  0.00  0.00    +0.349 HD
ENDBRANCH  38  39
BRANCH  38  41
ATOM     41  C31 <0> A   1     -21.360   4.829  50.558  0.00  0.00    -0.103 C 
BRANCH  41  42
ATOM     42  C32 <0> A   1     -20.524   5.258  49.380  0.00  0.00    +0.490 C 
ATOM     43  O2  <0> A   1     -20.993   5.227  48.256  0.00  0.00    -0.681 OA
ATOM     44  O3  <0> A   1     -19.378   5.636  49.553  0.00  0.00    -0.713 OA
ENDBRANCH  41  42
ENDBRANCH  38  41
ENDBRANCH  37  38
ENDBRANCH  34  37
ENDBRANCH  33  34
ENDBRANCH  32  33
ENDBRANCH   2  32
TORSDOF 14
