REMARK  Name = CHEMBL63265
REMARK  13 active torsions:
REMARK  status: ('A' for Active; 'I' for Inactive)
REMARK    1  A    between atoms: C1_1  and  C2_2
REMARK    2  A    between atoms: C2_2  and  C3_3
REMARK    3  A    between atoms: C2_2  and  C4_4
REMARK    4  A    between atoms: C5_5  and  C19_22
REMARK    5  A    between atoms: C6_6  and  C13_15
REMARK    6  A    between atoms: N1_7  and  C7_9
REMARK    7  A    between atoms: C20_23  and  C21_24
REMARK    8  A    between atoms: C21_24  and  C22_25
REMARK    9  A    between atoms: C21_24  and  O4_33
REMARK   10  A    between atoms: C22_25  and  C23_26
REMARK   11  A    between atoms: C23_26  and  C24_28
REMARK   12  A    between atoms: C23_26  and  O3_32
REMARK   13  A    between atoms: C24_28  and  C25_29
REMARK                            x       y       z     vdW  Elec       q    Type
REMARK                         _______ _______ _______ _____ _____    ______ ____
ROOT
ATOM      1  C4  <0> A   1      -1.412  -0.526   0.013  0.00  0.00    +0.105 C 
ATOM      2  C5  <0> A   1      -1.993  -1.346  -0.974  0.00  0.00    -0.165 C 
ATOM      3  C6  <0> A   1      -3.304  -1.596  -0.582  0.00  0.00    +0.126 C 
ATOM      4  N1  <0> A   1      -3.496  -0.944   0.602  0.00  0.00    -0.319 N 
ATOM      5  N2  <0> A   1      -2.302  -0.297   0.941  0.00  0.00    -0.276 NA
ENDROOT
BRANCH   3   6
ATOM      6  C13 <0> A   1      -4.298  -2.411  -1.308  0.00  0.00    -0.049 A 
ATOM      7  C14 <0> A   1      -4.450  -2.265  -2.688  0.00  0.00    +0.090 A 
ATOM      8  C15 <0> A   1      -5.380  -3.029  -3.361  0.00  0.00    -0.006 A 
ATOM      9  C16 <0> A   1      -6.164  -3.939  -2.670  0.00  0.00    +0.113 A 
ATOM     10  C17 <0> A   1      -6.018  -4.088  -1.300  0.00  0.00    -0.013 A 
ATOM     11  C18 <0> A   1      -5.087  -3.334  -0.617  0.00  0.00    +0.062 A 
ATOM     12  F1  <0> A   1      -7.075  -4.684  -3.334  0.00  0.00    -0.135 F 
ENDBRANCH   3   6
BRANCH   4  13
ATOM     13  C7  <0> A   1      -4.680  -0.928   1.350  0.00  0.00    +0.155 A 
ATOM     14  C8  <0> A   1      -5.910  -0.939   0.705  0.00  0.00    +0.005 A 
ATOM     15  C9  <0> A   1      -7.076  -0.924   1.446  0.00  0.00    +0.034 A 
ATOM     16  C10 <0> A   1      -7.019  -0.898   2.827  0.00  0.00    +0.007 A 
ATOM     17  C11 <0> A   1      -5.796  -0.887   3.472  0.00  0.00    +0.030 A 
ATOM     18  C12 <0> A   1      -4.627  -0.908   2.737  0.00  0.00    +0.021 A 
ENDBRANCH   4  13
BRANCH   1  20
ATOM     19  C1  <0> A   1      -0.019   1.526   0.010  0.00  0.00    +0.036 C 
ATOM     20  C2  <0> A   1       0.002  -0.004   0.002  0.00  0.00    +0.079 C 
ATOM     21  C3  <0> A   1       0.742  -0.511   1.242  0.00  0.00    +0.036 C 
ENDBRANCH   1  20
BRANCH   2  22
ATOM     22  C19 <0> A   1      -1.334  -1.847  -2.196  0.00  0.00    +0.040 C 
ATOM     23  C20 <0> A   1      -1.392  -3.138  -2.500  0.00  0.00    -0.056 C 
BRANCH  23  24
ATOM     24  C21 <0> A   1      -0.719  -3.649  -3.747  0.00  0.00    +0.250 C 
BRANCH  24  25
ATOM     25  O4  <0> A   1       0.006  -2.585  -4.367  0.00  0.00    -0.539 OA
ATOM     26  H26 <0> A   1       0.696  -2.201  -3.809  0.00  0.00    +0.366 HD
ENDBRANCH  24  25
BRANCH  24  27
ATOM     27  C22 <0> A   1       0.246  -4.778  -3.380  0.00  0.00    -0.042 C 
BRANCH  27  28
ATOM     28  C23 <0> A   1       0.836  -5.380  -4.657  0.00  0.00    +0.230 C 
BRANCH  28  29
ATOM     29  O3  <0> A   1       1.636  -4.400  -5.321  0.00  0.00    -0.528 OA
ATOM     30  H25 <0> A   1       2.376  -4.073  -4.792  0.00  0.00    +0.350 HD
ENDBRANCH  28  29
BRANCH  28  31
ATOM     31  C24 <0> A   1       1.703  -6.588  -4.297  0.00  0.00    -0.102 C 
BRANCH  31  32
ATOM     32  C25 <0> A   1       2.184  -7.255  -5.560  0.00  0.00    +0.491 C 
ATOM     33  O1  <0> A   1       1.863  -6.806  -6.647  0.00  0.00    -0.681 OA
ATOM     34  O2  <0> A   1       2.894  -8.244  -5.495  0.00  0.00    -0.714 OA
ENDBRANCH  31  32
ENDBRANCH  28  31
ENDBRANCH  27  28
ENDBRANCH  24  27
ENDBRANCH  23  24
ENDBRANCH   2  22
TORSDOF 11
