REMARK VINA RESULT:      -7.4      2.230      4.299
REMARK  Name = CHEMBL318102
REMARK  13 active torsions:
REMARK  status: ('A' for Active; 'I' for Inactive)
REMARK    1  A    between atoms: C1_1  and  C2_2
REMARK    2  A    between atoms: C2_2  and  C3_3
REMARK    3  A    between atoms: C2_2  and  C4_4
REMARK    4  A    between atoms: C4_4  and  C18_20
REMARK    5  A    between atoms: C5_5  and  C6_6
REMARK    6  A    between atoms: C5_5  and  C12_13
REMARK    7  A    between atoms: C19_21  and  C20_22
REMARK    8  A    between atoms: C20_22  and  C21_24
REMARK    9  A    between atoms: C20_22  and  O4_32
REMARK   10  A    between atoms: C21_24  and  C22_25
REMARK   11  A    between atoms: C22_25  and  C23_27
REMARK   12  A    between atoms: C22_25  and  O3_31
REMARK   13  A    between atoms: C23_27  and  C24_28
REMARK                            x       y       z     vdW  Elec       q    Type
REMARK                         _______ _______ _______ _____ _____    ______ ____
ROOT
ATOM      1  C4  <0> A   1     -13.560   9.181  45.222  0.00  0.00    -0.029 C 
ATOM      2  C5  <0> A   1     -14.179   8.445  46.183  0.00  0.00    -0.073 C 
ENDROOT
BRANCH   2   3
ATOM      3  C6  <0> A   1     -14.665   7.083  45.873  0.00  0.00    -0.043 A 
ATOM      4  C7  <0> A   1     -13.802   5.991  45.972  0.00  0.00    +0.057 A 
ATOM      5  C8  <0> A   1     -14.262   4.723  45.681  0.00  0.00    -0.011 A 
ATOM      6  C9  <0> A   1     -15.577   4.534  45.289  0.00  0.00    +0.099 A 
ATOM      7  C10 <0> A   1     -16.438   5.615  45.187  0.00  0.00    -0.017 A 
ATOM      8  C11 <0> A   1     -15.991   6.886  45.483  0.00  0.00    +0.054 A 
ATOM      9  F1  <0> A   1     -16.022   3.290  45.004  0.00  0.00    -0.140 F 
ENDBRANCH   2   3
BRANCH   2  10
ATOM     10  C12 <0> A   1     -14.366   9.006  47.538  0.00  0.00    -0.039 A 
ATOM     11  C13 <0> A   1     -15.505   9.760  47.833  0.00  0.00    +0.055 A 
ATOM     12  C14 <0> A   1     -15.674  10.282  49.098  0.00  0.00    -0.016 A 
ATOM     13  C15 <0> A   1     -14.718  10.059  50.076  0.00  0.00    +0.095 A 
ATOM     14  C16 <0> A   1     -13.587   9.312  49.789  0.00  0.00    -0.016 A 
ATOM     15  C17 <0> A   1     -13.410   8.780  48.529  0.00  0.00    +0.057 A 
ATOM     16  F2  <0> A   1     -14.890  10.572  51.315  0.00  0.00    -0.141 F 
ENDBRANCH   2  10
BRANCH   1  18
ATOM     17  C1  <0> A   1     -11.544  10.541  45.708  0.00  0.00    +0.027 C 
ATOM     18  C2  <0> A   1     -13.065  10.569  45.538  0.00  0.00    +0.017 C 
ATOM     19  C3  <0> A   1     -13.433  11.515  44.393  0.00  0.00    +0.027 C 
ENDBRANCH   1  18
BRANCH   1  20
ATOM     20  C18 <0> A   1     -13.375   8.625  43.882  0.00  0.00    -0.007 C 
ATOM     21  C19 <0> A   1     -12.191   8.123  43.527  0.00  0.00    -0.035 C 
BRANCH  21  22
ATOM     22  C20 <0> A   1     -11.969   7.643  42.116  0.00  0.00    +0.245 C 
BRANCH  22  23
ATOM     23  O4  <0> A   1     -11.880   6.216  42.106  0.00  0.00    -0.537 OA
ATOM     24  H25 <0> A   1     -12.647   5.773  42.493  0.00  0.00    +0.365 HD
ENDBRANCH  22  23
BRANCH  22  25
ATOM     25  C21 <0> A   1     -13.139   8.087  41.235  0.00  0.00    -0.040 C 
BRANCH  25  26
ATOM     26  C22 <0> A   1     -12.680   9.210  40.304  0.00  0.00    +0.231 C 
BRANCH  26  27
ATOM     27  O3  <0> A   1     -13.156   8.958  38.981  0.00  0.00    -0.527 OA
ATOM     28  H24 <0> A   1     -14.091   8.717  38.939  0.00  0.00    +0.350 HD
ENDBRANCH  26  27
BRANCH  26  29
ATOM     29  C23 <0> A   1     -13.238  10.545  40.801  0.00  0.00    -0.102 C 
BRANCH  29  30
ATOM     30  C24 <0> A   1     -13.955  11.241  39.672  0.00  0.00    +0.490 C 
ATOM     31  O1  <0> A   1     -13.323  11.896  38.861  0.00  0.00    -0.681 OA
ATOM     32  O2  <0> A   1     -15.166  11.150  39.571  0.00  0.00    -0.713 OA
ENDBRANCH  29  30
ENDBRANCH  26  29
ENDBRANCH  25  26
ENDBRANCH  22  25
ENDBRANCH  21  22
ENDBRANCH   1  20
TORSDOF 11
