REMARK VINA RESULT:      -7.1     15.997     19.929
REMARK  Name = CHEMBL253054
REMARK  16 active torsions:
REMARK  status: ('A' for Active; 'I' for Inactive)
REMARK    1  A    between atoms: C1_1  and  C2_2
REMARK    2  A    between atoms: C2_2  and  C3_3
REMARK    3  A    between atoms: C2_2  and  C4_4
REMARK    4  A    between atoms: C5_5  and  S1_35
REMARK    5  A    between atoms: C6_6  and  C21_29
REMARK    6  A    between atoms: C7_7  and  C15_22
REMARK    7  A    between atoms: N1_8  and  C8_9
REMARK    8  A    between atoms: C8_9  and  C9_10
REMARK    9  A    between atoms: C9_10  and  C10_11
REMARK   10  A    between atoms: C10_11  and  C11_13
REMARK   11  A    between atoms: C10_11  and  O4_21
REMARK   12  A    between atoms: C11_13  and  C12_14
REMARK   13  A    between atoms: C12_14  and  C13_16
REMARK   14  A    between atoms: C12_14  and  O3_20
REMARK   15  A    between atoms: C13_16  and  C14_17
REMARK   16  A    between atoms: S1_35  and  N2_38
REMARK                            x       y       z     vdW  Elec       q    Type
REMARK                         _______ _______ _______ _____ _____    ______ ____
ROOT
ATOM      1  C4  <0> A   1     -24.860  -2.793  51.968  0.00  0.00    +0.173 C 
ATOM      2  C5  <0> A   1     -25.953  -2.172  52.454  0.00  0.00    -0.737 C 
ATOM      3  C6  <0> A   1     -27.076  -2.979  52.150  0.00  0.00    -0.022 C 
ATOM      4  C7  <0> A   1     -26.599  -4.088  51.471  0.00  0.00    +0.059 C 
ATOM      5  N1  <0> A   1     -25.240  -3.955  51.364  0.00  0.00    -0.412 N 
ENDROOT
BRANCH   4   6
ATOM      6  C15 <0> A   1     -27.411  -5.208  50.953  0.00  0.00    -0.027 A 
ATOM      7  C16 <0> A   1     -27.788  -6.251  51.801  0.00  0.00    +0.045 A 
ATOM      8  C17 <0> A   1     -28.547  -7.294  51.311  0.00  0.00    -0.008 A 
ATOM      9  C18 <0> A   1     -28.933  -7.308  49.980  0.00  0.00    +0.105 A 
ATOM     10  C19 <0> A   1     -28.561  -6.275  49.134  0.00  0.00    -0.008 A 
ATOM     11  C20 <0> A   1     -27.809  -5.224  49.613  0.00  0.00    +0.074 A 
ATOM     12  F1  <0> A   1     -29.674  -8.333  49.507  0.00  0.00    -0.137 F 
ENDBRANCH   4   6
BRANCH   3  13
ATOM     13  C21 <0> A   1     -28.488  -2.691  52.491  0.00  0.00    -0.034 A 
ATOM     14  C22 <0> A   1     -29.203  -1.737  51.767  0.00  0.00    +0.061 A 
ATOM     15  C23 <0> A   1     -30.519  -1.474  52.089  0.00  0.00    -0.000 A 
ATOM     16  C24 <0> A   1     -31.129  -2.153  53.128  0.00  0.00    +0.003 A 
ATOM     17  C25 <0> A   1     -30.425  -3.100  53.850  0.00  0.00    -0.009 A 
ATOM     18  C26 <0> A   1     -29.110  -3.377  53.534  0.00  0.00    +0.017 A 
ENDBRANCH   3  13
BRANCH   1  20
ATOM     19  C1  <0> A   1     -22.534  -3.402  52.574  0.00  0.00    +0.040 C 
ATOM     20  C2  <0> A   1     -23.446  -2.281  52.071  0.00  0.00    +0.059 C 
ATOM     21  C3  <0> A   1     -22.970  -1.816  50.693  0.00  0.00    +0.039 C 
ENDBRANCH   1  20
BRANCH   2  22
ATOM     22  S1  <0> A   1     -25.980  -0.634  53.314  0.00  0.00    +2.731 S 
ATOM     23  O5  <0> A   1     -26.974  -0.750  54.321  0.00  0.00    -0.945 OA
ATOM     24  O6  <0> A   1     -24.628  -0.312  53.610  0.00  0.00    -0.960 OA
BRANCH  22  25
ATOM     25  N2  <0> A   1     -26.517   0.513  52.247  0.00  0.00    -1.039 NA
ATOM     26  C27 <0> A   1     -27.511   1.597  52.269  0.00  0.00    +0.286 C 
ATOM     27  C28 <0> A   1     -27.644   1.433  50.749  0.00  0.00    +0.030 C 
ATOM     28  C29 <0> A   1     -26.206   0.900  50.862  0.00  0.00    +0.290 C 
ENDBRANCH  22  25
ENDBRANCH   2  22
BRANCH   5  29
ATOM     29  C8  <0> A   1     -24.340  -4.908  50.710  0.00  0.00    +0.294 C 
BRANCH  29  30
ATOM     30  C9  <0> A   1     -24.278  -6.198  51.530  0.00  0.00    -0.015 C 
BRANCH  30  31
ATOM     31  C10 <0> A   1     -24.518  -7.398  50.613  0.00  0.00    +0.218 C 
BRANCH  31  32
ATOM     32  O4  <0> A   1     -24.062  -7.089  49.294  0.00  0.00    -0.540 OA
ATOM     33  H19 <0> A   1     -23.995  -7.859  48.711  0.00  0.00    +0.366 HD
ENDBRANCH  31  32
BRANCH  31  34
ATOM     34  C11 <0> A   1     -23.751  -8.610  51.147  0.00  0.00    -0.047 C 
BRANCH  34  35
ATOM     35  C12 <0> A   1     -24.506  -9.890  50.787  0.00  0.00    +0.232 C 
BRANCH  35  36
ATOM     36  O3  <0> A   1     -25.837  -9.561  50.382  0.00  0.00    -0.528 OA
ATOM     37  H18 <0> A   1     -25.887  -8.819  49.765  0.00  0.00    +0.350 HD
ENDBRANCH  35  36
BRANCH  35  38
ATOM     38  C13 <0> A   1     -23.786 -10.602  49.640  0.00  0.00    -0.102 C 
BRANCH  38  39
ATOM     39  C14 <0> A   1     -24.633 -10.534  48.395  0.00  0.00    +0.491 C 
ATOM     40  O1  <0> A   1     -24.599  -9.541  47.688  0.00  0.00    -0.681 OA
ATOM     41  O2  <0> A   1     -25.353 -11.471  48.096  0.00  0.00    -0.712 OA
ENDBRANCH  38  39
ENDBRANCH  35  38
ENDBRANCH  34  35
ENDBRANCH  31  34
ENDBRANCH  30  31
ENDBRANCH  29  30
ENDBRANCH   5  29
TORSDOF 14
