REMARK  Name = CHEMBL124769
REMARK  12 active torsions:
REMARK  status: ('A' for Active; 'I' for Inactive)
REMARK    1  A    between atoms: C4_4  and  C7_7
REMARK    2  A    between atoms: C8_8  and  C9_9
REMARK    3  A    between atoms: C9_9  and  C10_10
REMARK    4  A    between atoms: N2_17  and  C24_32
REMARK    5  A    between atoms: C16_18  and  C17_19
REMARK    6  A    between atoms: C18_20  and  C19_21
REMARK    7  A    between atoms: C19_21  and  C20_23
REMARK    8  A    between atoms: C19_21  and  O4_31
REMARK    9  A    between atoms: C20_23  and  C21_24
REMARK   10  A    between atoms: C21_24  and  C22_26
REMARK   11  A    between atoms: C21_24  and  O3_30
REMARK   12  A    between atoms: C22_26  and  C23_27
REMARK                            x       y       z     vdW  Elec       q    Type
REMARK                         _______ _______ _______ _____ _____    ______ ____
ROOT
ATOM      1  C10 <0> A   1       5.089  -3.720   1.113  0.00  0.00    +0.091 C 
ATOM      2  C11 <0> A   1       6.463  -4.400   1.155  0.00  0.00    +0.030 C 
ATOM      3  C12 <0> A   1       6.443  -5.542   2.173  0.00  0.00    +0.017 C 
ATOM      4  C13 <0> A   1       5.601  -6.704   1.630  0.00  0.00    +0.105 C 
ATOM      5  C14 <0> A   1       4.275  -6.150   1.171  0.00  0.00    -0.212 C 
ATOM      6  C15 <0> A   1       4.038  -4.790   0.936  0.00  0.00    +0.096 C 
ATOM      7  N1  <0> A   1       2.799  -4.643   0.556  0.00  0.00    -0.279 NA
ATOM      8  N2  <0> A   1       2.184  -5.902   0.527  0.00  0.00    -0.328 N 
ATOM      9  C16 <0> A   1       3.114  -6.832   0.912  0.00  0.00    +0.127 C 
ENDROOT
BRANCH   8  10
ATOM     10  C24 <0> A   1       0.855  -6.164   0.170  0.00  0.00    +0.148 A 
ATOM     11  C25 <0> A   1       0.533  -7.336  -0.501  0.00  0.00    +0.049 A 
ATOM     12  C26 <0> A   1      -0.778  -7.592  -0.853  0.00  0.00    +0.018 A 
ATOM     13  C27 <0> A   1      -1.771  -6.681  -0.537  0.00  0.00    +0.098 A 
ATOM     14  C28 <0> A   1      -1.452  -5.511   0.132  0.00  0.00    +0.008 A 
ATOM     15  C29 <0> A   1      -0.144  -5.253   0.490  0.00  0.00    +0.054 A 
ATOM     16  F1  <0> A   1      -3.053  -6.933  -0.881  0.00  0.00    -0.134 F 
ENDBRANCH   8  10
BRANCH   9  17
ATOM     17  C17 <0> A   1       2.906  -8.285   1.026  0.00  0.00    +0.027 C 
ATOM     18  C18 <0> A   1       1.863  -8.756   1.701  0.00  0.00    -0.027 C 
BRANCH  18  19
ATOM     19  C19 <0> A   1       1.650 -10.243   1.817  0.00  0.00    +0.255 C 
BRANCH  19  20
ATOM     20  O4  <0> A   1       2.754 -10.930   1.224  0.00  0.00    -0.536 OA
ATOM     21  H26 <0> A   1       3.607 -10.731   1.634  0.00  0.00    +0.368 HD
ENDBRANCH  19  20
BRANCH  19  22
ATOM     22  C20 <0> A   1       1.543 -10.629   3.294  0.00  0.00    -0.040 C 
BRANCH  22  23
ATOM     23  C21 <0> A   1       1.203 -12.117   3.409  0.00  0.00    +0.232 C 
BRANCH  23  24
ATOM     24  O3  <0> A   1       2.286 -12.894   2.893  0.00  0.00    -0.528 OA
ATOM     25  H25 <0> A   1       3.124 -12.756   3.354  0.00  0.00    +0.351 HD
ENDBRANCH  23  24
BRANCH  23  26
ATOM     26  C22 <0> A   1       0.973 -12.475   4.878  0.00  0.00    -0.101 C 
BRANCH  26  27
ATOM     27  C23 <0> A   1       0.519 -13.909   4.981  0.00  0.00    +0.491 C 
ATOM     28  O1  <0> A   1       0.392 -14.581   3.972  0.00  0.00    -0.681 OA
ATOM     29  O2  <0> A   1       0.280 -14.396   6.072  0.00  0.00    -0.712 OA
ENDBRANCH  26  27
ENDBRANCH  23  26
ENDBRANCH  22  23
ENDBRANCH  19  22
ENDBRANCH  18  19
ENDBRANCH   9  17
BRANCH   1  30
ATOM     30  C9  <0> A   1       5.033  -2.743  -0.063  0.00  0.00    +0.069 C 
BRANCH  30  32
ATOM     31  C7  <0> A   1       3.695  -0.685  -0.038  0.00  0.00    -0.024 C 
ATOM     32  C8  <0> A   1       3.716  -2.010  -0.046  0.00  0.00    +0.004 C 
BRANCH  31  36
ATOM     33  C1  <0> A   1      -0.017   1.379   0.010  0.00  0.00    -0.006 A 
ATOM     34  C2  <0> A   1       1.168   2.093   0.002  0.00  0.00    +0.001 A 
ATOM     35  C3  <0> A   1       2.377   1.429  -0.013  0.00  0.00    +0.006 A 
ATOM     36  C4  <0> A   1       2.403   0.034  -0.021  0.00  0.00    -0.048 A 
ATOM     37  C5  <0> A   1       1.204  -0.681  -0.013  0.00  0.00    +0.010 A 
ATOM     38  C6  <0> A   1       0.002  -0.004   0.002  0.00  0.00    +0.004 A 
ENDBRANCH  31  36
ENDBRANCH  30  32
ENDBRANCH   1  30
TORSDOF 12
