REMARK VINA RESULT:      -7.9      2.481      5.083
REMARK  Name = CHEMBL82467
REMARK  16 active torsions:
REMARK  status: ('A' for Active; 'I' for Inactive)
REMARK    1  A    between atoms: C1_1  and  C2_2
REMARK    2  A    between atoms: C2_2  and  C3_3
REMARK    3  A    between atoms: C3_3  and  C4_4
REMARK    4  A    between atoms: C3_3  and  C5_5
REMARK    5  A    between atoms: C3_3  and  C6_6
REMARK    6  A    between atoms: C6_6  and  O2_8
REMARK    7  A    between atoms: O2_8  and  C7_9
REMARK    8  A    between atoms: C9_12  and  C24_35
REMARK    9  A    between atoms: C9_12  and  C25_36
REMARK   10  A    between atoms: C12_17  and  C17_24
REMARK   11  A    between atoms: C13_19  and  C16_23
REMARK   12  A    between atoms: C17_24  and  C18_25
REMARK   13  A    between atoms: C18_25  and  C19_26
REMARK   14  A    between atoms: C21_28  and  O6_34
REMARK   15  A    between atoms: C25_36  and  S1_37
REMARK   16  A    between atoms: S1_37  and  C26_38
REMARK                            x       y       z     vdW  Elec       q    Type
REMARK                         _______ _______ _______ _____ _____    ______ ____
ROOT
ATOM      1  C7  <0> A   1     -27.879  -4.914  52.461  0.00  0.00    +0.187 C 
ATOM      2  C8  <0> A   1     -28.172  -5.825  51.283  0.00  0.00    +0.020 C 
ATOM      3  C9  <0> A   1     -28.736  -5.101  50.065  0.00  0.00    +0.156 C 
ATOM      4  O3  <0> A   1     -28.017  -3.898  49.801  0.00  0.00    -0.345 OA
ATOM      5  C10 <0> A   1     -27.974  -2.973  50.877  0.00  0.00    +0.161 C 
ATOM      6  C11 <0> A   1     -27.263  -3.574  52.078  0.00  0.00    -0.013 C 
ATOM      7  C12 <0> A   1     -25.757  -3.660  51.917  0.00  0.00    +0.001 C 
ATOM      8  C13 <0> A   1     -25.178  -2.303  51.510  0.00  0.00    -0.013 C 
ATOM      9  C14 <0> A   1     -25.838  -1.823  50.218  0.00  0.00    +0.007 C 
ATOM     10  C15 <0> A   1     -27.338  -1.655  50.444  0.00  0.00    +0.041 C 
ATOM     11  C16 <0> A   1     -23.669  -2.438  51.294  0.00  0.00    +0.018 C 
ATOM     12  C24 <0> A   1     -30.224  -4.812  50.260  0.00  0.00    +0.042 C 
ENDROOT
BRANCH   1  13
ATOM     13  O2  <0> A   1     -29.083  -4.685  53.208  0.00  0.00    -0.346 OA
BRANCH  13  14
ATOM     14  C6  <0> A   1     -29.565  -5.717  53.919  0.00  0.00    +0.469 C 
ATOM     15  O1  <0> A   1     -28.811  -6.426  54.542  0.00  0.00    -0.502 OA
BRANCH  14  16
ATOM     16  C3  <0> A   1     -31.047  -5.989  53.942  0.00  0.00    -0.052 C 
ATOM     17  C4  <0> A   1     -31.805  -4.711  53.577  0.00  0.00    +0.062 C 
ATOM     18  C5  <0> A   1     -31.461  -6.445  55.343  0.00  0.00    +0.061 C 
BRANCH  16  20
ATOM     19  C1  <0> A   1     -31.796  -8.358  53.672  0.00  0.00    +0.025 C 
ATOM     20  C2  <0> A   1     -31.379  -7.086  52.930  0.00  0.00    +0.036 C 
ENDBRANCH  16  20
ENDBRANCH  14  16
ENDBRANCH  13  14
ENDBRANCH   1  13
BRANCH   7  21
ATOM     21  C17 <0> A   1     -25.322  -4.717  50.906  0.00  0.00    +0.024 C 
BRANCH  21  22
ATOM     22  C18 <0> A   1     -24.471  -5.775  51.610  0.00  0.00    +0.078 C 
BRANCH  22  23
ATOM     23  C19 <0> A   1     -24.602  -7.109  50.871  0.00  0.00    +0.184 C 
ATOM     24  C20 <0> A   1     -23.945  -8.218  51.697  0.00  0.00    +0.044 C 
ATOM     25  C21 <0> A   1     -24.042  -9.544  50.936  0.00  0.00    +0.183 C 
ATOM     26  C22 <0> A   1     -23.331  -9.394  49.586  0.00  0.00    +0.011 C 
ATOM     27  C23 <0> A   1     -23.880  -8.165  48.893  0.00  0.00    +0.488 C 
ATOM     28  O4  <0> A   1     -24.242  -8.210  47.742  0.00  0.00    -0.447 OA
ATOM     29  O5  <0> A   1     -23.952  -7.018  49.600  0.00  0.00    -0.357 OA
BRANCH  25  30
ATOM     30  O6  <0> A   1     -25.415  -9.874  50.722  0.00  0.00    -0.562 OA
ATOM     31  H36 <0> A   1     -25.551 -10.651  50.164  0.00  0.00    +0.385 HD
ENDBRANCH  25  30
ENDBRANCH  22  23
ENDBRANCH  21  22
ENDBRANCH   7  21
BRANCH   3  32
ATOM     32  C25 <0> A   1     -28.584  -6.023  48.840  0.00  0.00    +0.095 C 
BRANCH  32  33
ATOM     33  S1  <0> A   1     -27.939  -7.632  49.373  0.00  0.00    -0.102 S 
BRANCH  33  34
ATOM     34  C26 <0> A   1     -29.385  -8.592  49.680  0.00  0.00    -0.100 A 
ATOM     35  C27 <0> A   1     -29.364  -9.593  50.644  0.00  0.00    -0.024 A 
ATOM     36  C28 <0> A   1     -30.499 -10.343  50.881  0.00  0.00    +0.026 A 
ATOM     37  C29 <0> A   1     -31.655 -10.100  50.162  0.00  0.00    +0.002 A 
ATOM     38  C30 <0> A   1     -31.678  -9.105  49.201  0.00  0.00    +0.028 A 
ATOM     39  C31 <0> A   1     -30.549  -8.347  48.962  0.00  0.00    +0.030 A 
ENDBRANCH  33  34
ENDBRANCH  32  33
ENDBRANCH   3  32
TORSDOF 11
