REMARK VINA RESULT:      -8.1      1.405      1.566
REMARK  Name = CHEMBL329307
REMARK  14 active torsions:
REMARK  status: ('A' for Active; 'I' for Inactive)
REMARK    1  A    between atoms: C1_1  and  C2_2
REMARK    2  A    between atoms: C2_2  and  C3_3
REMARK    3  A    between atoms: C2_2  and  C4_4
REMARK    4  A    between atoms: C6_6  and  C22_29
REMARK    5  A    between atoms: C8_8  and  C16_22
REMARK    6  A    between atoms: C9_9  and  O1_10
REMARK    7  A    between atoms: O1_10  and  C10_11
REMARK    8  A    between atoms: C10_11  and  C11_12
REMARK    9  A    between atoms: C11_12  and  C12_13
REMARK   10  A    between atoms: C11_12  and  O5_21
REMARK   11  A    between atoms: C12_13  and  C13_14
REMARK   12  A    between atoms: C13_14  and  C14_16
REMARK   13  A    between atoms: C13_14  and  O4_20
REMARK   14  A    between atoms: C14_16  and  C15_17
REMARK                            x       y       z     vdW  Elec       q    Type
REMARK                         _______ _______ _______ _____ _____    ______ ____
ROOT
ATOM      1  C4  <0> A   1     -14.891   6.404  45.756  0.00  0.00    -0.085 A 
ATOM      2  C5  <0> A   1     -16.035   5.950  46.381  0.00  0.00    +0.040 A 
ATOM      3  C6  <0> A   1     -16.693   6.756  47.308  0.00  0.00    -0.052 A 
ATOM      4  C7  <0> A   1     -16.199   8.022  47.607  0.00  0.00    +0.043 A 
ATOM      5  C8  <0> A   1     -15.046   8.478  46.976  0.00  0.00    -0.059 A 
ATOM      6  C9  <0> A   1     -14.388   7.661  46.052  0.00  0.00    +0.119 A 
ENDROOT
BRANCH   5   7
ATOM      7  C16 <0> A   1     -14.513   9.828  47.289  0.00  0.00    -0.061 A 
ATOM      8  C17 <0> A   1     -15.026  10.950  46.641  0.00  0.00    +0.083 A 
ATOM      9  C18 <0> A   1     -14.527  12.202  46.935  0.00  0.00    -0.013 A 
ATOM     10  C19 <0> A   1     -13.517  12.345  47.872  0.00  0.00    +0.104 A 
ATOM     11  C20 <0> A   1     -13.003  11.232  48.517  0.00  0.00    -0.020 A 
ATOM     12  C21 <0> A   1     -13.500   9.977  48.234  0.00  0.00    +0.052 A 
ATOM     13  F1  <0> A   1     -13.030  13.573  48.156  0.00  0.00    -0.138 F 
ENDBRANCH   5   7
BRANCH   3  14
ATOM     14  C22 <0> A   1     -17.923   6.264  47.977  0.00  0.00    -0.047 A 
ATOM     15  C23 <0> A   1     -17.852   5.209  48.885  0.00  0.00    +0.053 A 
ATOM     16  C24 <0> A   1     -18.999   4.756  49.505  0.00  0.00    -0.011 A 
ATOM     17  C25 <0> A   1     -20.219   5.347  49.225  0.00  0.00    +0.096 A 
ATOM     18  C26 <0> A   1     -20.296   6.396  48.323  0.00  0.00    -0.011 A 
ATOM     19  C27 <0> A   1     -19.153   6.859  47.703  0.00  0.00    +0.053 A 
ATOM     20  F2  <0> A   1     -21.340   4.900  49.834  0.00  0.00    -0.140 F 
ENDBRANCH   3  14
BRANCH   1  22
ATOM     21  C1  <0> A   1     -14.207   4.077  45.240  0.00  0.00    +0.030 C 
ATOM     22  C2  <0> A   1     -14.183   5.528  44.755  0.00  0.00    +0.033 C 
ATOM     23  C3  <0> A   1     -14.891   5.625  43.402  0.00  0.00    +0.025 C 
ENDBRANCH   1  22
BRANCH   6  24
ATOM     24  O1  <0> A   1     -13.259   8.102  45.438  0.00  0.00    -0.316 OA
BRANCH  24  25
ATOM     25  C10 <0> A   1     -13.419   8.771  44.186  0.00  0.00    +0.151 C 
BRANCH  25  26
ATOM     26  C11 <0> A   1     -12.157   8.583  43.341  0.00  0.00    +0.225 C 
BRANCH  26  27
ATOM     27  O5  <0> A   1     -11.480   7.394  43.756  0.00  0.00    -0.531 OA
ATOM     28  H19 <0> A   1     -11.088   7.452  44.637  0.00  0.00    +0.363 HD
ENDBRANCH  26  27
BRANCH  26  29
ATOM     29  C12 <0> A   1     -12.544   8.462  41.866  0.00  0.00    -0.043 C 
BRANCH  29  30
ATOM     30  C13 <0> A   1     -12.938   9.839  41.328  0.00  0.00    +0.235 C 
BRANCH  30  31
ATOM     31  O4  <0> A   1     -11.964  10.804  41.731  0.00  0.00    -0.526 OA
ATOM     32  H18 <0> A   1     -12.238  11.720  41.592  0.00  0.00    +0.350 HD
ENDBRANCH  30  31
BRANCH  30  33
ATOM     33  C14 <0> A   1     -13.006   9.789  39.800  0.00  0.00    -0.101 C 
BRANCH  33  34
ATOM     34  C15 <0> A   1     -13.222  11.179  39.262  0.00  0.00    +0.491 C 
ATOM     35  O2  <0> A   1     -14.338  11.535  38.924  0.00  0.00    -0.680 OA
ATOM     36  O3  <0> A   1     -12.281  11.948  39.163  0.00  0.00    -0.713 OA
ENDBRANCH  33  34
ENDBRANCH  30  33
ENDBRANCH  29  30
ENDBRANCH  26  29
ENDBRANCH  25  26
ENDBRANCH  24  25
ENDBRANCH   6  24
TORSDOF 12
