REMARK VINA RESULT:      -8.4      2.109      2.393
REMARK  Name = CHEMBL468862
REMARK  13 active torsions:
REMARK  status: ('A' for Active; 'I' for Inactive)
REMARK    1  A    between atoms: C1_1  and  C2_2
REMARK    2  A    between atoms: C2_2  and  C3_3
REMARK    3  A    between atoms: C2_2  and  C4_4
REMARK    4  A    between atoms: C5_5  and  C22_29
REMARK    5  A    between atoms: C6_6  and  C16_22
REMARK    6  A    between atoms: C9_13  and  C10_16
REMARK    7  A    between atoms: C23_30  and  C24_31
REMARK    8  A    between atoms: C24_31  and  C25_33
REMARK    9  A    between atoms: C24_31  and  O4_41
REMARK   10  A    between atoms: C25_33  and  C26_34
REMARK   11  A    between atoms: C26_34  and  C27_36
REMARK   12  A    between atoms: C26_34  and  O3_40
REMARK   13  A    between atoms: C27_36  and  C28_37
REMARK                            x       y       z     vdW  Elec       q    Type
REMARK                         _______ _______ _______ _____ _____    ______ ____
ROOT
ATOM      1  C4  <0> A   1     -15.093   6.410  45.920  0.00  0.00    +0.232 A 
ATOM      2  C5  <0> A   1     -14.600   7.687  46.203  0.00  0.00    -0.176 A 
ATOM      3  C6  <0> A   1     -15.266   8.455  47.181  0.00  0.00    +0.261 A 
ATOM      4  N1  <0> A   1     -16.327   7.934  47.792  0.00  0.00    -0.504 NA
ATOM      5  C7  <0> A   1     -16.754   6.719  47.488  0.00  0.00    +0.553 A 
ATOM      6  N2  <0> A   1     -16.156   5.973  46.569  0.00  0.00    -0.545 NA
ATOM      7  N3  <0> A   1     -17.863   6.214  48.146  0.00  0.00    -0.590 N 
ATOM      8  C8  <0> A   1     -18.512   6.983  49.113  0.00  0.00    +0.489 C 
ATOM      9  N4  <0> A   1     -19.564   6.520  49.753  0.00  0.00    -0.546 NA
ATOM     10  C9  <0> A   1     -20.128   7.307  50.659  0.00  0.00    +0.116 C 
ATOM     11  S1  <0> A   1     -19.170   8.686  50.593  0.00  0.00    +0.290 S 
ATOM     12  N5  <0> A   1     -18.086   8.192  49.414  0.00  0.00    -0.436 NA
ATOM     13  H10 <0> A   1     -18.188   5.324  47.935  0.00  0.00    +0.438 HD
ENDROOT
BRANCH   3  14
ATOM     14  C16 <0> A   1     -14.790   9.815  47.525  0.00  0.00    -0.071 A 
ATOM     15  C17 <0> A   1     -13.782   9.985  48.474  0.00  0.00    +0.096 A 
ATOM     16  C18 <0> A   1     -13.342  11.252  48.789  0.00  0.00    -0.016 A 
ATOM     17  C19 <0> A   1     -13.900  12.358  48.165  0.00  0.00    +0.120 A 
ATOM     18  C20 <0> A   1     -14.902  12.194  47.223  0.00  0.00    -0.027 A 
ATOM     19  C21 <0> A   1     -15.345  10.929  46.896  0.00  0.00    +0.099 A 
ATOM     20  F1  <0> A   1     -13.465  13.598  48.478  0.00  0.00    -0.136 F 
ENDBRANCH   3  14
BRANCH  10  21
ATOM     21  C10 <0> A   1     -21.306   7.038  51.511  0.00  0.00    -0.031 A 
ATOM     22  C11 <0> A   1     -21.934   8.082  52.190  0.00  0.00    +0.073 A 
ATOM     23  C12 <0> A   1     -23.033   7.823  52.982  0.00  0.00    +0.008 A 
ATOM     24  C13 <0> A   1     -23.513   6.532  53.105  0.00  0.00    +0.036 A 
ATOM     25  C14 <0> A   1     -22.896   5.491  52.435  0.00  0.00    +0.015 A 
ATOM     26  C15 <0> A   1     -21.798   5.738  51.634  0.00  0.00    +0.047 A 
ENDBRANCH  10  21
BRANCH   1  28
ATOM     27  C1  <0> A   1     -14.250   4.129  45.434  0.00  0.00    +0.043 C 
ATOM     28  C2  <0> A   1     -14.422   5.546  44.883  0.00  0.00    +0.052 C 
ATOM     29  C3  <0> A   1     -15.285   5.502  43.620  0.00  0.00    +0.044 C 
ENDBRANCH   1  28
BRANCH   2  30
ATOM     30  C22 <0> A   1     -13.417   8.219  45.497  0.00  0.00    +0.012 C 
ATOM     31  C23 <0> A   1     -13.570   8.906  44.372  0.00  0.00    -0.035 C 
BRANCH  31  32
ATOM     32  C24 <0> A   1     -12.362   9.449  43.652  0.00  0.00    +0.253 C 
BRANCH  32  33
ATOM     33  O4  <0> A   1     -11.176   8.905  44.235  0.00  0.00    -0.537 OA
ATOM     34  H27 <0> A   1     -10.771   8.196  43.715  0.00  0.00    +0.366 HD
ENDBRANCH  32  33
BRANCH  32  35
ATOM     35  C25 <0> A   1     -12.430   9.057  42.175  0.00  0.00    -0.041 C 
BRANCH  35  36
ATOM     36  C26 <0> A   1     -13.159  10.149  41.390  0.00  0.00    +0.232 C 
BRANCH  36  37
ATOM     37  O3  <0> A   1     -12.668  11.430  41.787  0.00  0.00    -0.528 OA
ATOM     38  H26 <0> A   1     -12.279  11.445  42.672  0.00  0.00    +0.350 HD
ENDBRANCH  36  37
BRANCH  36  39
ATOM     39  C27 <0> A   1     -12.915   9.950  39.893  0.00  0.00    -0.102 C 
BRANCH  39  40
ATOM     40  C28 <0> A   1     -13.081  11.265  39.178  0.00  0.00    +0.490 C 
ATOM     41  O1  <0> A   1     -14.196  11.731  39.009  0.00  0.00    -0.681 OA
ATOM     42  O2  <0> A   1     -12.102  11.865  38.768  0.00  0.00    -0.713 OA
ENDBRANCH  39  40
ENDBRANCH  36  39
ENDBRANCH  35  36
ENDBRANCH  32  35
ENDBRANCH  31  32
ENDBRANCH   2  30
TORSDOF 11
