REMARK VINA RESULT:      -7.6     15.651     20.315
REMARK  Name = CHEMBL99838
REMARK  15 active torsions:
REMARK  status: ('A' for Active; 'I' for Inactive)
REMARK    1  A    between atoms: C1_1  and  C2_2
REMARK    2  A    between atoms: C2_2  and  C3_3
REMARK    3  A    between atoms: C2_2  and  C4_4
REMARK    4  A    between atoms: C6_6  and  C23_29
REMARK    5  A    between atoms: C8_8  and  C16_22
REMARK    6  A    between atoms: C9_9  and  O1_10
REMARK    7  A    between atoms: O1_10  and  C10_11
REMARK    8  A    between atoms: C10_11  and  C11_12
REMARK    9  A    between atoms: C11_12  and  C12_13
REMARK   10  A    between atoms: C11_12  and  O5_21
REMARK   11  A    between atoms: C12_13  and  C13_14
REMARK   12  A    between atoms: C13_14  and  C14_16
REMARK   13  A    between atoms: C13_14  and  O4_20
REMARK   14  A    between atoms: C14_16  and  C15_17
REMARK   15  A    between atoms: C16_22  and  C17_23
REMARK                            x       y       z     vdW  Elec       q    Type
REMARK                         _______ _______ _______ _____ _____    ______ ____
ROOT
ATOM      1  C4  <0> A   1     -24.649  -3.337  50.876  0.00  0.00    -0.086 A 
ATOM      2  C5  <0> A   1     -25.394  -2.180  50.967  0.00  0.00    +0.028 A 
ATOM      3  C6  <0> A   1     -26.785  -2.243  50.917  0.00  0.00    -0.053 A 
ATOM      4  C7  <0> A   1     -27.419  -3.476  50.777  0.00  0.00    +0.027 A 
ATOM      5  C8  <0> A   1     -26.670  -4.630  50.688  0.00  0.00    -0.088 A 
ATOM      6  C9  <0> A   1     -25.283  -4.563  50.731  0.00  0.00    +0.106 A 
ENDROOT
BRANCH   3   7
ATOM      7  C23 <0> A   1     -27.590  -1.000  51.014  0.00  0.00    -0.037 A 
ATOM      8  C24 <0> A   1     -28.800  -1.003  51.706  0.00  0.00    +0.011 A 
ATOM      9  C25 <0> A   1     -29.545   0.155  51.792  0.00  0.00    +0.006 A 
ATOM     10  C26 <0> A   1     -29.093   1.318  51.194  0.00  0.00    -0.002 A 
ATOM     11  C27 <0> A   1     -27.893   1.326  50.506  0.00  0.00    +0.006 A 
ATOM     12  C28 <0> A   1     -27.137   0.175  50.418  0.00  0.00    +0.012 A 
ENDBRANCH   3   7
BRANCH   1  14
ATOM     13  C1  <0> A   1     -22.679  -1.891  50.457  0.00  0.00    +0.028 C 
ATOM     14  C2  <0> A   1     -23.145  -3.270  50.930  0.00  0.00    +0.032 C 
ATOM     15  C3  <0> A   1     -22.675  -3.501  52.368  0.00  0.00    +0.023 C 
ENDBRANCH   1  14
BRANCH   6  16
ATOM     16  O1  <0> A   1     -24.547  -5.701  50.637  0.00  0.00    -0.316 OA
BRANCH  16  17
ATOM     17  C10 <0> A   1     -24.499  -6.540  51.793  0.00  0.00    +0.146 C 
BRANCH  17  18
ATOM     18  C11 <0> A   1     -23.863  -7.882  51.423  0.00  0.00    +0.225 C 
BRANCH  18  19
ATOM     19  O5  <0> A   1     -23.187  -8.418  52.562  0.00  0.00    -0.531 OA
ATOM     20  H19 <0> A   1     -22.285  -8.088  52.676  0.00  0.00    +0.362 HD
ENDBRANCH  18  19
BRANCH  18  21
ATOM     21  C12 <0> A   1     -24.952  -8.857  50.973  0.00  0.00    -0.044 C 
BRANCH  21  22
ATOM     22  C13 <0> A   1     -24.346  -9.898  50.030  0.00  0.00    +0.235 C 
BRANCH  22  23
ATOM     23  O4  <0> A   1     -22.980  -9.568  49.772  0.00  0.00    -0.527 OA
ATOM     24  H18 <0> A   1     -22.791  -9.372  48.844  0.00  0.00    +0.350 HD
ENDBRANCH  22  23
BRANCH  22  25
ATOM     25  C14 <0> A   1     -24.422 -11.281  50.682  0.00  0.00    -0.101 C 
BRANCH  25  26
ATOM     26  C15 <0> A   1     -24.347 -12.343  49.615  0.00  0.00    +0.491 C 
ATOM     27  O2  <0> A   1     -23.489 -12.280  48.751  0.00  0.00    -0.680 OA
ATOM     28  O3  <0> A   1     -25.143 -13.266  49.617  0.00  0.00    -0.713 OA
ENDBRANCH  25  26
ENDBRANCH  22  25
ENDBRANCH  21  22
ENDBRANCH  18  21
ENDBRANCH  17  18
ENDBRANCH  16  17
ENDBRANCH   6  16
BRANCH   5  29
ATOM     29  C16 <0> A   1     -27.355  -5.963  50.536  0.00  0.00    +0.071 C 
BRANCH  29  30
ATOM     30  C17 <0> A   1     -28.483  -6.077  51.565  0.00  0.00    +0.002 C 
ATOM     31  C18 <0> A   1     -27.883  -6.237  52.963  0.00  0.00    +0.006 C 
ATOM     32  C19 <0> A   1     -29.010  -6.350  53.992  0.00  0.00    -0.001 C 
ATOM     33  C20 <0> A   1     -29.877  -7.569  53.665  0.00  0.00    -0.002 C 
ATOM     34  C21 <0> A   1     -30.477  -7.408  52.267  0.00  0.00    +0.004 C 
ATOM     35  C22 <0> A   1     -29.349  -7.295  51.239  0.00  0.00    +0.009 C 
ENDBRANCH  29  30
ENDBRANCH   5  29
TORSDOF 13
