REMARK  Name = CHEMBL82467
REMARK  16 active torsions:
REMARK  status: ('A' for Active; 'I' for Inactive)
REMARK    1  A    between atoms: C1_1  and  C2_2
REMARK    2  A    between atoms: C2_2  and  C3_3
REMARK    3  A    between atoms: C3_3  and  C4_4
REMARK    4  A    between atoms: C3_3  and  C5_5
REMARK    5  A    between atoms: C3_3  and  C6_6
REMARK    6  A    between atoms: C6_6  and  O2_8
REMARK    7  A    between atoms: O2_8  and  C7_9
REMARK    8  A    between atoms: C9_12  and  C24_35
REMARK    9  A    between atoms: C9_12  and  C25_36
REMARK   10  A    between atoms: C12_17  and  C17_24
REMARK   11  A    between atoms: C13_19  and  C16_23
REMARK   12  A    between atoms: C17_24  and  C18_25
REMARK   13  A    between atoms: C18_25  and  C19_26
REMARK   14  A    between atoms: C21_28  and  O6_34
REMARK   15  A    between atoms: C25_36  and  S1_37
REMARK   16  A    between atoms: S1_37  and  C26_38
REMARK                            x       y       z     vdW  Elec       q    Type
REMARK                         _______ _______ _______ _____ _____    ______ ____
ROOT
ATOM      1  C7  <0> A   1       2.687  -3.421   0.490  0.00  0.00    +0.187 C 
ATOM      2  C8  <0> A   1       3.672  -4.506   0.094  0.00  0.00    +0.020 C 
ATOM      3  C9  <0> A   1       4.585  -4.958   1.228  0.00  0.00    +0.156 C 
ATOM      4  O3  <0> A   1       3.853  -5.146   2.437  0.00  0.00    -0.345 OA
ATOM      5  C10 <0> A   1       3.129  -4.011   2.886  0.00  0.00    +0.161 C 
ATOM      6  C11 <0> A   1       2.072  -3.608   1.871  0.00  0.00    -0.013 C 
ATOM      7  C12 <0> A   1       0.868  -4.530   1.843  0.00  0.00    +0.001 C 
ATOM      8  C13 <0> A   1       0.293  -4.711   3.250  0.00  0.00    -0.013 C 
ATOM      9  C14 <0> A   1       1.372  -5.252   4.187  0.00  0.00    +0.007 C 
ATOM     10  C15 <0> A   1       2.525  -4.255   4.266  0.00  0.00    +0.041 C 
ATOM     11  C16 <0> A   1      -0.879  -5.695   3.197  0.00  0.00    +0.018 C 
ATOM     12  C24 <0> A   1       5.718  -3.952   1.431  0.00  0.00    +0.042 C 
ENDROOT
BRANCH   1  13
ATOM     13  O2  <0> A   1       3.328  -2.138   0.427  0.00  0.00    -0.346 OA
BRANCH  13  14
ATOM     14  C6  <0> A   1       3.314  -1.507  -0.758  0.00  0.00    +0.469 C 
ATOM     15  O1  <0> A   1       2.777  -2.021  -1.710  0.00  0.00    -0.502 OA
BRANCH  14  16
ATOM     16  C3  <0> A   1       3.967  -0.156  -0.900  0.00  0.00    -0.052 C 
ATOM     17  C4  <0> A   1       5.455  -0.272  -0.561  0.00  0.00    +0.062 C 
ATOM     18  C5  <0> A   1       3.302   0.836   0.056  0.00  0.00    +0.061 C 
BRANCH  16  20
ATOM     19  C1  <0> A   1       4.473   1.709  -2.484  0.00  0.00    +0.025 C 
ATOM     20  C2  <0> A   1       3.809   0.338  -2.339  0.00  0.00    +0.036 C 
ENDBRANCH  16  20
ENDBRANCH  14  16
ENDBRANCH  13  14
ENDBRANCH   1  13
BRANCH   7  21
ATOM     21  C17 <0> A   1       1.176  -5.899   1.244  0.00  0.00    +0.024 C 
BRANCH  21  22
ATOM     22  C18 <0> A   1       1.877  -6.767   2.290  0.00  0.00    +0.078 C 
BRANCH  22  23
ATOM     23  C19 <0> A   1       2.446  -8.018   1.617  0.00  0.00    +0.184 C 
ATOM     24  C20 <0> A   1       3.373  -8.747   2.593  0.00  0.00    +0.044 C 
ATOM     25  C21 <0> A   1       3.973  -9.976   1.902  0.00  0.00    +0.183 C 
ATOM     26  C22 <0> A   1       4.756  -9.517   0.666  0.00  0.00    +0.011 C 
ATOM     27  C23 <0> A   1       3.853  -8.634  -0.169  0.00  0.00    +0.488 C 
ATOM     28  O4  <0> A   1       3.732  -8.816  -1.357  0.00  0.00    -0.447 OA
ATOM     29  O5  <0> A   1       3.188  -7.639   0.453  0.00  0.00    -0.357 OA
BRANCH  25  30
ATOM     30  O6  <0> A   1       2.924 -10.861   1.505  0.00  0.00    -0.562 OA
ATOM     31  H36 <0> A   1       3.232 -11.662   1.060  0.00  0.00    +0.385 HD
ENDBRANCH  25  30
ENDBRANCH  22  23
ENDBRANCH  21  22
ENDBRANCH   7  21
BRANCH   3  32
ATOM     32  C25 <0> A   1       5.211  -6.310   0.836  0.00  0.00    +0.095 C 
BRANCH  32  33
ATOM     33  S1  <0> A   1       6.880  -6.428   1.536  0.00  0.00    -0.102 S 
BRANCH  33  34
ATOM     34  C26 <0> A   1       7.629  -7.744   0.635  0.00  0.00    -0.100 A 
ATOM     35  C27 <0> A   1       6.957  -8.327  -0.433  0.00  0.00    -0.024 A 
ATOM     36  C28 <0> A   1       7.547  -9.358  -1.137  0.00  0.00    +0.026 A 
ATOM     37  C29 <0> A   1       8.804  -9.811  -0.781  0.00  0.00    +0.002 A 
ATOM     38  C30 <0> A   1       9.475  -9.234   0.282  0.00  0.00    +0.028 A 
ATOM     39  C31 <0> A   1       8.894  -8.198   0.987  0.00  0.00    +0.030 A 
ENDBRANCH  33  34
ENDBRANCH  32  33
ENDBRANCH   3  32
TORSDOF 11
