REMARK VINA RESULT:      -8.6     13.046     16.849
REMARK  Name = CHEMBL122674
REMARK  12 active torsions:
REMARK  status: ('A' for Active; 'I' for Inactive)
REMARK    1  A    between atoms: C4_4  and  C7_7
REMARK    2  A    between atoms: C10_10  and  C13_13
REMARK    3  A    between atoms: C13_13  and  C14_14
REMARK    4  A    between atoms: N2_21  and  C28_36
REMARK    5  A    between atoms: C20_22  and  C21_23
REMARK    6  A    between atoms: C22_24  and  C23_25
REMARK    7  A    between atoms: C23_25  and  C24_27
REMARK    8  A    between atoms: C23_25  and  O4_35
REMARK    9  A    between atoms: C24_27  and  C25_28
REMARK   10  A    between atoms: C25_28  and  C26_30
REMARK   11  A    between atoms: C25_28  and  O3_34
REMARK   12  A    between atoms: C26_30  and  C27_31
REMARK                            x       y       z     vdW  Elec       q    Type
REMARK                         _______ _______ _______ _____ _____    ______ ____
ROOT
ATOM      1  C14 <0> A   1     -24.451  -3.540  50.940  0.00  0.00    +0.092 C 
ATOM      2  C15 <0> A   1     -23.011  -3.764  51.415  0.00  0.00    +0.029 C 
ATOM      3  C16 <0> A   1     -22.104  -2.667  50.854  0.00  0.00    +0.016 C 
ATOM      4  C17 <0> A   1     -22.402  -1.339  51.561  0.00  0.00    +0.104 C 
ATOM      5  C18 <0> A   1     -23.892  -1.107  51.521  0.00  0.00    -0.211 C 
ATOM      6  C19 <0> A   1     -24.829  -2.108  51.235  0.00  0.00    +0.089 C 
ATOM      7  N1  <0> A   1     -26.023  -1.585  51.275  0.00  0.00    -0.263 NA
ATOM      8  N2  <0> A   1     -25.909  -0.224  51.590  0.00  0.00    -0.330 N 
ATOM      9  C20 <0> A   1     -24.578   0.061  51.740  0.00  0.00    +0.124 C 
ENDROOT
BRANCH   8  10
ATOM     10  C28 <0> A   1     -26.967   0.684  51.726  0.00  0.00    +0.150 A 
ATOM     11  C29 <0> A   1     -27.468   0.986  52.985  0.00  0.00    +0.047 A 
ATOM     12  C30 <0> A   1     -28.512   1.882  53.117  0.00  0.00    +0.017 A 
ATOM     13  C31 <0> A   1     -29.058   2.478  51.992  0.00  0.00    +0.097 A 
ATOM     14  C32 <0> A   1     -28.561   2.178  50.735  0.00  0.00    +0.007 A 
ATOM     15  C33 <0> A   1     -27.514   1.288  50.600  0.00  0.00    +0.056 A 
ATOM     16  F1  <0> A   1     -30.079   3.354  52.123  0.00  0.00    -0.135 F 
ENDBRANCH   8  10
BRANCH   9  17
ATOM     17  C21 <0> A   1     -23.992   1.371  52.074  0.00  0.00    +0.027 C 
ATOM     18  C22 <0> A   1     -23.182   1.975  51.211  0.00  0.00    -0.028 C 
BRANCH  18  19
ATOM     19  C23 <0> A   1     -22.583   3.315  51.551  0.00  0.00    +0.254 C 
BRANCH  19  20
ATOM     20  O4  <0> A   1     -23.362   3.939  52.574  0.00  0.00    -0.536 OA
ATOM     21  H28 <0> A   1     -24.316   3.823  52.468  0.00  0.00    +0.368 HD
ENDBRANCH  19  20
BRANCH  19  22
ATOM     22  C24 <0> A   1     -21.149   3.121  52.048  0.00  0.00    -0.040 C 
BRANCH  22  23
ATOM     23  C25 <0> A   1     -20.183   3.851  51.111  0.00  0.00    +0.232 C 
BRANCH  23  24
ATOM     24  O3  <0> A   1     -19.807   2.981  50.043  0.00  0.00    -0.528 OA
ATOM     25  H27 <0> A   1     -20.089   2.064  50.164  0.00  0.00    +0.351 HD
ENDBRANCH  23  24
BRANCH  23  26
ATOM     26  C26 <0> A   1     -20.868   5.094  50.540  0.00  0.00    -0.102 C 
BRANCH  26  27
ATOM     27  C27 <0> A   1     -20.480   5.262  49.094  0.00  0.00    +0.491 C 
ATOM     28  O1  <0> A   1     -21.270   4.967  48.213  0.00  0.00    -0.681 OA
ATOM     29  O2  <0> A   1     -19.377   5.694  48.805  0.00  0.00    -0.712 OA
ENDBRANCH  26  27
ENDBRANCH  23  26
ENDBRANCH  22  23
ENDBRANCH  19  22
ENDBRANCH  18  19
ENDBRANCH   9  17
BRANCH   1  30
ATOM     30  C13 <0> A   1     -25.395  -4.487  51.686  0.00  0.00    +0.081 C 
BRANCH  30  34
ATOM     31  C7  <0> A   1     -24.891  -8.463  50.199  0.00  0.00    -0.050 A 
ATOM     32  C8  <0> A   1     -25.605  -7.525  49.457  0.00  0.00    +0.002 A 
ATOM     33  C9  <0> A   1     -25.765  -6.243  49.942  0.00  0.00    +0.007 A 
ATOM     34  C10 <0> A   1     -25.218  -5.888  51.161  0.00  0.00    -0.083 A 
ATOM     35  C11 <0> A   1     -24.507  -6.816  51.902  0.00  0.00    +0.063 A 
ATOM     36  C12 <0> A   1     -24.346  -8.103  51.429  0.00  0.00    +0.005 A 
BRANCH  31  40
ATOM     37  C1  <0> A   1     -24.388 -12.418  48.718  0.00  0.00    -0.002 A 
ATOM     38  C2  <0> A   1     -24.373 -12.186  50.082  0.00  0.00    +0.004 A 
ATOM     39  C3  <0> A   1     -24.535 -10.905  50.568  0.00  0.00    +0.010 A 
ATOM     40  C4  <0> A   1     -24.716  -9.844  49.682  0.00  0.00    -0.039 A 
ATOM     41  C5  <0> A   1     -24.731 -10.084  48.310  0.00  0.00    +0.011 A 
ATOM     42  C6  <0> A   1     -24.567 -11.369  47.835  0.00  0.00    +0.006 A 
ENDBRANCH  31  40
ENDBRANCH  30  34
ENDBRANCH   1  30
TORSDOF 12
