REMARK VINA RESULT:      -7.0      2.762      4.946
REMARK  Name = CHEMBL101774
REMARK  17 active torsions:
REMARK  status: ('A' for Active; 'I' for Inactive)
REMARK    1  A    between atoms: C1_1  and  C2_2
REMARK    2  A    between atoms: C4_4  and  C25_32
REMARK    3  A    between atoms: C5_5  and  O1_20
REMARK    4  A    between atoms: C6_6  and  C8_8
REMARK    5  A    between atoms: C8_8  and  C9_9
REMARK    6  A    between atoms: C8_8  and  C13_13
REMARK    7  A    between atoms: C9_9  and  C10_10
REMARK    8  A    between atoms: C10_10  and  C11_11
REMARK    9  A    between atoms: C10_10  and  C12_12
REMARK   10  A    between atoms: O1_20  and  C19_21
REMARK   11  A    between atoms: C19_21  and  C20_22
REMARK   12  A    between atoms: C20_22  and  C21_23
REMARK   13  A    between atoms: C20_22  and  O5_31
REMARK   14  A    between atoms: C21_23  and  C22_24
REMARK   15  A    between atoms: C22_24  and  C23_26
REMARK   16  A    between atoms: C22_24  and  O4_30
REMARK   17  A    between atoms: C23_26  and  C24_27
REMARK                            x       y       z     vdW  Elec       q    Type
REMARK                         _______ _______ _______ _____ _____    ______ ____
ROOT
ATOM      1  C1  <0> A   1     -16.678  13.221  47.589  0.00  0.00    +0.087 C 
ATOM      2  C2  <0> A   1     -16.072  11.865  47.333  0.00  0.00    -0.087 A 
ATOM      3  C3  <0> A   1     -16.694  10.729  47.815  0.00  0.00    +0.008 A 
ATOM      4  C4  <0> A   1     -16.141   9.485  47.584  0.00  0.00    -0.094 A 
ATOM      5  C5  <0> A   1     -14.959   9.377  46.865  0.00  0.00    +0.096 A 
ATOM      6  C6  <0> A   1     -14.337  10.519  46.381  0.00  0.00    -0.076 A 
ATOM      7  C7  <0> A   1     -14.897  11.760  46.613  0.00  0.00    +0.012 A 
ATOM      8  C25 <0> A   1     -16.819   8.246  48.110  0.00  0.00    +0.096 C 
ENDROOT
BRANCH   6   9
ATOM      9  C8  <0> A   1     -13.052  10.404  45.601  0.00  0.00    +0.088 C 
BRANCH   9  10
ATOM     10  C13 <0> A   1     -13.360  10.405  44.126  0.00  0.00    -0.080 A 
ATOM     11  C14 <0> A   1     -13.774  11.570  43.507  0.00  0.00    +0.044 A 
ATOM     12  C15 <0> A   1     -14.056  11.573  42.155  0.00  0.00    -0.018 A 
ATOM     13  C16 <0> A   1     -13.923  10.408  41.418  0.00  0.00    +0.093 A 
ATOM     14  C17 <0> A   1     -13.509   9.241  42.038  0.00  0.00    -0.009 A 
ATOM     15  C18 <0> A   1     -13.222   9.243  43.390  0.00  0.00    +0.046 A 
ATOM     16  F1  <0> A   1     -14.199  10.409  40.095  0.00  0.00    -0.141 F 
ENDBRANCH   9  10
BRANCH   9  17
ATOM     17  C9  <0> A   1     -12.146  11.591  45.934  0.00  0.00    +0.032 C 
BRANCH  17  18
ATOM     18  C10 <0> A   1     -10.879  11.087  46.627  0.00  0.00    -0.023 C 
ATOM     19  C11 <0> A   1     -11.161  10.879  48.117  0.00  0.00    +0.018 C 
ATOM     20  C12 <0> A   1     -10.449   9.759  46.000  0.00  0.00    +0.011 C 
ENDBRANCH  17  18
ENDBRANCH   9  17
ENDBRANCH   6   9
BRANCH   5  21
ATOM     21  O1  <0> A   1     -14.411   8.154  46.635  0.00  0.00    -0.317 OA
BRANCH  21  22
ATOM     22  C19 <0> A   1     -13.417   7.705  47.558  0.00  0.00    +0.144 C 
BRANCH  22  23
ATOM     23  C20 <0> A   1     -12.726   6.460  46.999  0.00  0.00    +0.224 C 
BRANCH  23  24
ATOM     24  O5  <0> A   1     -12.946   5.356  47.880  0.00  0.00    -0.531 OA
ATOM     25  H29 <0> A   1     -12.293   4.648  47.793  0.00  0.00    +0.363 HD
ENDBRANCH  23  24
BRANCH  23  26
ATOM     26  C21 <0> A   1     -13.300   6.134  45.618  0.00  0.00    -0.044 C 
BRANCH  26  27
ATOM     27  C22 <0> A   1     -14.137   4.856  45.703  0.00  0.00    +0.235 C 
BRANCH  27  28
ATOM     28  O4  <0> A   1     -15.359   5.132  46.390  0.00  0.00    -0.527 OA
ATOM     29  H28 <0> A   1     -16.095   4.561  46.129  0.00  0.00    +0.350 HD
ENDBRANCH  27  28
BRANCH  27  30
ATOM     30  C23 <0> A   1     -14.447   4.356  44.291  0.00  0.00    -0.101 C 
BRANCH  30  31
ATOM     31  C24 <0> A   1     -15.224   5.410  43.544  0.00  0.00    +0.491 C 
ATOM     32  O2  <0> A   1     -14.728   5.961  42.576  0.00  0.00    -0.680 OA
ATOM     33  O3  <0> A   1     -16.348   5.712  43.907  0.00  0.00    -0.713 OA
ENDBRANCH  30  31
ENDBRANCH  27  30
ENDBRANCH  26  27
ENDBRANCH  23  26
ENDBRANCH  22  23
ENDBRANCH  21  22
ENDBRANCH   5  21
TORSDOF 13
