REMARK VINA RESULT:      -8.0     31.843     33.118
REMARK  Name = CHEMBL46057
REMARK  6 active torsions:
REMARK  status: ('A' for Active; 'I' for Inactive)
REMARK    1  A    between atoms: C4_4  and  C7_7
REMARK    2  A    between atoms: C7_7  and  O1_8
REMARK    3  A    between atoms: O1_8  and  C8_9
REMARK    4  A    between atoms: C11_12  and  C14_16
REMARK    5  A    between atoms: C15_17  and  C16_18
REMARK    6  A    between atoms: C18_20  and  O4_26
REMARK                            x       y       z     vdW  Elec       q    Type
REMARK                         _______ _______ _______ _____ _____    ______ ____
ROOT
ATOM      1  C8  <0> A   1     -32.125  19.522  33.429  0.00  0.00    +0.160 A 
ATOM      2  C9  <0> A   1     -32.726  19.546  34.681  0.00  0.00    -0.051 A 
ATOM      3  C10 <0> A   1     -32.456  20.575  35.559  0.00  0.00    +0.025 A 
ATOM      4  C11 <0> A   1     -31.575  21.595  35.187  0.00  0.00    -0.078 A 
ATOM      5  C12 <0> A   1     -30.973  21.566  33.927  0.00  0.00    +0.019 A 
ATOM      6  C13 <0> A   1     -31.245  20.530  33.058  0.00  0.00    +0.013 A 
ATOM      7 Cl1  <0> A   1     -29.879  22.830  33.458  0.00  0.00    -0.037 Cl
ATOM      8 Cl2  <0> A   1     -33.209  20.605  37.122  0.00  0.00    -0.042 Cl
ENDROOT
BRANCH   4   9
ATOM      9  C14 <0> A   1     -31.284  22.700  36.123  0.00  0.00    +0.046 C 
ATOM     10  C15 <0> A   1     -30.204  22.650  36.891  0.00  0.00    -0.003 C 
BRANCH  10  11
ATOM     11  C16 <0> A   1     -29.906  23.776  37.847  0.00  0.00    +0.243 C 
ATOM     12  C17 <0> A   1     -31.193  24.193  38.563  0.00  0.00    +0.051 C 
ATOM     13  C18 <0> A   1     -30.893  25.366  39.503  0.00  0.00    +0.186 C 
ATOM     14  C19 <0> A   1     -30.341  26.535  38.678  0.00  0.00    +0.024 C 
ATOM     15  C20 <0> A   1     -29.193  26.022  37.837  0.00  0.00    +0.497 C 
ATOM     16  O2  <0> A   1     -28.135  26.605  37.807  0.00  0.00    -0.451 OA
ATOM     17  O3  <0> A   1     -29.384  24.894  37.120  0.00  0.00    -0.368 OA
BRANCH  13  18
ATOM     18  O4  <0> A   1     -29.926  24.965  40.476  0.00  0.00    -0.564 OA
ATOM     19  H18 <0> A   1     -29.105  25.475  40.448  0.00  0.00    +0.387 HD
ENDBRANCH  13  18
ENDBRANCH  10  11
ENDBRANCH   4   9
BRANCH   1  20
ATOM     20  O1  <0> A   1     -32.393  18.506  32.568  0.00  0.00    -0.297 OA
BRANCH  20  21
ATOM     21  C7  <0> A   1     -32.031  18.703  31.200  0.00  0.00    +0.252 C 
BRANCH  21  25
ATOM     22  C1  <0> A   1     -29.006  15.891  30.107  0.00  0.00    +0.019 A 
ATOM     23  C2  <0> A   1     -30.205  15.920  29.418  0.00  0.00    +0.004 A 
ATOM     24  C3  <0> A   1     -31.184  16.830  29.772  0.00  0.00    +0.031 A 
ATOM     25  C4  <0> A   1     -30.964  17.710  30.815  0.00  0.00    -0.101 A 
ATOM     26  C5  <0> A   1     -29.766  17.682  31.504  0.00  0.00    +0.031 A 
ATOM     27  C6  <0> A   1     -28.787  16.773  31.149  0.00  0.00    +0.004 A 
ENDBRANCH  21  25
ENDBRANCH  20  21
ENDBRANCH   1  20
TORSDOF 6
