REMARK  Name = CHEMBL101806
REMARK  11 active torsions:
REMARK  status: ('A' for Active; 'I' for Inactive)
REMARK    1  A    between atoms: C5_5  and  O2_15
REMARK    2  A    between atoms: C6_6  and  C7_7
REMARK    3  A    between atoms: C7_7  and  C8_9
REMARK    4  A    between atoms: O2_15  and  C14_16
REMARK    5  A    between atoms: C14_16  and  C15_17
REMARK    6  A    between atoms: C15_17  and  C16_18
REMARK    7  A    between atoms: C15_17  and  O6_26
REMARK    8  A    between atoms: C16_18  and  C17_19
REMARK    9  A    between atoms: C17_19  and  C18_21
REMARK   10  A    between atoms: C17_19  and  O5_25
REMARK   11  A    between atoms: C18_21  and  C19_22
REMARK                            x       y       z     vdW  Elec       q    Type
REMARK                         _______ _______ _______ _____ _____    ______ ____
ROOT
ATOM      1  C1  <0> A   1      -0.017   1.396   0.010  0.00  0.00    +0.103 A 
ATOM      2  C2  <0> A   1       1.168   2.099   0.002  0.00  0.00    -0.048 A 
ATOM      3  C3  <0> A   1       2.381   1.426  -0.013  0.00  0.00    +0.091 A 
ATOM      4  C4  <0> A   1       2.415   0.045  -0.021  0.00  0.00    -0.063 A 
ATOM      5  C5  <0> A   1       1.233  -0.680  -0.014  0.00  0.00    +0.174 A 
ATOM      6  C6  <0> A   1       0.002  -0.004   0.002  0.00  0.00    -0.168 A 
ATOM      7 Cl1  <0> A   1       3.940  -0.784  -0.041  0.00  0.00    -0.030 Cl
ATOM      8 Cl2  <0> A   1       1.143   3.834   0.012  0.00  0.00    -0.049 Cl
ENDROOT
BRANCH   6   9
ATOM      9  C7  <0> A   1      -1.256  -0.760   0.011  0.00  0.00    +0.394 C 
ATOM     10  O1  <0> A   1      -1.235  -1.973   0.004  0.00  0.00    -0.410 OA
BRANCH   9  11
ATOM     11  C8  <0> A   1      -2.574  -0.029   0.028  0.00  0.00    -0.031 C 
ATOM     12  C9  <0> A   1      -2.945   0.321   1.470  0.00  0.00    +0.029 C 
ATOM     13  C10 <0> A   1      -4.283   1.062   1.487  0.00  0.00    +0.015 C 
ATOM     14  C11 <0> A   1      -5.369   0.170   0.884  0.00  0.00    +0.004 C 
ATOM     15  C12 <0> A   1      -4.998  -0.180  -0.559  0.00  0.00    +0.010 C 
ATOM     16  C13 <0> A   1      -3.660  -0.922  -0.576  0.00  0.00    +0.034 C 
ENDBRANCH   9  11
ENDBRANCH   6   9
BRANCH   5  17
ATOM     17  O2  <0> A   1       1.265  -2.037  -0.022  0.00  0.00    -0.298 OA
BRANCH  17  18
ATOM     18  C14 <0> A   1       1.293  -2.693   1.247  0.00  0.00    +0.164 C 
BRANCH  18  19
ATOM     19  C15 <0> A   1       1.327  -4.208   1.037  0.00  0.00    +0.233 C 
BRANCH  19  20
ATOM     20  O6  <0> A   1       2.551  -4.573   0.396  0.00  0.00    -0.530 OA
ATOM     21  H23 <0> A   1       3.343  -4.336   0.897  0.00  0.00    +0.362 HD
ENDBRANCH  19  20
BRANCH  19  22
ATOM     22  C16 <0> A   1       1.231  -4.913   2.391  0.00  0.00    -0.042 C 
BRANCH  22  23
ATOM     23  C17 <0> A   1       1.139  -6.425   2.174  0.00  0.00    +0.236 C 
BRANCH  23  24
ATOM     24  O5  <0> A   1       2.354  -6.896   1.588  0.00  0.00    -0.526 OA
ATOM     25  H22 <0> A   1       3.141  -6.732   2.126  0.00  0.00    +0.350 HD
ENDBRANCH  23  24
BRANCH  23  26
ATOM     26  C18 <0> A   1       0.919  -7.120   3.519  0.00  0.00    -0.101 C 
BRANCH  26  27
ATOM     27  C19 <0> A   1       0.706  -8.595   3.292  0.00  0.00    +0.491 C 
ATOM     28  O3  <0> A   1       0.729  -9.047   2.161  0.00  0.00    -0.680 OA
ATOM     29  O4  <0> A   1       0.511  -9.336   4.241  0.00  0.00    -0.713 OA
ENDBRANCH  26  27
ENDBRANCH  23  26
ENDBRANCH  22  23
ENDBRANCH  19  22
ENDBRANCH  18  19
ENDBRANCH  17  18
ENDBRANCH   5  17
TORSDOF 11
