REMARK VINA RESULT:      -7.7     15.016     18.360
REMARK  Name = CHEMBL60218
REMARK  7 active torsions:
REMARK  status: ('A' for Active; 'I' for Inactive)
REMARK    1  A    between atoms: C1_1  and  N1_2
REMARK    2  A    between atoms: C2_3  and  C3_7
REMARK    3  A    between atoms: C3_7  and  C17_23
REMARK    4  A    between atoms: C4_8  and  C5_9
REMARK    5  A    between atoms: C4_8  and  C11_16
REMARK    6  A    between atoms: C18_24  and  C19_25
REMARK    7  A    between atoms: C21_27  and  O3_33
REMARK                            x       y       z     vdW  Elec       q    Type
REMARK                         _______ _______ _______ _____ _____    ______ ____
ROOT
ATOM      1  C3  <0> A   1     -14.680   7.342  45.750  0.00  0.00    -0.025 C 
ATOM      2  C4  <0> A   1     -15.262   7.979  46.832  0.00  0.00    +0.038 C 
ENDROOT
BRANCH   2   3
ATOM      3  C5  <0> A   1     -15.951   7.189  47.871  0.00  0.00    -0.087 A 
ATOM      4  C6  <0> A   1     -15.329   6.951  49.100  0.00  0.00    +0.077 A 
ATOM      5  C7  <0> A   1     -15.978   6.212  50.066  0.00  0.00    -0.009 A 
ATOM      6  C8  <0> A   1     -17.245   5.705  49.821  0.00  0.00    +0.113 A 
ATOM      7  C9  <0> A   1     -17.866   5.937  48.603  0.00  0.00    -0.012 A 
ATOM      8  C10 <0> A   1     -17.230   6.681  47.632  0.00  0.00    +0.070 A 
ATOM      9  F1  <0> A   1     -17.875   4.980  50.771  0.00  0.00    -0.134 F 
ENDBRANCH   2   3
BRANCH   2  10
ATOM     10  C11 <0> A   1     -15.195   9.449  46.946  0.00  0.00    -0.071 A 
ATOM     11  C12 <0> A   1     -13.977  10.077  47.223  0.00  0.00    +0.066 A 
ATOM     12  C13 <0> A   1     -13.921  11.450  47.328  0.00  0.00    -0.010 A 
ATOM     13  C14 <0> A   1     -15.069  12.209  47.161  0.00  0.00    +0.113 A 
ATOM     14  C15 <0> A   1     -16.280  11.592  46.887  0.00  0.00    -0.008 A 
ATOM     15  C16 <0> A   1     -16.348  10.220  46.773  0.00  0.00    +0.077 A 
ATOM     16  F2  <0> A   1     -15.008  13.555  47.267  0.00  0.00    -0.135 F 
ENDBRANCH   2  10
BRANCH   1  19
ATOM     17  C1  <0> A   1     -16.827   5.673  44.195  0.00  0.00    +0.384 C 
ATOM     18  N1  <0> A   1     -15.687   5.156  44.955  0.00  0.00    -0.370 N 
ATOM     19  C2  <0> A   1     -14.747   5.875  45.635  0.00  0.00    +0.289 C 
ATOM     20  N2  <0> A   1     -13.911   5.005  46.168  0.00  0.00    -0.312 NA
ATOM     21  N3  <0> A   1     -14.261   3.805  45.872  0.00  0.00    -0.039 NA
ATOM     22  N4  <0> A   1     -15.326   3.810  45.146  0.00  0.00    -0.076 NA
ENDBRANCH   1  19
BRANCH   1  23
ATOM     23  C17 <0> A   1     -13.995   8.130  44.714  0.00  0.00    +0.060 C 
ATOM     24  C18 <0> A   1     -13.660   7.562  43.558  0.00  0.00    -0.013 C 
BRANCH  24  25
ATOM     25  C19 <0> A   1     -13.070   8.396  42.451  0.00  0.00    +0.247 C 
ATOM     26  C20 <0> A   1     -13.611   9.826  42.545  0.00  0.00    +0.049 C 
ATOM     27  C21 <0> A   1     -13.041  10.661  41.394  0.00  0.00    +0.187 C 
ATOM     28  C22 <0> A   1     -13.459  10.021  40.064  0.00  0.00    +0.025 C 
ATOM     29  C23 <0> A   1     -13.079   8.557  40.100  0.00  0.00    +0.497 C 
ATOM     30  O1  <0> A   1     -12.476   8.049  39.185  0.00  0.00    -0.446 OA
ATOM     31  O2  <0> A   1     -13.434   7.837  41.184  0.00  0.00    -0.368 OA
BRANCH  27  32
ATOM     32  O3  <0> A   1     -11.616  10.693  41.486  0.00  0.00    -0.563 OA
ATOM     33  H20 <0> A   1     -11.273  11.408  42.039  0.00  0.00    +0.388 HD
ENDBRANCH  27  32
ENDBRANCH  24  25
ENDBRANCH   1  23
TORSDOF 6
