REMARK VINA RESULT:      -7.4      6.001      9.044
REMARK  Name = CHEMBL47537
REMARK  6 active torsions:
REMARK  status: ('A' for Active; 'I' for Inactive)
REMARK    1  A    between atoms: C4_4  and  O1_7
REMARK    2  A    between atoms: O1_7  and  C7_8
REMARK    3  A    between atoms: C12_13  and  C13_14
REMARK    4  A    between atoms: C13_14  and  C14_15
REMARK    5  A    between atoms: C14_15  and  C15_16
REMARK    6  A    between atoms: C17_18  and  O4_24
REMARK                            x       y       z     vdW  Elec       q    Type
REMARK                         _______ _______ _______ _____ _____    ______ ____
ROOT
ATOM      1  C7  <0> A   1       0.445   9.875  51.851  0.00  0.00    +0.153 A 
ATOM      2  C8  <0> A   1       0.711  10.856  52.795  0.00  0.00    -0.035 A 
ATOM      3  C9  <0> A   1      -0.265  11.221  53.705  0.00  0.00    +0.010 A 
ATOM      4  C10 <0> A   1      -1.505  10.608  53.673  0.00  0.00    +0.017 A 
ATOM      5  C11 <0> A   1      -1.771   9.629  52.733  0.00  0.00    +0.010 A 
ATOM      6  C12 <0> A   1      -0.800   9.266  51.817  0.00  0.00    -0.095 A 
ATOM      7 Cl1  <0> A   1      -3.327   8.861  52.696  0.00  0.00    -0.040 Cl
ATOM      8 Cl2  <0> A   1       0.066  12.449  54.886  0.00  0.00    -0.048 Cl
ENDROOT
BRANCH   1   9
ATOM      9  O1  <0> A   1       1.402   9.516  50.956  0.00  0.00    -0.239 OA
BRANCH   9  13
ATOM     10  C1  <0> A   1       4.544   7.205  52.304  0.00  0.00    +0.014 A 
ATOM     11  C2  <0> A   1       4.591   7.765  51.040  0.00  0.00    +0.029 A 
ATOM     12  C3  <0> A   1       3.540   8.538  50.587  0.00  0.00    -0.007 A 
ATOM     13  C4  <0> A   1       2.437   8.754  51.400  0.00  0.00    +0.077 A 
ATOM     14  C5  <0> A   1       2.393   8.192  52.667  0.00  0.00    +0.017 A 
ATOM     15  C6  <0> A   1       3.446   7.419  53.116  0.00  0.00    +0.031 A 
ENDBRANCH   9  13
ENDBRANCH   1   9
BRANCH   6  16
ATOM     16  C13 <0> A   1      -1.093   8.204  50.789  0.00  0.00    +0.098 C 
BRANCH  16  17
ATOM     17  C14 <0> A   1      -1.927   8.806  49.657  0.00  0.00    +0.062 C 
BRANCH  17  18
ATOM     18  C15 <0> A   1      -2.738   7.701  48.976  0.00  0.00    +0.199 C 
ATOM     19  C16 <0> A   1      -1.816   6.529  48.632  0.00  0.00    +0.041 C 
ATOM     20  C17 <0> A   1      -2.622   5.442  47.914  0.00  0.00    +0.184 C 
ATOM     21  C18 <0> A   1      -3.226   6.036  46.635  0.00  0.00    +0.021 C 
ATOM     22  C19 <0> A   1      -3.964   7.304  47.003  0.00  0.00    +0.496 C 
ATOM     23  O2  <0> A   1      -5.092   7.502  46.619  0.00  0.00    -0.453 OA
ATOM     24  O3  <0> A   1      -3.324   8.210  47.773  0.00  0.00    -0.365 OA
BRANCH  20  25
ATOM     25  O4  <0> A   1      -3.668   4.978  48.770  0.00  0.00    -0.563 OA
ATOM     26  H18 <0> A   1      -3.355   4.495  49.548  0.00  0.00    +0.386 HD
ENDBRANCH  20  25
ENDBRANCH  17  18
ENDBRANCH  16  17
ENDBRANCH   6  16
TORSDOF 6
