REMARK VINA RESULT:      -9.2      0.663      1.977
REMARK  Name = CHEMBL331900
REMARK  11 active torsions:
REMARK  status: ('A' for Active; 'I' for Inactive)
REMARK    1  A    between atoms: C10_10  and  C11_11
REMARK    2  A    between atoms: C11_11  and  C12_12
REMARK    3  A    between atoms: N2_19  and  C26_34
REMARK    4  A    between atoms: C18_20  and  C19_21
REMARK    5  A    between atoms: C20_22  and  C21_23
REMARK    6  A    between atoms: C21_23  and  C22_25
REMARK    7  A    between atoms: C21_23  and  O4_33
REMARK    8  A    between atoms: C22_25  and  C23_26
REMARK    9  A    between atoms: C23_26  and  C24_28
REMARK   10  A    between atoms: C23_26  and  O3_32
REMARK   11  A    between atoms: C24_28  and  C25_29
REMARK                            x       y       z     vdW  Elec       q    Type
REMARK                         _______ _______ _______ _____ _____    ______ ____
ROOT
ATOM      1  C12 <0> A   1     -16.513   5.961  46.917  0.00  0.00    +0.092 C 
ATOM      2  C13 <0> A   1     -16.217   4.534  46.440  0.00  0.00    +0.029 C 
ATOM      3  C14 <0> A   1     -16.062   4.518  44.918  0.00  0.00    +0.017 C 
ATOM      4  C15 <0> A   1     -14.743   5.196  44.526  0.00  0.00    +0.104 C 
ATOM      5  C16 <0> A   1     -14.674   6.530  45.223  0.00  0.00    -0.211 C 
ATOM      6  C17 <0> A   1     -15.480   6.884  46.313  0.00  0.00    +0.090 C 
ATOM      7  N1  <0> A   1     -15.177   8.098  46.679  0.00  0.00    -0.262 NA
ATOM      8  N2  <0> A   1     -14.160   8.581  45.844  0.00  0.00    -0.330 N 
ATOM      9  C18 <0> A   1     -13.856   7.595  44.942  0.00  0.00    +0.123 C 
ENDROOT
BRANCH   8  10
ATOM     10  C26 <0> A   1     -13.561   9.846  45.917  0.00  0.00    +0.150 A 
ATOM     11  C27 <0> A   1     -12.517  10.071  46.802  0.00  0.00    +0.047 A 
ATOM     12  C28 <0> A   1     -11.928  11.319  46.871  0.00  0.00    +0.017 A 
ATOM     13  C29 <0> A   1     -12.380  12.345  46.059  0.00  0.00    +0.097 A 
ATOM     14  C30 <0> A   1     -13.423  12.122  45.174  0.00  0.00    +0.007 A 
ATOM     15  C31 <0> A   1     -14.010  10.874  45.099  0.00  0.00    +0.056 A 
ATOM     16  F1  <0> A   1     -11.803  13.564  46.128  0.00  0.00    -0.135 F 
ENDBRANCH   8  10
BRANCH   9  17
ATOM     17  C19 <0> A   1     -12.844   7.665  43.875  0.00  0.00    +0.027 C 
ATOM     18  C20 <0> A   1     -13.223   7.740  42.604  0.00  0.00    -0.028 C 
BRANCH  18  19
ATOM     19  C21 <0> A   1     -12.187   7.811  41.511  0.00  0.00    +0.254 C 
BRANCH  19  20
ATOM     20  O4  <0> A   1     -11.481   6.571  41.443  0.00  0.00    -0.537 OA
ATOM     21  H26 <0> A   1     -11.062   6.404  40.587  0.00  0.00    +0.368 HD
ENDBRANCH  19  20
BRANCH  19  22
ATOM     22  C22 <0> A   1     -12.877   8.082  40.172  0.00  0.00    -0.040 C 
BRANCH  22  23
ATOM     23  C23 <0> A   1     -12.376   9.409  39.601  0.00  0.00    +0.232 C 
BRANCH  23  24
ATOM     24  O3  <0> A   1     -12.754   9.509  38.227  0.00  0.00    -0.528 OA
ATOM     25  H25 <0> A   1     -12.801  10.417  37.897  0.00  0.00    +0.351 HD
ENDBRANCH  23  24
BRANCH  23  26
ATOM     26  C24 <0> A   1     -12.995  10.568  40.386  0.00  0.00    -0.102 C 
BRANCH  26  27
ATOM     27  C25 <0> A   1     -13.933  11.336  39.491  0.00  0.00    +0.491 C 
ATOM     28  O1  <0> A   1     -15.138  11.181  39.594  0.00  0.00    -0.681 OA
ATOM     29  O2  <0> A   1     -13.487  12.114  38.664  0.00  0.00    -0.713 OA
ENDBRANCH  26  27
ENDBRANCH  23  26
ENDBRANCH  22  23
ENDBRANCH  19  22
ENDBRANCH  18  19
ENDBRANCH   9  17
BRANCH   1  30
ATOM     30  C11 <0> A   1     -16.431   6.023  48.443  0.00  0.00    +0.084 C 
BRANCH  30  40
ATOM     31  C1  <0> A   1     -19.246   9.563  50.838  0.00  0.00    -0.004 A 
ATOM     32  C2  <0> A   1     -17.956   9.527  50.313  0.00  0.00    +0.001 A 
ATOM     33  C3  <0> A   1     -17.474   8.404  49.716  0.00  0.00    +0.016 A 
ATOM     34  C4  <0> A   1     -18.285   7.260  49.628  0.00  0.00    -0.039 A 
ATOM     35  C5  <0> A   1     -19.598   7.296  50.163  0.00  0.00    -0.055 A 
ATOM     36  C6  <0> A   1     -20.061   8.475  50.772  0.00  0.00    +0.018 A 
ATOM     37  C7  <0> A   1     -20.410   6.152  50.075  0.00  0.00    +0.009 A 
ATOM     38  C8  <0> A   1     -19.927   5.029  49.478  0.00  0.00    +0.007 A 
ATOM     39  C9  <0> A   1     -18.637   4.992  48.952  0.00  0.00    +0.054 A 
ATOM     40  C10 <0> A   1     -17.823   6.081  49.019  0.00  0.00    -0.075 A 
ENDBRANCH  30  40
ENDBRANCH   1  30
TORSDOF 11
