REMARK VINA RESULT:      -7.7     10.289     12.954
REMARK  Name = CHEMBL318707
REMARK  11 active torsions:
REMARK  status: ('A' for Active; 'I' for Inactive)
REMARK    1  A    between atoms: C1_1  and  C2_2
REMARK    2  A    between atoms: C2_2  and  C3_3
REMARK    3  A    between atoms: C2_2  and  C4_4
REMARK    4  A    between atoms: C6_6  and  C19_24
REMARK    5  A    between atoms: C7_7  and  O1_13
REMARK    6  A    between atoms: C8_8  and  C10_10
REMARK    7  A    between atoms: C10_10  and  C11_11
REMARK    8  A    between atoms: C10_10  and  C12_12
REMARK    9  A    between atoms: O1_13  and  C13_14
REMARK   10  A    between atoms: C13_14  and  C14_15
REMARK   11  A    between atoms: C16_17  and  O4_23
REMARK                            x       y       z     vdW  Elec       q    Type
REMARK                         _______ _______ _______ _____ _____    ______ ____
ROOT
ATOM      1  C4  <0> A   1     -17.317   6.355  47.896  0.00  0.00    -0.073 A 
ATOM      2  C5  <0> A   1     -17.083   7.697  48.129  0.00  0.00    +0.034 A 
ATOM      3  C6  <0> A   1     -16.123   8.374  47.382  0.00  0.00    -0.061 A 
ATOM      4  C7  <0> A   1     -15.402   7.691  46.398  0.00  0.00    +0.102 A 
ATOM      5  C8  <0> A   1     -15.646   6.345  46.175  0.00  0.00    -0.080 A 
ATOM      6  C9  <0> A   1     -16.598   5.681  46.927  0.00  0.00    +0.029 A 
ENDROOT
BRANCH   3   7
ATOM      7  C19 <0> A   1     -15.868   9.815  47.626  0.00  0.00    -0.057 A 
ATOM      8  C20 <0> A   1     -15.019  10.208  48.659  0.00  0.00    +0.077 A 
ATOM      9  C21 <0> A   1     -14.785  11.550  48.884  0.00  0.00    -0.016 A 
ATOM     10  C22 <0> A   1     -15.393  12.504  48.085  0.00  0.00    +0.102 A 
ATOM     11  C23 <0> A   1     -16.238  12.117  47.058  0.00  0.00    -0.018 A 
ATOM     12  C24 <0> A   1     -16.474  10.778  46.822  0.00  0.00    +0.053 A 
ATOM     13  F1  <0> A   1     -15.162  13.817  48.309  0.00  0.00    -0.139 F 
ENDBRANCH   3   7
BRANCH   1  15
ATOM     14  C1  <0> A   1     -17.921   5.581  50.174  0.00  0.00    +0.028 C 
ATOM     15  C2  <0> A   1     -18.356   5.624  48.707  0.00  0.00    +0.022 C 
ATOM     16  C3  <0> A   1     -19.697   6.351  48.593  0.00  0.00    +0.027 C 
ENDBRANCH   1  15
BRANCH   5  17
ATOM     17  C10 <0> A   1     -14.872   5.605  45.116  0.00  0.00    +0.031 C 
ATOM     18  C11 <0> A   1     -14.586   4.180  45.596  0.00  0.00    +0.029 C 
ATOM     19  C12 <0> A   1     -15.693   5.552  43.826  0.00  0.00    +0.025 C 
ENDBRANCH   5  17
BRANCH   4  20
ATOM     20  O1  <0> A   1     -14.463   8.344  45.663  0.00  0.00    -0.317 OA
BRANCH  20  21
ATOM     21  C13 <0> A   1     -13.105   8.211  46.085  0.00  0.00    +0.217 C 
BRANCH  21  22
ATOM     22  C14 <0> A   1     -12.366   9.531  45.849  0.00  0.00    +0.210 C 
ATOM     23  C15 <0> A   1     -11.680   9.972  47.143  0.00  0.00    +0.048 C 
ATOM     24  C16 <0> A   1     -10.976  11.313  46.915  0.00  0.00    +0.190 C 
ATOM     25  C17 <0> A   1     -12.021  12.353  46.486  0.00  0.00    +0.023 C 
ATOM     26  C18 <0> A   1     -12.807  11.785  45.325  0.00  0.00    +0.495 C 
ATOM     27  O2  <0> A   1     -12.986  12.432  44.320  0.00  0.00    -0.449 OA
ATOM     28  O3  <0> A   1     -13.302  10.536  45.443  0.00  0.00    -0.361 OA
BRANCH  24  29
ATOM     29  O4  <0> A   1      -9.992  11.169  45.889  0.00  0.00    -0.563 OA
ATOM     30  H25 <0> A   1      -9.136  10.851  46.208  0.00  0.00    +0.388 HD
ENDBRANCH  24  29
ENDBRANCH  21  22
ENDBRANCH  20  21
ENDBRANCH   4  20
TORSDOF 7
