REMARK VINA RESULT:      -7.5      2.733      4.991
REMARK  Name = CHEMBL63265
REMARK  13 active torsions:
REMARK  status: ('A' for Active; 'I' for Inactive)
REMARK    1  A    between atoms: C1_1  and  C2_2
REMARK    2  A    between atoms: C2_2  and  C3_3
REMARK    3  A    between atoms: C2_2  and  C4_4
REMARK    4  A    between atoms: C5_5  and  C19_22
REMARK    5  A    between atoms: C6_6  and  C13_15
REMARK    6  A    between atoms: N1_7  and  C7_9
REMARK    7  A    between atoms: C20_23  and  C21_24
REMARK    8  A    between atoms: C21_24  and  C22_25
REMARK    9  A    between atoms: C21_24  and  O4_33
REMARK   10  A    between atoms: C22_25  and  C23_26
REMARK   11  A    between atoms: C23_26  and  C24_28
REMARK   12  A    between atoms: C23_26  and  O3_32
REMARK   13  A    between atoms: C24_28  and  C25_29
REMARK                            x       y       z     vdW  Elec       q    Type
REMARK                         _______ _______ _______ _____ _____    ______ ____
ROOT
ATOM      1  C4  <0> A   1     -15.656  10.756  47.474  0.00  0.00    +0.105 C 
ATOM      2  C5  <0> A   1     -15.147   9.750  46.629  0.00  0.00    -0.165 C 
ATOM      3  C6  <0> A   1     -15.460   8.527  47.211  0.00  0.00    +0.126 C 
ATOM      4  N1  <0> A   1     -16.136   8.797  48.366  0.00  0.00    -0.319 N 
ATOM      5  N2  <0> A   1     -16.234  10.187  48.498  0.00  0.00    -0.276 NA
ENDROOT
BRANCH   3   6
ATOM      6  C13 <0> A   1     -15.126   7.190  46.681  0.00  0.00    -0.049 A 
ATOM      7  C14 <0> A   1     -16.065   6.480  45.930  0.00  0.00    +0.090 A 
ATOM      8  C15 <0> A   1     -15.747   5.232  45.437  0.00  0.00    -0.006 A 
ATOM      9  C16 <0> A   1     -14.500   4.682  45.687  0.00  0.00    +0.113 A 
ATOM     10  C17 <0> A   1     -13.565   5.381  46.432  0.00  0.00    -0.013 A 
ATOM     11  C18 <0> A   1     -13.869   6.633  46.925  0.00  0.00    +0.062 A 
ATOM     12  F1  <0> A   1     -14.195   3.458  45.203  0.00  0.00    -0.135 F 
ENDBRANCH   3   6
BRANCH   4  13
ATOM     13  C7  <0> A   1     -16.640   7.850  49.266  0.00  0.00    +0.155 A 
ATOM     14  C8  <0> A   1     -15.833   7.359  50.284  0.00  0.00    +0.005 A 
ATOM     15  C9  <0> A   1     -16.334   6.425  51.170  0.00  0.00    +0.034 A 
ATOM     16  C10 <0> A   1     -17.636   5.979  51.044  0.00  0.00    +0.007 A 
ATOM     17  C11 <0> A   1     -18.443   6.466  50.032  0.00  0.00    +0.030 A 
ATOM     18  C12 <0> A   1     -17.950   7.404  49.147  0.00  0.00    +0.021 A 
ENDBRANCH   4  13
BRANCH   1  20
ATOM     19  C1  <0> A   1     -16.840  12.925  47.691  0.00  0.00    +0.036 C 
ATOM     20  C2  <0> A   1     -15.549  12.241  47.237  0.00  0.00    +0.079 C 
ATOM     21  C3  <0> A   1     -14.368  12.800  48.034  0.00  0.00    +0.036 C 
ENDBRANCH   1  20
BRANCH   2  22
ATOM     22  C19 <0> A   1     -14.416   9.956  45.363  0.00  0.00    +0.040 C 
ATOM     23  C20 <0> A   1     -13.100   9.786  45.321  0.00  0.00    -0.056 C 
BRANCH  23  24
ATOM     24  C21 <0> A   1     -12.355   9.996  44.029  0.00  0.00    +0.250 C 
BRANCH  24  25
ATOM     25  O4  <0> A   1     -11.432   8.924  43.832  0.00  0.00    -0.539 OA
ATOM     26  H26 <0> A   1     -10.503   9.188  43.888  0.00  0.00    +0.366 HD
ENDBRANCH  24  25
BRANCH  24  27
ATOM     27  C22 <0> A   1     -13.349  10.035  42.867  0.00  0.00    -0.042 C 
BRANCH  27  28
ATOM     28  C23 <0> A   1     -12.822  10.969  41.776  0.00  0.00    +0.230 C 
BRANCH  28  29
ATOM     29  O3  <0> A   1     -11.535  10.523  41.346  0.00  0.00    -0.528 OA
ATOM     30  H25 <0> A   1     -11.119   9.889  41.945  0.00  0.00    +0.350 HD
ENDBRANCH  28  29
BRANCH  28  31
ATOM     31  C24 <0> A   1     -13.788  10.961  40.589  0.00  0.00    -0.102 C 
BRANCH  31  32
ATOM     32  C25 <0> A   1     -13.002  10.993  39.303  0.00  0.00    +0.491 C 
ATOM     33  O1  <0> A   1     -12.765   9.956  38.707  0.00  0.00    -0.681 OA
ATOM     34  O2  <0> A   1     -12.604  12.056  38.858  0.00  0.00    -0.714 OA
ENDBRANCH  31  32
ENDBRANCH  28  31
ENDBRANCH  27  28
ENDBRANCH  24  27
ENDBRANCH  23  24
ENDBRANCH   2  22
TORSDOF 11
