REMARK VINA RESULT:      -7.7     20.648     24.656
REMARK  Name = CHEMBL346446
REMARK  10 active torsions:
REMARK  status: ('A' for Active; 'I' for Inactive)
REMARK    1  A    between atoms: C1_1  and  C2_2
REMARK    2  A    between atoms: C2_2  and  C3_3
REMARK    3  A    between atoms: C2_2  and  C4_4
REMARK    4  A    between atoms: C5_5  and  C17_20
REMARK    5  A    between atoms: C6_6  and  C11_13
REMARK    6  A    between atoms: C7_8  and  C8_10
REMARK    7  A    between atoms: C8_10  and  C9_11
REMARK    8  A    between atoms: C8_10  and  C10_12
REMARK    9  A    between atoms: C18_21  and  C19_22
REMARK   10  A    between atoms: C21_24  and  O3_30
REMARK                            x       y       z     vdW  Elec       q    Type
REMARK                         _______ _______ _______ _____ _____    ______ ____
ROOT
ATOM      1  C4  <0> A   1     -26.527  -3.419  51.680  0.00  0.00    +0.204 A 
ATOM      2  C5  <0> A   1     -26.227  -4.776  51.542  0.00  0.00    -0.160 A 
ATOM      3  C6  <0> A   1     -24.941  -5.126  51.080  0.00  0.00    +0.230 A 
ATOM      4  N1  <0> A   1     -24.077  -4.154  50.799  0.00  0.00    -0.505 NA
ATOM      5  C7  <0> A   1     -24.411  -2.890  50.948  0.00  0.00    +0.334 A 
ATOM      6  N2  <0> A   1     -25.605  -2.523  51.372  0.00  0.00    -0.511 NA
ENDROOT
BRANCH   3   7
ATOM      7  C11 <0> A   1     -24.561  -6.548  50.911  0.00  0.00    -0.072 A 
ATOM      8  C12 <0> A   1     -24.100  -7.283  52.002  0.00  0.00    +0.086 A 
ATOM      9  C13 <0> A   1     -23.746  -8.606  51.840  0.00  0.00    -0.018 A 
ATOM     10  C14 <0> A   1     -23.849  -9.205  50.594  0.00  0.00    +0.120 A 
ATOM     11  C15 <0> A   1     -24.307  -8.479  49.507  0.00  0.00    -0.019 A 
ATOM     12  C16 <0> A   1     -24.669  -7.157  49.660  0.00  0.00    +0.096 A 
ATOM     13  F1  <0> A   1     -23.501 -10.501  50.440  0.00  0.00    -0.135 F 
ENDBRANCH   3   7
BRANCH   1  15
ATOM     14  C1  <0> A   1     -27.723  -1.812  53.143  0.00  0.00    +0.044 C 
ATOM     15  C2  <0> A   1     -27.884  -2.982  52.170  0.00  0.00    +0.045 C 
ATOM     16  C3  <0> A   1     -28.739  -2.542  50.979  0.00  0.00    +0.045 C 
ENDBRANCH   1  15
BRANCH   5  17
ATOM     17  C8  <0> A   1     -23.398  -1.825  50.617  0.00  0.00    +0.070 C 
ATOM     18  C9  <0> A   1     -24.111  -0.487  50.414  0.00  0.00    +0.045 C 
ATOM     19  C10 <0> A   1     -22.396  -1.700  51.767  0.00  0.00    +0.045 C 
ENDBRANCH   5  17
BRANCH   2  20
ATOM     20  C17 <0> A   1     -27.226  -5.814  51.868  0.00  0.00    +0.052 C 
ATOM     21  C18 <0> A   1     -28.081  -6.226  50.942  0.00  0.00    -0.007 C 
BRANCH  21  22
ATOM     22  C19 <0> A   1     -29.100  -7.286  51.275  0.00  0.00    +0.244 C 
ATOM     23  C20 <0> A   1     -29.467  -7.192  52.758  0.00  0.00    +0.051 C 
ATOM     24  C21 <0> A   1     -30.473  -8.296  53.104  0.00  0.00    +0.186 C 
ATOM     25  C22 <0> A   1     -29.836  -9.659  52.798  0.00  0.00    +0.024 C 
ATOM     26  C23 <0> A   1     -29.311  -9.629  51.379  0.00  0.00    +0.498 C 
ATOM     27  O1  <0> A   1     -29.564 -10.522  50.605  0.00  0.00    -0.449 OA
ATOM     28  O2  <0> A   1     -28.551  -8.580  51.005  0.00  0.00    -0.370 OA
BRANCH  24  29
ATOM     29  O3  <0> A   1     -31.654  -8.130  52.318  0.00  0.00    -0.563 OA
ATOM     30  H27 <0> A   1     -32.475  -8.285  52.805  0.00  0.00    +0.388 HD
ENDBRANCH  24  29
ENDBRANCH  21  22
ENDBRANCH   2  20
TORSDOF 6
