REMARK VINA RESULT:      -7.7     10.932     13.573
REMARK  Name = CHEMBL400576
REMARK  14 active torsions:
REMARK  status: ('A' for Active; 'I' for Inactive)
REMARK    1  A    between atoms: C1_1  and  C2_2
REMARK    2  A    between atoms: C2_2  and  C3_3
REMARK    3  A    between atoms: C2_2  and  C4_4
REMARK    4  A    between atoms: C5_5  and  C19_29
REMARK    5  A    between atoms: N2_7  and  C13_22
REMARK    6  A    between atoms: C6_8  and  O1_9
REMARK    7  A    between atoms: O1_9  and  C7_10
REMARK    8  A    between atoms: C7_10  and  C8_11
REMARK    9  A    between atoms: C8_11  and  C9_13
REMARK   10  A    between atoms: C8_11  and  O5_21
REMARK   11  A    between atoms: C9_13  and  C10_14
REMARK   12  A    between atoms: C10_14  and  C11_16
REMARK   13  A    between atoms: C10_14  and  O4_20
REMARK   14  A    between atoms: C11_16  and  C12_17
REMARK                            x       y       z     vdW  Elec       q    Type
REMARK                         _______ _______ _______ _____ _____    ______ ____
ROOT
ATOM      1  C4  <0> A   1      -3.141   6.530  49.054  0.00  0.00    -0.182 C 
ATOM      2  C5  <0> A   1      -3.072   7.254  50.262  0.00  0.00    +0.060 C 
ATOM      3  N1  <0> A   1      -3.719   6.569  51.187  0.00  0.00    -0.234 NA
ATOM      4  N2  <0> A   1      -4.214   5.398  50.599  0.00  0.00    -0.327 N 
ATOM      5  C6  <0> A   1      -3.851   5.399  49.287  0.00  0.00    +0.269 C 
ENDROOT
BRANCH   2   6
ATOM      6  C19 <0> A   1      -2.395   8.551  50.460  0.00  0.00    +0.610 C 
ATOM      7  O6  <0> A   1      -2.816   9.548  49.905  0.00  0.00    -0.516 OA
ATOM      8  N3  <0> A   1      -1.311   8.631  51.256  0.00  0.00    -0.599 N 
ATOM      9  C20 <0> A   1      -0.729   7.421  51.852  0.00  0.00    +0.265 C 
ATOM     10  C21 <0> A   1       0.762   7.367  51.504  0.00  0.00    +0.011 C 
ATOM     11  C22 <0> A   1       1.432   8.670  51.947  0.00  0.00    +0.012 C 
ATOM     12  C23 <0> A   1       0.804   9.848  51.199  0.00  0.00    +0.011 C 
ATOM     13  C24 <0> A   1      -0.683   9.929  51.539  0.00  0.00    +0.279 C 
ENDBRANCH   2   6
BRANCH   4  14
ATOM     14  C13 <0> A   1      -4.957   4.403  51.246  0.00  0.00    +0.128 A 
ATOM     15  C14 <0> A   1      -4.330   3.252  51.703  0.00  0.00    +0.066 A 
ATOM     16  C15 <0> A   1      -5.064   2.272  52.340  0.00  0.00    +0.008 A 
ATOM     17  C16 <0> A   1      -6.427   2.436  52.524  0.00  0.00    +0.107 A 
ATOM     18  C17 <0> A   1      -7.055   3.583  52.069  0.00  0.00    +0.018 A 
ATOM     19  C18 <0> A   1      -6.323   4.569  51.437  0.00  0.00    +0.065 A 
ATOM     20  F1  <0> A   1      -7.145   1.476  53.147  0.00  0.00    -0.132 F 
ENDBRANCH   4  14
BRANCH   1  22
ATOM     21  C1  <0> A   1      -1.694   5.796  47.178  0.00  0.00    +0.025 C 
ATOM     22  C2  <0> A   1      -2.537   6.944  47.736  0.00  0.00    +0.062 C 
ATOM     23  C3  <0> A   1      -3.655   7.284  46.748  0.00  0.00    +0.036 C 
ENDBRANCH   1  22
BRANCH   5  24
ATOM     24  O1  <0> A   1      -4.144   4.437  48.374  0.00  0.00    -0.283 OA
BRANCH  24  25
ATOM     25  C7  <0> A   1      -5.466   4.439  47.832  0.00  0.00    +0.155 C 
BRANCH  25  26
ATOM     26  C8  <0> A   1      -5.409   4.059  46.351  0.00  0.00    +0.230 C 
BRANCH  26  27
ATOM     27  O5  <0> A   1      -4.048   3.864  45.961  0.00  0.00    -0.527 OA
ATOM     28  H17 <0> A   1      -3.905   3.889  45.005  0.00  0.00    +0.364 HD
ENDBRANCH  26  27
BRANCH  26  29
ATOM     29  C9  <0> A   1      -6.193   2.764  46.126  0.00  0.00    -0.040 C 
BRANCH  29  30
ATOM     30  C10 <0> A   1      -6.799   2.771  44.721  0.00  0.00    +0.236 C 
BRANCH  30  31
ATOM     31  O4  <0> A   1      -6.179   3.795  43.941  0.00  0.00    -0.526 OA
ATOM     32  H16 <0> A   1      -5.803   3.480  43.107  0.00  0.00    +0.351 HD
ENDBRANCH  30  31
BRANCH  30  33
ATOM     33  C11 <0> A   1      -6.566   1.412  44.059  0.00  0.00    -0.101 C 
BRANCH  33  34
ATOM     34  C12 <0> A   1      -5.095   1.087  44.086  0.00  0.00    +0.491 C 
ATOM     35  O2  <0> A   1      -4.284   1.891  43.660  0.00  0.00    -0.680 OA
ATOM     36  O3  <0> A   1      -4.714   0.019  44.536  0.00  0.00    -0.712 OA
ENDBRANCH  33  34
ENDBRANCH  30  33
ENDBRANCH  29  30
ENDBRANCH  26  29
ENDBRANCH  25  26
ENDBRANCH  24  25
ENDBRANCH   5  24
TORSDOF 12
