REMARK VINA RESULT:      -6.7      2.141      5.002
REMARK  Name = CHEMBL330995
REMARK  12 active torsions:
REMARK  status: ('A' for Active; 'I' for Inactive)
REMARK    1  A    between atoms: C3_3  and  C5_6
REMARK    2  A    between atoms: C6_7  and  C16_28
REMARK    3  A    between atoms: N1_8  and  C9_15
REMARK    4  A    between atoms: C7_9  and  C8_11
REMARK    5  A    between atoms: C9_15  and  C10_16
REMARK    6  A    between atoms: C10_16  and  C11_17
REMARK    7  A    between atoms: C11_17  and  C12_19
REMARK    8  A    between atoms: C11_17  and  O4_27
REMARK    9  A    between atoms: C12_19  and  C13_20
REMARK   10  A    between atoms: C13_20  and  C14_22
REMARK   11  A    between atoms: C13_20  and  O3_26
REMARK   12  A    between atoms: C14_22  and  C15_23
REMARK                            x       y       z     vdW  Elec       q    Type
REMARK                         _______ _______ _______ _____ _____    ______ ____
ROOT
ATOM      1  C5  <0> A   1     -15.670   9.033  47.075  0.00  0.00    +0.099 C 
ATOM      2  C6  <0> A   1     -14.654   8.533  46.276  0.00  0.00    +0.082 C 
ATOM      3  N1  <0> A   1     -13.831   9.598  45.991  0.00  0.00    -0.412 N 
ATOM      4  C7  <0> A   1     -14.354  10.688  46.607  0.00  0.00    +0.118 C 
ATOM      5  N2  <0> A   1     -15.442  10.350  47.240  0.00  0.00    -0.410 NA
ENDROOT
BRANCH   2   6
ATOM      6  C16 <0> A   1     -14.490   7.138  45.822  0.00  0.00    -0.047 A 
ATOM      7  C17 <0> A   1     -13.841   6.207  46.636  0.00  0.00    +0.065 A 
ATOM      8  C18 <0> A   1     -13.691   4.906  46.206  0.00  0.00    -0.005 A 
ATOM      9  C19 <0> A   1     -14.182   4.521  44.969  0.00  0.00    +0.118 A 
ATOM     10  C20 <0> A   1     -14.826   5.439  44.156  0.00  0.00    -0.003 A 
ATOM     11  C21 <0> A   1     -14.988   6.742  44.577  0.00  0.00    +0.087 A 
ATOM     12  F4  <0> A   1     -14.031   3.243  44.553  0.00  0.00    -0.134 F 
ENDBRANCH   2   6
BRANCH   1  15
ATOM     13  C1  <0> A   1     -18.670   6.822  47.733  0.00  0.00    -0.018 C 
ATOM     14  C2  <0> A   1     -17.686   7.441  46.993  0.00  0.00    +0.007 C 
ATOM     15  C3  <0> A   1     -16.799   8.264  47.636  0.00  0.00    -0.072 C 
ATOM     16  S1  <0> A   1     -17.365   8.166  49.325  0.00  0.00    +0.074 S 
ATOM     17  C4  <0> A   1     -18.732   7.046  49.070  0.00  0.00    +0.009 C 
ENDBRANCH   1  15
BRANCH   4  18
ATOM     18  C8  <0> A   1     -13.770  12.077  46.561  0.00  0.00    +0.566 C 
ATOM     19  F1  <0> A   1     -12.478  12.058  47.099  0.00  0.00    -0.149 F 
ATOM     20  F2  <0> A   1     -13.715  12.516  45.234  0.00  0.00    -0.164 F 
ATOM     21  F3  <0> A   1     -14.573  12.946  47.308  0.00  0.00    -0.163 F 
ENDBRANCH   4  18
BRANCH   3  22
ATOM     22  C9  <0> A   1     -12.615   9.563  45.173  0.00  0.00    +0.308 C 
BRANCH  22  23
ATOM     23  C10 <0> A   1     -12.992   9.671  43.695  0.00  0.00    -0.008 C 
BRANCH  23  24
ATOM     24  C11 <0> A   1     -12.159   8.680  42.882  0.00  0.00    +0.221 C 
BRANCH  24  25
ATOM     25  O4  <0> A   1     -11.767   7.589  43.719  0.00  0.00    -0.540 OA
ATOM     26  H15 <0> A   1     -12.376   7.416  44.450  0.00  0.00    +0.369 HD
ENDBRANCH  24  25
BRANCH  24  27
ATOM     27  C12 <0> A   1     -12.992   8.152  41.712  0.00  0.00    -0.046 C 
BRANCH  27  28
ATOM     28  C13 <0> A   1     -12.621   8.912  40.438  0.00  0.00    +0.232 C 
BRANCH  28  29
ATOM     29  O3  <0> A   1     -12.282   7.981  39.408  0.00  0.00    -0.528 OA
ATOM     30  H14 <0> A   1     -11.940   7.139  39.735  0.00  0.00    +0.351 HD
ENDBRANCH  28  29
BRANCH  28  31
ATOM     31  C14 <0> A   1     -13.810   9.762  39.986  0.00  0.00    -0.102 C 
BRANCH  31  32
ATOM     32  C15 <0> A   1     -13.382  11.202  39.866  0.00  0.00    +0.491 C 
ATOM     33  O1  <0> A   1     -13.701  11.852  38.884  0.00  0.00    -0.681 OA
ATOM     34  O2  <0> A   1     -12.717  11.717  40.748  0.00  0.00    -0.712 OA
ENDBRANCH  31  32
ENDBRANCH  28  31
ENDBRANCH  27  28
ENDBRANCH  24  27
ENDBRANCH  23  24
ENDBRANCH  22  23
ENDBRANCH   3  22
TORSDOF 12
