REMARK VINA RESULT:      -7.4      2.444      4.594
REMARK  Name = CHEMBL331680
REMARK  15 active torsions:
REMARK  status: ('A' for Active; 'I' for Inactive)
REMARK    1  A    between atoms: C1_1  and  C2_2
REMARK    2  A    between atoms: C2_2  and  C3_3
REMARK    3  A    between atoms: C2_2  and  C4_4
REMARK    4  A    between atoms: C6_6  and  C22_30
REMARK    5  A    between atoms: C7_7  and  C16_23
REMARK    6  A    between atoms: N1_8  and  C8_9
REMARK    7  A    between atoms: C9_10  and  C10_11
REMARK    8  A    between atoms: C10_11  and  C11_13
REMARK    9  A    between atoms: C10_11  and  O4_22
REMARK   10  A    between atoms: C11_13  and  C12_14
REMARK   11  A    between atoms: C12_14  and  C13_16
REMARK   12  A    between atoms: C12_14  and  O3_21
REMARK   13  A    between atoms: C13_16  and  C14_17
REMARK   14  A    between atoms: C14_17  and  O2_19
REMARK   15  A    between atoms: O2_19  and  C15_20
REMARK                            x       y       z     vdW  Elec       q    Type
REMARK                         _______ _______ _______ _____ _____    ______ ____
ROOT
ATOM      1  C4  <0> A   1     -13.050   9.836  46.027  0.00  0.00    +0.038 C 
ATOM      2  C5  <0> A   1     -13.525   9.700  47.279  0.00  0.00    -0.017 C 
ATOM      3  C6  <0> A   1     -14.259   8.490  47.332  0.00  0.00    -0.114 C 
ATOM      4  C7  <0> A   1     -14.195   7.925  46.069  0.00  0.00    +0.101 C 
ATOM      5  N1  <0> A   1     -13.454   8.766  45.278  0.00  0.00    -0.391 N 
ENDROOT
BRANCH   4   6
ATOM      6  C16 <0> A   1     -14.815   6.653  45.649  0.00  0.00    -0.037 A 
ATOM      7  C17 <0> A   1     -14.123   5.450  45.806  0.00  0.00    +0.053 A 
ATOM      8  C18 <0> A   1     -14.708   4.265  45.412  0.00  0.00    -0.029 A 
ATOM      9  C19 <0> A   1     -15.979   4.266  44.862  0.00  0.00    +0.108 A 
ATOM     10  C20 <0> A   1     -16.671   5.457  44.704  0.00  0.00    -0.031 A 
ATOM     11  C21 <0> A   1     -16.099   6.647  45.099  0.00  0.00    +0.129 A 
ATOM     12  F1  <0> A   1     -16.547   3.102  44.477  0.00  0.00    -0.141 F 
ENDBRANCH   4   6
BRANCH   3  13
ATOM     13  C22 <0> A   1     -14.960   7.935  48.512  0.00  0.00    +0.208 A 
ATOM     14  C23 <0> A   1     -14.235   7.261  49.496  0.00  0.00    -0.030 A 
ATOM     15  C24 <0> A   1     -14.905   6.749  50.591  0.00  0.00    +0.064 A 
ATOM     16  C25 <0> A   1     -16.280   6.925  50.670  0.00  0.00    -0.052 A 
ATOM     17  C26 <0> A   1     -16.937   7.603  49.660  0.00  0.00    +0.258 A 
ATOM     18  N2  <0> A   1     -16.274   8.087  48.629  0.00  0.00    -0.481 NA
ENDBRANCH   3  13
BRANCH   1  20
ATOM     19  C1  <0> A   1     -12.862  12.307  45.942  0.00  0.00    +0.041 C 
ATOM     20  C2  <0> A   1     -12.212  10.985  45.528  0.00  0.00    +0.051 C 
ATOM     21  C3  <0> A   1     -10.810  10.895  46.135  0.00  0.00    +0.033 C 
ENDBRANCH   1  20
BRANCH   5  22
ATOM     22  C8  <0> A   1     -13.159   8.561  43.931  0.00  0.00    +0.201 C 
ATOM     23  C9  <0> A   1     -12.169   7.759  43.588  0.00  0.00    -0.054 C 
BRANCH  23  24
ATOM     24  C10 <0> A   1     -11.849   7.538  42.132  0.00  0.00    +0.268 C 
BRANCH  24  25
ATOM     25  O4  <0> A   1     -11.520   6.164  41.919  0.00  0.00    -0.538 OA
ATOM     26  H21 <0> A   1     -11.498   5.905  40.988  0.00  0.00    +0.370 HD
ENDBRANCH  24  25
BRANCH  24  27
ATOM     27  C11 <0> A   1     -13.066   7.909  41.280  0.00  0.00    -0.015 C 
BRANCH  27  28
ATOM     28  C12 <0> A   1     -12.641   8.881  40.178  0.00  0.00    +0.233 C 
BRANCH  28  29
ATOM     29  O3  <0> A   1     -12.216   8.141  39.031  0.00  0.00    -0.530 OA
ATOM     30  H20 <0> A   1     -11.783   8.679  38.354  0.00  0.00    +0.366 HD
ENDBRANCH  28  29
BRANCH  28  31
ATOM     31  C13 <0> A   1     -13.824   9.773  39.800  0.00  0.00    +0.073 C 
BRANCH  31  32
ATOM     32  C14 <0> A   1     -13.415  11.220  39.905  0.00  0.00    +0.456 C 
ATOM     33  O1  <0> A   1     -13.491  11.940  38.938  0.00  0.00    -0.486 OA
BRANCH  32  34
ATOM     34  O2  <0> A   1     -12.968  11.707  41.072  0.00  0.00    -0.359 OA
ATOM     35  C15 <0> A   1     -13.883  11.703  42.170  0.00  0.00    +0.258 C 
ENDBRANCH  32  34
ENDBRANCH  31  32
ENDBRANCH  28  31
ENDBRANCH  27  28
ENDBRANCH  24  27
ENDBRANCH  23  24
ENDBRANCH   5  22
TORSDOF 12
