REMARK VINA RESULT:      -8.5      0.000      0.000
REMARK  Name = CHEMBL143347
REMARK  12 active torsions:
REMARK  status: ('A' for Active; 'I' for Inactive)
REMARK    1  A    between atoms: C1_1  and  C2_2
REMARK    2  A    between atoms: C2_2  and  C3_3
REMARK    3  A    between atoms: C2_2  and  C4_4
REMARK    4  A    between atoms: C5_5  and  C19_22
REMARK    5  A    between atoms: C6_6  and  C13_15
REMARK    6  A    between atoms: C20_23  and  C21_24
REMARK    7  A    between atoms: C21_24  and  C22_25
REMARK    8  A    between atoms: C21_24  and  O4_33
REMARK    9  A    between atoms: C22_25  and  C23_26
REMARK   10  A    between atoms: C23_26  and  C24_28
REMARK   11  A    between atoms: C23_26  and  O3_32
REMARK   12  A    between atoms: C24_28  and  C25_29
REMARK                            x       y       z     vdW  Elec       q    Type
REMARK                         _______ _______ _______ _____ _____    ______ ____
ROOT
ATOM      1  C4  <0> A   1     -15.135   6.232  45.435  0.00  0.00    +0.189 A 
ATOM      2  C5  <0> A   1     -14.362   7.398  45.330  0.00  0.00    -0.076 A 
ATOM      3  C6  <0> A   1     -14.605   8.464  46.207  0.00  0.00    +0.019 A 
ATOM      4  C7  <0> A   1     -15.634   8.305  47.169  0.00  0.00    -0.082 A 
ATOM      5  C8  <0> A   1     -15.939   9.323  48.082  0.00  0.00    +0.058 A 
ATOM      6  C9  <0> A   1     -16.936   9.135  48.993  0.00  0.00    -0.033 A 
ATOM      7  C10 <0> A   1     -17.655   7.941  49.027  0.00  0.00    +0.042 A 
ATOM      8  C11 <0> A   1     -17.382   6.933  48.155  0.00  0.00    +0.070 A 
ATOM      9  C12 <0> A   1     -16.363   7.091  47.200  0.00  0.00    +0.134 A 
ATOM     10  N1  <0> A   1     -16.083   6.114  46.329  0.00  0.00    -0.465 NA
ATOM     11 Cl1  <0> A   1     -17.314  10.397  50.124  0.00  0.00    -0.066 Cl
ENDROOT
BRANCH   3  12
ATOM     12  C13 <0> A   1     -13.815   9.712  46.133  0.00  0.00    -0.064 A 
ATOM     13  C14 <0> A   1     -14.246  10.767  45.328  0.00  0.00    +0.073 A 
ATOM     14  C15 <0> A   1     -13.506  11.928  45.263  0.00  0.00    -0.006 A 
ATOM     15  C16 <0> A   1     -12.334  12.048  45.994  0.00  0.00    +0.110 A 
ATOM     16  C17 <0> A   1     -11.900  11.003  46.794  0.00  0.00    -0.011 A 
ATOM     17  C18 <0> A   1     -12.637   9.839  46.872  0.00  0.00    +0.062 A 
ATOM     18  F1  <0> A   1     -11.612  13.189  45.926  0.00  0.00    -0.136 F 
ENDBRANCH   3  12
BRANCH   1  20
ATOM     19  C1  <0> A   1     -14.138   3.970  45.234  0.00  0.00    +0.041 C 
ATOM     20  C2  <0> A   1     -14.871   5.088  44.489  0.00  0.00    +0.039 C 
ATOM     21  C3  <0> A   1     -16.200   4.556  43.948  0.00  0.00    +0.040 C 
ENDBRANCH   1  20
BRANCH   2  22
ATOM     22  C19 <0> A   1     -13.304   7.502  44.306  0.00  0.00    +0.010 C 
ATOM     23  C20 <0> A   1     -13.629   7.680  43.031  0.00  0.00    -0.037 C 
BRANCH  23  24
ATOM     24  C21 <0> A   1     -12.549   7.786  41.986  0.00  0.00    +0.252 C 
BRANCH  24  25
ATOM     25  O4  <0> A   1     -11.796   6.571  41.954  0.00  0.00    -0.536 OA
ATOM     26  H24 <0> A   1     -10.867   6.678  42.200  0.00  0.00    +0.366 HD
ENDBRANCH  24  25
BRANCH  24  27
ATOM     27  C22 <0> A   1     -13.187   8.026  40.616  0.00  0.00    -0.041 C 
BRANCH  27  28
ATOM     28  C23 <0> A   1     -12.537   9.244  39.958  0.00  0.00    +0.232 C 
BRANCH  28  29
ATOM     29  O3  <0> A   1     -12.835   9.245  38.560  0.00  0.00    -0.527 OA
ATOM     30  H23 <0> A   1     -13.780   9.208  38.360  0.00  0.00    +0.350 HD
ENDBRANCH  28  29
BRANCH  28  31
ATOM     31  C24 <0> A   1     -13.085  10.523  40.597  0.00  0.00    -0.102 C 
BRANCH  31  32
ATOM     32  C25 <0> A   1     -13.907  11.278  39.584  0.00  0.00    +0.490 C 
ATOM     33  O1  <0> A   1     -15.118  11.145  39.561  0.00  0.00    -0.681 OA
ATOM     34  O2  <0> A   1     -13.359  12.022  38.789  0.00  0.00    -0.713 OA
ENDBRANCH  31  32
ENDBRANCH  28  31
ENDBRANCH  27  28
ENDBRANCH  24  27
ENDBRANCH  23  24
ENDBRANCH   2  22
TORSDOF 10
