REMARK VINA RESULT:      -8.0      1.615      2.022
REMARK  Name = CHEMBL47301
REMARK  7 active torsions:
REMARK  status: ('A' for Active; 'I' for Inactive)
REMARK    1  A    between atoms: C4_4  and  C7_7
REMARK    2  A    between atoms: C7_7  and  C8_8
REMARK    3  A    between atoms: C8_8  and  O1_9
REMARK    4  A    between atoms: O1_9  and  C9_10
REMARK    5  A    between atoms: C14_15  and  C15_16
REMARK    6  A    between atoms: C16_17  and  C17_18
REMARK    7  A    between atoms: C19_20  and  O4_26
REMARK                            x       y       z     vdW  Elec       q    Type
REMARK                         _______ _______ _______ _____ _____    ______ ____
ROOT
ATOM      1  C9  <0> A   1     -30.477  22.110  35.621  0.00  0.00    +0.171 A 
ATOM      2  C10 <0> A   1     -29.942  22.485  36.842  0.00  0.00    -0.051 A 
ATOM      3  C11 <0> A   1     -30.577  22.125  38.018  0.00  0.00    +0.017 A 
ATOM      4  C12 <0> A   1     -31.749  21.388  37.983  0.00  0.00    +0.011 A 
ATOM      5  C13 <0> A   1     -32.295  21.007  36.773  0.00  0.00    +0.016 A 
ATOM      6  C14 <0> A   1     -31.665  21.370  35.581  0.00  0.00    -0.078 A 
ATOM      7 Cl1  <0> A   1     -33.764  20.083  36.735  0.00  0.00    -0.037 Cl
ATOM      8 Cl2  <0> A   1     -29.899  22.599  39.545  0.00  0.00    -0.049 Cl
ENDROOT
BRANCH   6   9
ATOM      9  C15 <0> A   1     -32.247  20.971  34.283  0.00  0.00    +0.057 C 
ATOM     10  C16 <0> A   1     -31.949  19.790  33.759  0.00  0.00    -0.011 C 
BRANCH  10  11
ATOM     11  C17 <0> A   1     -32.542  19.382  32.434  0.00  0.00    +0.243 C 
ATOM     12  C18 <0> A   1     -31.613  18.379  31.745  0.00  0.00    +0.051 C 
ATOM     13  C19 <0> A   1     -32.199  17.999  30.381  0.00  0.00    +0.186 C 
ATOM     14  C20 <0> A   1     -32.338  19.267  29.530  0.00  0.00    +0.023 C 
ATOM     15  C21 <0> A   1     -33.094  20.301  30.336  0.00  0.00    +0.498 C 
ATOM     16  O2  <0> A   1     -34.031  20.896  29.860  0.00  0.00    -0.451 OA
ATOM     17  O3  <0> A   1     -32.691  20.538  31.601  0.00  0.00    -0.367 OA
BRANCH  13  18
ATOM     18  O4  <0> A   1     -33.483  17.398  30.563  0.00  0.00    -0.564 OA
ATOM     19  H20 <0> A   1     -33.498  16.696  31.227  0.00  0.00    +0.387 HD
ENDBRANCH  13  18
ENDBRANCH  10  11
ENDBRANCH   6   9
BRANCH   1  20
ATOM     20  O1  <0> A   1     -29.854  22.463  34.467  0.00  0.00    -0.296 OA
BRANCH  20  21
ATOM     21  C8  <0> A   1     -29.094  23.673  34.484  0.00  0.00    +0.198 C 
BRANCH  21  22
ATOM     22  C7  <0> A   1     -27.625  23.349  34.765  0.00  0.00    +0.096 C 
BRANCH  22  26
ATOM     23  C1  <0> A   1     -25.276  24.310  31.329  0.00  0.00    +0.005 A 
ATOM     24  C2  <0> A   1     -26.458  23.608  31.184  0.00  0.00    +0.006 A 
ATOM     25  C3  <0> A   1     -27.218  23.297  32.296  0.00  0.00    +0.010 A 
ATOM     26  C4  <0> A   1     -26.796  23.687  33.553  0.00  0.00    -0.088 A 
ATOM     27  C5  <0> A   1     -25.614  24.389  33.698  0.00  0.00    +0.011 A 
ATOM     28  C6  <0> A   1     -24.855  24.701  32.586  0.00  0.00    +0.007 A 
ENDBRANCH  22  26
ENDBRANCH  21  22
ENDBRANCH  20  21
ENDBRANCH   1  20
TORSDOF 7
