REMARK VINA RESULT:      -8.1      2.531      4.437
REMARK  Name = CHEMBL333258
REMARK  7 active torsions:
REMARK  status: ('A' for Active; 'I' for Inactive)
REMARK    1  A    between atoms: C1_1  and  C2_2
REMARK    2  A    between atoms: C2_2  and  C3_3
REMARK    3  A    between atoms: C2_2  and  C4_4
REMARK    4  A    between atoms: C5_5  and  C19_22
REMARK    5  A    between atoms: C6_6  and  C13_15
REMARK    6  A    between atoms: C20_23  and  C21_24
REMARK    7  A    between atoms: C23_27  and  O3_33
REMARK                            x       y       z     vdW  Elec       q    Type
REMARK                         _______ _______ _______ _____ _____    ______ ____
ROOT
ATOM      1  C4  <0> A   1     -25.083  -1.391  52.037  0.00  0.00    +0.189 A 
ATOM      2  C5  <0> A   1     -25.844  -2.357  51.361  0.00  0.00    -0.092 A 
ATOM      3  C6  <0> A   1     -27.215  -2.138  51.167  0.00  0.00    +0.028 A 
ATOM      4  C7  <0> A   1     -27.768  -0.934  51.670  0.00  0.00    -0.083 A 
ATOM      5  C8  <0> A   1     -29.129  -0.640  51.517  0.00  0.00    +0.057 A 
ATOM      6  C9  <0> A   1     -29.627   0.528  52.015  0.00  0.00    -0.031 A 
ATOM      7  C10 <0> A   1     -28.796   1.434  52.673  0.00  0.00    +0.049 A 
ATOM      8  C11 <0> A   1     -27.470   1.178  52.837  0.00  0.00    +0.071 A 
ATOM      9  C12 <0> A   1     -26.921  -0.016  52.339  0.00  0.00    +0.137 A 
ATOM     10  N1  <0> A   1     -25.620  -0.290  52.496  0.00  0.00    -0.462 NA
ATOM     11 Cl1  <0> A   1     -31.314   0.892  51.825  0.00  0.00    -0.060 Cl
ENDROOT
BRANCH   3  12
ATOM     12  C13 <0> A   1     -28.055  -3.129  50.461  0.00  0.00    -0.067 A 
ATOM     13  C14 <0> A   1     -28.059  -3.177  49.066  0.00  0.00    +0.073 A 
ATOM     14  C15 <0> A   1     -28.844  -4.102  48.413  0.00  0.00    -0.011 A 
ATOM     15  C16 <0> A   1     -29.630  -4.984  49.139  0.00  0.00    +0.110 A 
ATOM     16  C17 <0> A   1     -29.632  -4.940  50.524  0.00  0.00    -0.009 A 
ATOM     17  C18 <0> A   1     -28.845  -4.022  51.188  0.00  0.00    +0.067 A 
ATOM     18  F1  <0> A   1     -30.399  -5.889  48.494  0.00  0.00    -0.136 F 
ENDBRANCH   3  12
BRANCH   1  20
ATOM     19  C1  <0> A   1     -22.808  -0.600  51.444  0.00  0.00    +0.042 C 
ATOM     20  C2  <0> A   1     -23.609  -1.630  52.243  0.00  0.00    +0.037 C 
ATOM     21  C3  <0> A   1     -23.274  -1.495  53.730  0.00  0.00    +0.041 C 
ENDBRANCH   1  20
BRANCH   2  22
ATOM     22  C19 <0> A   1     -25.208  -3.591  50.861  0.00  0.00    +0.056 C 
ATOM     23  C20 <0> A   1     -25.229  -4.695  51.598  0.00  0.00    -0.014 C 
BRANCH  23  24
ATOM     24  C21 <0> A   1     -24.580  -5.955  51.087  0.00  0.00    +0.243 C 
ATOM     25  C22 <0> A   1     -25.475  -6.595  50.022  0.00  0.00    +0.051 C 
ATOM     26  C23 <0> A   1     -24.832  -7.898  49.535  0.00  0.00    +0.186 C 
ATOM     27  C24 <0> A   1     -24.666  -8.846  50.728  0.00  0.00    +0.023 C 
ATOM     28  C25 <0> A   1     -23.949  -8.100  51.832  0.00  0.00    +0.497 C 
ATOM     29  O1  <0> A   1     -22.997  -8.586  52.395  0.00  0.00    -0.449 OA
ATOM     30  O2  <0> A   1     -24.402  -6.874  52.171  0.00  0.00    -0.368 OA
BRANCH  26  31
ATOM     31  O3  <0> A   1     -23.553  -7.616  48.963  0.00  0.00    -0.564 OA
ATOM     32  H23 <0> A   1     -23.136  -8.377  48.537  0.00  0.00    +0.388 HD
ENDBRANCH  26  31
ENDBRANCH  23  24
ENDBRANCH   2  22
TORSDOF 5
