REMARK  Name = CHEMBL143347
REMARK  12 active torsions:
REMARK  status: ('A' for Active; 'I' for Inactive)
REMARK    1  A    between atoms: C1_1  and  C2_2
REMARK    2  A    between atoms: C2_2  and  C3_3
REMARK    3  A    between atoms: C2_2  and  C4_4
REMARK    4  A    between atoms: C5_5  and  C19_22
REMARK    5  A    between atoms: C6_6  and  C13_15
REMARK    6  A    between atoms: C20_23  and  C21_24
REMARK    7  A    between atoms: C21_24  and  C22_25
REMARK    8  A    between atoms: C21_24  and  O4_33
REMARK    9  A    between atoms: C22_25  and  C23_26
REMARK   10  A    between atoms: C23_26  and  C24_28
REMARK   11  A    between atoms: C23_26  and  O3_32
REMARK   12  A    between atoms: C24_28  and  C25_29
REMARK                            x       y       z     vdW  Elec       q    Type
REMARK                         _______ _______ _______ _____ _____    ______ ____
ROOT
ATOM      1  C4  <0> A   1      -1.412  -0.526   0.013  0.00  0.00    +0.189 A 
ATOM      2  C5  <0> A   1      -1.850  -1.336  -1.046  0.00  0.00    -0.076 A 
ATOM      3  C6  <0> A   1      -3.164  -1.823  -1.039  0.00  0.00    +0.019 A 
ATOM      4  C7  <0> A   1      -3.994  -1.466   0.053  0.00  0.00    -0.082 A 
ATOM      5  C8  <0> A   1      -5.320  -1.912   0.134  0.00  0.00    +0.058 A 
ATOM      6  C9  <0> A   1      -6.089  -1.549   1.200  0.00  0.00    -0.033 A 
ATOM      7  C10 <0> A   1      -5.572  -0.738   2.209  0.00  0.00    +0.042 A 
ATOM      8  C11 <0> A   1      -4.289  -0.288   2.159  0.00  0.00    +0.070 A 
ATOM      9  C12 <0> A   1      -3.465  -0.643   1.077  0.00  0.00    +0.134 A 
ATOM     10  N1  <0> A   1      -2.198  -0.216   1.012  0.00  0.00    -0.465 NA
ATOM     11 Cl1  <0> A   1      -7.732  -2.102   1.300  0.00  0.00    -0.066 Cl
ENDROOT
BRANCH   3  12
ATOM     12  C13 <0> A   1      -3.668  -2.680  -2.134  0.00  0.00    -0.064 A 
ATOM     13  C14 <0> A   1      -3.780  -2.169  -3.428  0.00  0.00    +0.073 A 
ATOM     14  C15 <0> A   1      -4.250  -2.972  -4.445  0.00  0.00    -0.006 A 
ATOM     15  C16 <0> A   1      -4.612  -4.285  -4.184  0.00  0.00    +0.110 A 
ATOM     16  C17 <0> A   1      -4.504  -4.797  -2.901  0.00  0.00    -0.011 A 
ATOM     17  C18 <0> A   1      -4.029  -4.004  -1.877  0.00  0.00    +0.062 A 
ATOM     18  F1  <0> A   1      -5.073  -5.068  -5.185  0.00  0.00    -0.136 F 
ENDBRANCH   3  12
BRANCH   1  20
ATOM     19  C1  <0> A   1      -0.019   1.526   0.010  0.00  0.00    +0.041 C 
ATOM     20  C2  <0> A   1       0.002  -0.004   0.002  0.00  0.00    +0.039 C 
ATOM     21  C3  <0> A   1       0.742  -0.511   1.242  0.00  0.00    +0.040 C 
ENDBRANCH   1  20
BRANCH   2  22
ATOM     22  C19 <0> A   1      -0.936  -1.672  -2.155  0.00  0.00    +0.010 C 
ATOM     23  C20 <0> A   1      -0.258  -0.711  -2.771  0.00  0.00    -0.037 C 
BRANCH  23  24
ATOM     24  C21 <0> A   1       0.675  -1.054  -3.903  0.00  0.00    +0.252 C 
BRANCH  24  25
ATOM     25  O4  <0> A   1       0.570  -2.448  -4.202  0.00  0.00    -0.536 OA
ATOM     26  H24 <0> A   1      -0.317  -2.727  -4.468  0.00  0.00    +0.366 HD
ENDBRANCH  24  25
BRANCH  24  27
ATOM     27  C22 <0> A   1       0.296  -0.238  -5.141  0.00  0.00    -0.041 C 
BRANCH  27  28
ATOM     28  C23 <0> A   1       1.318  -0.492  -6.251  0.00  0.00    +0.232 C 
BRANCH  28  29
ATOM     29  O3  <0> A   1       1.243  -1.859  -6.663  0.00  0.00    -0.527 OA
ATOM     30  H23 <0> A   1       0.378  -2.119  -7.006  0.00  0.00    +0.350 HD
ENDBRANCH  28  29
BRANCH  28  31
ATOM     31  C24 <0> A   1       1.012   0.417  -7.444  0.00  0.00    -0.102 C 
BRANCH  31  32
ATOM     32  C25 <0> A   1       2.087   0.256  -8.487  0.00  0.00    +0.490 C 
ATOM     33  O1  <0> A   1       3.012  -0.515  -8.295  0.00  0.00    -0.681 OA
ATOM     34  O2  <0> A   1       2.031   0.896  -9.523  0.00  0.00    -0.713 OA
ENDBRANCH  31  32
ENDBRANCH  28  31
ENDBRANCH  27  28
ENDBRANCH  24  27
ENDBRANCH  23  24
ENDBRANCH   2  22
TORSDOF 10
