REMARK  Name = CHEMBL143143
REMARK  13 active torsions:
REMARK  status: ('A' for Active; 'I' for Inactive)
REMARK    1  A    between atoms: C1_1  and  C2_2
REMARK    2  A    between atoms: C2_2  and  C3_3
REMARK    3  A    between atoms: C2_2  and  C4_4
REMARK    4  A    between atoms: C7_7  and  C15_21
REMARK    5  A    between atoms: N1_8  and  C8_9
REMARK    6  A    between atoms: C8_9  and  C9_10
REMARK    7  A    between atoms: C9_10  and  C10_11
REMARK    8  A    between atoms: C10_11  and  C11_12
REMARK    9  A    between atoms: C10_11  and  O4_20
REMARK   10  A    between atoms: C11_12  and  C12_13
REMARK   11  A    between atoms: C12_13  and  C13_15
REMARK   12  A    between atoms: C12_13  and  O3_19
REMARK   13  A    between atoms: C13_15  and  C14_16
REMARK                            x       y       z     vdW  Elec       q    Type
REMARK                         _______ _______ _______ _____ _____    ______ ____
ROOT
ATOM      1  C4  <0> A   1       0.707  -0.490  -1.238  0.00  0.00    +0.089 C 
ATOM      2  C5  <0> A   1       0.337  -0.230  -2.510  0.00  0.00    -0.144 C 
ATOM      3  C6  <0> A   1       1.256  -0.865  -3.362  0.00  0.00    -0.126 C 
ATOM      4  C7  <0> A   1       2.169  -1.500  -2.573  0.00  0.00    +0.099 C 
ATOM      5  N1  <0> A   1       1.832  -1.262  -1.264  0.00  0.00    -0.417 N 
ATOM      6 Br1  <0> A   1       1.232  -0.845  -5.253  0.00  0.00    -0.015 Br
ATOM      7 Br2  <0> A   1      -1.153   0.803  -3.049  0.00  0.00    -0.013 Br
ENDROOT
BRANCH   4   8
ATOM      8  C15 <0> A   1       3.321  -2.298  -3.044  0.00  0.00    -0.041 A 
ATOM      9  C16 <0> A   1       4.574  -2.135  -2.452  0.00  0.00    +0.056 A 
ATOM     10  C17 <0> A   1       5.645  -2.883  -2.895  0.00  0.00    -0.007 A 
ATOM     11  C18 <0> A   1       5.479  -3.794  -3.926  0.00  0.00    +0.110 A 
ATOM     12  C19 <0> A   1       4.237  -3.959  -4.517  0.00  0.00    -0.007 A 
ATOM     13  C20 <0> A   1       3.157  -3.221  -4.078  0.00  0.00    +0.080 A 
ATOM     14  F1  <0> A   1       6.531  -4.524  -4.356  0.00  0.00    -0.136 F 
ENDBRANCH   4   8
BRANCH   1  16
ATOM     15  C1  <0> A   1      -0.019   1.526   0.010  0.00  0.00    +0.040 C 
ATOM     16  C2  <0> A   1       0.002  -0.004   0.002  0.00  0.00    +0.053 C 
ATOM     17  C3  <0> A   1      -1.433  -0.534   0.013  0.00  0.00    +0.041 C 
ENDBRANCH   1  16
BRANCH   5  18
ATOM     18  C8  <0> A   1       2.556  -1.758  -0.092  0.00  0.00    +0.302 C 
BRANCH  18  19
ATOM     19  C9  <0> A   1       1.992  -3.120   0.318  0.00  0.00    -0.014 C 
BRANCH  19  20
ATOM     20  C10 <0> A   1       2.748  -3.638   1.543  0.00  0.00    +0.218 C 
BRANCH  20  21
ATOM     21  O4  <0> A   1       2.500  -2.776   2.655  0.00  0.00    -0.541 OA
ATOM     22  H19 <0> A   1       1.568  -2.711   2.902  0.00  0.00    +0.367 HD
ENDBRANCH  20  21
BRANCH  20  23
ATOM     23  C11 <0> A   1       2.269  -5.053   1.877  0.00  0.00    -0.047 C 
BRANCH  23  24
ATOM     24  C12 <0> A   1       3.111  -5.618   3.023  0.00  0.00    +0.231 C 
BRANCH  24  25
ATOM     25  O3  <0> A   1       2.881  -4.852   4.207  0.00  0.00    -0.528 OA
ATOM     26  H18 <0> A   1       1.960  -4.851   4.502  0.00  0.00    +0.350 HD
ENDBRANCH  24  25
BRANCH  24  27
ATOM     27  C13 <0> A   1       2.717  -7.075   3.274  0.00  0.00    -0.102 C 
BRANCH  27  28
ATOM     28  C14 <0> A   1       3.628  -7.669   4.317  0.00  0.00    +0.491 C 
ATOM     29  O1  <0> A   1       4.511  -6.990   4.814  0.00  0.00    -0.681 OA
ATOM     30  O2  <0> A   1       3.482  -8.829   4.665  0.00  0.00    -0.712 OA
ENDBRANCH  27  28
ENDBRANCH  24  27
ENDBRANCH  23  24
ENDBRANCH  20  23
ENDBRANCH  19  20
ENDBRANCH  18  19
ENDBRANCH   5  18
TORSDOF 11
