REMARK VINA RESULT:      -8.1     17.040     19.071
REMARK  Name = CHEMBL340139
REMARK  9 active torsions:
REMARK  status: ('A' for Active; 'I' for Inactive)
REMARK    1  A    between atoms: C1_1  and  C2_2
REMARK    2  A    between atoms: C2_2  and  C3_3
REMARK    3  A    between atoms: C2_2  and  C4_4
REMARK    4  A    between atoms: C5_5  and  C23_26
REMARK    5  A    between atoms: C6_6  and  C17_19
REMARK    6  A    between atoms: N1_7  and  C7_9
REMARK    7  A    between atoms: C23_26  and  C24_27
REMARK    8  A    between atoms: C24_27  and  C25_28
REMARK    9  A    between atoms: C27_31  and  O3_37
REMARK                            x       y       z     vdW  Elec       q    Type
REMARK                         _______ _______ _______ _____ _____    ______ ____
ROOT
ATOM      1  C4  <0> A   1     -27.775  -3.545  50.373  0.00  0.00    +0.094 C 
ATOM      2  C5  <0> A   1     -26.873  -3.402  51.426  0.00  0.00    -0.200 C 
ATOM      3  C6  <0> A   1     -26.940  -2.108  51.863  0.00  0.00    +0.131 C 
ATOM      4  N1  <0> A   1     -27.866  -1.467  51.090  0.00  0.00    -0.319 N 
ATOM      5  N2  <0> A   1     -28.365  -2.394  50.166  0.00  0.00    -0.269 NA
ENDROOT
BRANCH   4   6
ATOM      6  C7  <0> A   1     -28.246  -0.126  51.200  0.00  0.00    +0.160 A 
ATOM      7  C8  <0> A   1     -27.407   0.873  50.758  0.00  0.00    +0.020 A 
ATOM      8  C9  <0> A   1     -27.775   2.211  50.864  0.00  0.00    +0.031 A 
ATOM      9  C10 <0> A   1     -28.972   2.570  51.404  0.00  0.00    +0.036 A 
ATOM     10  C11 <0> A   1     -29.858   1.582  51.865  0.00  0.00    -0.040 A 
ATOM     11  C12 <0> A   1     -29.496   0.216  51.758  0.00  0.00    -0.044 A 
ATOM     12  C13 <0> A   1     -30.384  -0.770  52.216  0.00  0.00    +0.039 A 
ATOM     13  C14 <0> A   1     -31.582  -0.403  52.750  0.00  0.00    +0.010 A 
ATOM     14  C15 <0> A   1     -31.942   0.939  52.850  0.00  0.00    +0.018 A 
ATOM     15  C16 <0> A   1     -31.100   1.923  52.428  0.00  0.00    +0.023 A 
ENDBRANCH   4   6
BRANCH   3  16
ATOM     16  C17 <0> A   1     -26.155  -1.513  52.965  0.00  0.00    -0.047 A 
ATOM     17  C18 <0> A   1     -26.807  -0.938  54.058  0.00  0.00    +0.082 A 
ATOM     18  C19 <0> A   1     -26.070  -0.384  55.084  0.00  0.00    -0.006 A 
ATOM     19  C20 <0> A   1     -24.685  -0.399  55.032  0.00  0.00    +0.113 A 
ATOM     20  C21 <0> A   1     -24.033  -0.968  53.950  0.00  0.00    -0.011 A 
ATOM     21  C22 <0> A   1     -24.761  -1.529  52.921  0.00  0.00    +0.065 A 
ATOM     22  F1  <0> A   1     -23.968   0.145  56.040  0.00  0.00    -0.136 F 
ENDBRANCH   3  16
BRANCH   1  24
ATOM     23  C1  <0> A   1     -28.950  -5.729  50.399  0.00  0.00    +0.035 C 
ATOM     24  C2  <0> A   1     -28.025  -4.812  49.595  0.00  0.00    +0.075 C 
ATOM     25  C3  <0> A   1     -28.684  -4.469  48.258  0.00  0.00    +0.035 C 
ENDBRANCH   1  24
BRANCH   2  26
ATOM     26  C23 <0> A   1     -25.983  -4.482  51.985  0.00  0.00    +0.112 C 
BRANCH  26  27
ATOM     27  C24 <0> A   1     -24.667  -4.512  51.206  0.00  0.00    +0.055 C 
BRANCH  27  28
ATOM     28  C25 <0> A   1     -24.256  -5.965  50.956  0.00  0.00    +0.197 C 
ATOM     29  C26 <0> A   1     -24.976  -6.879  51.951  0.00  0.00    +0.040 C 
ATOM     30  C27 <0> A   1     -24.594  -8.336  51.671  0.00  0.00    +0.183 C 
ATOM     31  C28 <0> A   1     -25.003  -8.688  50.235  0.00  0.00    +0.020 C 
ATOM     32  C29 <0> A   1     -24.430  -7.639  49.307  0.00  0.00    +0.496 C 
ATOM     33  O1  <0> A   1     -23.820  -7.955  48.313  0.00  0.00    -0.453 OA
ATOM     34  O2  <0> A   1     -24.617  -6.341  49.622  0.00  0.00    -0.365 OA
BRANCH  30  35
ATOM     35  O3  <0> A   1     -23.182  -8.498  51.823  0.00  0.00    -0.563 OA
ATOM     36  H29 <0> A   1     -22.718  -8.696  50.997  0.00  0.00    +0.386 HD
ENDBRANCH  30  35
ENDBRANCH  27  28
ENDBRANCH  26  27
ENDBRANCH   2  26
TORSDOF 7
