REMARK VINA RESULT:      -8.0     16.203     19.345
REMARK  Name = CHEMBL333258
REMARK  7 active torsions:
REMARK  status: ('A' for Active; 'I' for Inactive)
REMARK    1  A    between atoms: C1_1  and  C2_2
REMARK    2  A    between atoms: C2_2  and  C3_3
REMARK    3  A    between atoms: C2_2  and  C4_4
REMARK    4  A    between atoms: C5_5  and  C19_22
REMARK    5  A    between atoms: C6_6  and  C13_15
REMARK    6  A    between atoms: C20_23  and  C21_24
REMARK    7  A    between atoms: C23_27  and  O3_33
REMARK                            x       y       z     vdW  Elec       q    Type
REMARK                         _______ _______ _______ _____ _____    ______ ____
ROOT
ATOM      1  C4  <0> A   1     -15.221   6.478  46.075  0.00  0.00    +0.189 A 
ATOM      2  C5  <0> A   1     -14.511   7.683  45.958  0.00  0.00    -0.092 A 
ATOM      3  C6  <0> A   1     -14.629   8.649  46.967  0.00  0.00    +0.028 A 
ATOM      4  C7  <0> A   1     -15.471   8.354  48.068  0.00  0.00    -0.083 A 
ATOM      5  C8  <0> A   1     -15.642   9.267  49.117  0.00  0.00    +0.057 A 
ATOM      6  C9  <0> A   1     -16.461   8.949  50.160  0.00  0.00    -0.031 A 
ATOM      7  C10 <0> A   1     -17.128   7.725  50.196  0.00  0.00    +0.049 A 
ATOM      8  C11 <0> A   1     -16.982   6.817  49.193  0.00  0.00    +0.071 A 
ATOM      9  C12 <0> A   1     -16.148   7.110  48.100  0.00  0.00    +0.137 A 
ATOM     10  N1  <0> A   1     -15.996   6.233  47.100  0.00  0.00    -0.462 NA
ATOM     11 Cl1  <0> A   1     -16.673  10.081  51.460  0.00  0.00    -0.060 Cl
ENDROOT
BRANCH   3  12
ATOM     12  C13 <0> A   1     -13.900   9.933  46.885  0.00  0.00    -0.067 A 
ATOM     13  C14 <0> A   1     -14.512  11.051  46.317  0.00  0.00    +0.073 A 
ATOM     14  C15 <0> A   1     -13.828  12.246  46.243  0.00  0.00    -0.011 A 
ATOM     15  C16 <0> A   1     -12.534  12.337  46.732  0.00  0.00    +0.110 A 
ATOM     16  C17 <0> A   1     -11.920  11.230  47.296  0.00  0.00    -0.009 A 
ATOM     17  C18 <0> A   1     -12.598  10.031  47.380  0.00  0.00    +0.067 A 
ATOM     18  F1  <0> A   1     -11.867  13.511  46.657  0.00  0.00    -0.136 F 
ENDBRANCH   3  12
BRANCH   1  20
ATOM     19  C1  <0> A   1     -14.547   4.142  45.586  0.00  0.00    +0.042 C 
ATOM     20  C2  <0> A   1     -15.091   5.441  44.989  0.00  0.00    +0.037 C 
ATOM     21  C3  <0> A   1     -16.465   5.181  44.366  0.00  0.00    +0.041 C 
ENDBRANCH   1  20
BRANCH   2  22
ATOM     22  C19 <0> A   1     -13.650   7.930  44.786  0.00  0.00    +0.056 C 
ATOM     23  C20 <0> A   1     -14.136   8.568  43.727  0.00  0.00    -0.014 C 
BRANCH  23  24
ATOM     24  C21 <0> A   1     -13.257   8.821  42.530  0.00  0.00    +0.243 C 
ATOM     25  C22 <0> A   1     -13.711  10.102  41.824  0.00  0.00    +0.051 C 
ATOM     26  C23 <0> A   1     -12.841  10.333  40.583  0.00  0.00    +0.186 C 
ATOM     27  C24 <0> A   1     -12.986   9.129  39.645  0.00  0.00    +0.023 C 
ATOM     28  C25 <0> A   1     -12.721   7.870  40.442  0.00  0.00    +0.497 C 
ATOM     29  O1  <0> A   1     -11.960   7.025  40.034  0.00  0.00    -0.449 OA
ATOM     30  O2  <0> A   1     -13.358   7.718  41.622  0.00  0.00    -0.368 OA
BRANCH  26  31
ATOM     31  O3  <0> A   1     -11.476  10.475  40.976  0.00  0.00    -0.564 OA
ATOM     32  H23 <0> A   1     -10.940   9.683  40.833  0.00  0.00    +0.388 HD
ENDBRANCH  26  31
ENDBRANCH  23  24
ENDBRANCH   2  22
TORSDOF 5
