REMARK VINA RESULT:      -7.6     14.812     19.066
REMARK  Name = CHEMBL313129
REMARK  17 active torsions:
REMARK  status: ('A' for Active; 'I' for Inactive)
REMARK    1  A    between atoms: C1_1  and  C2_2
REMARK    2  A    between atoms: C2_2  and  C3_3
REMARK    3  A    between atoms: C3_3  and  C4_4
REMARK    4  A    between atoms: C3_3  and  C5_5
REMARK    5  A    between atoms: C3_3  and  C6_6
REMARK    6  A    between atoms: C6_6  and  O2_8
REMARK    7  A    between atoms: O2_8  and  C7_9
REMARK    8  A    between atoms: C9_12  and  C33_46
REMARK    9  A    between atoms: C10_14  and  O6_37
REMARK   10  A    between atoms: C13_19  and  C18_26
REMARK   11  A    between atoms: C14_21  and  C17_25
REMARK   12  A    between atoms: C18_26  and  C19_27
REMARK   13  A    between atoms: C19_27  and  C20_28
REMARK   14  A    between atoms: C22_30  and  O5_36
REMARK   15  A    between atoms: O6_37  and  C25_38
REMARK   16  A    between atoms: C25_38  and  C26_39
REMARK   17  A    between atoms: C26_39  and  C27_40
REMARK                            x       y       z     vdW  Elec       q    Type
REMARK                         _______ _______ _______ _____ _____    ______ ____
ROOT
ATOM      1  C7  <0> A   1     -28.365  -2.326  52.665  0.00  0.00    +0.184 C 
ATOM      2  C8  <0> A   1     -29.168  -1.720  53.829  0.00  0.00    +0.014 C 
ATOM      3  C9  <0> A   1     -29.295  -0.211  53.629  0.00  0.00    +0.002 C 
ATOM      4  C10 <0> A   1     -27.901   0.417  53.603  0.00  0.00    +0.163 C 
ATOM      5  C11 <0> A   1     -27.073  -0.196  52.480  0.00  0.00    -0.020 C 
ATOM      6  C12 <0> A   1     -26.972  -1.719  52.646  0.00  0.00    +0.029 C 
ATOM      7  C13 <0> A   1     -26.055  -2.252  51.559  0.00  0.00    -0.008 C 
ATOM      8  C14 <0> A   1     -26.457  -1.862  50.148  0.00  0.00    -0.020 C 
ATOM      9  C15 <0> A   1     -26.791  -0.384  50.010  0.00  0.00    +0.012 C 
ATOM     10  C16 <0> A   1     -27.713   0.103  51.124  0.00  0.00    +0.013 C 
ATOM     11  C17 <0> A   1     -27.588  -2.736  49.614  0.00  0.00    +0.014 C 
ATOM     12  C33 <0> A   1     -30.103   0.392  54.781  0.00  0.00    +0.028 C 
ENDROOT
BRANCH   1  13
ATOM     13  O2  <0> A   1     -28.328  -3.740  52.868  0.00  0.00    -0.335 OA
BRANCH  13  14
ATOM     14  C6  <0> A   1     -29.295  -4.465  52.285  0.00  0.00    +0.472 C 
ATOM     15  O1  <0> A   1     -30.186  -3.912  51.684  0.00  0.00    -0.509 OA
BRANCH  14  16
ATOM     16  C3  <0> A   1     -29.271  -5.969  52.379  0.00  0.00    -0.057 C 
ATOM     17  C4  <0> A   1     -27.986  -6.415  53.082  0.00  0.00    +0.056 C 
ATOM     18  C5  <0> A   1     -29.317  -6.568  50.973  0.00  0.00    +0.077 C 
BRANCH  16  20
ATOM     19  C1  <0> A   1     -30.261  -6.161  54.665  0.00  0.00    +0.022 C 
ATOM     20  C2  <0> A   1     -30.483  -6.450  53.179  0.00  0.00    +0.033 C 
ENDBRANCH  16  20
ENDBRANCH  14  16
ENDBRANCH  13  14
ENDBRANCH   1  13
BRANCH   7  21
ATOM     21  C18 <0> A   1     -25.845  -3.761  51.658  0.00  0.00    +0.035 C 
BRANCH  21  22
ATOM     22  C19 <0> A   1     -24.421  -4.108  51.218  0.00  0.00    +0.042 C 
BRANCH  22  23
ATOM     23  C20 <0> A   1     -24.392  -5.535  50.668  0.00  0.00    +0.196 C 
ATOM     24  C21 <0> A   1     -25.780  -5.906  50.138  0.00  0.00    +0.037 C 
ATOM     25  C22 <0> A   1     -25.758  -7.350  49.625  0.00  0.00    +0.182 C 
ATOM     26  C23 <0> A   1     -25.363  -8.281  50.779  0.00  0.00    +0.016 C 
ATOM     27  C24 <0> A   1     -24.086  -7.754  51.398  0.00  0.00    +0.495 C 
ATOM     28  O3  <0> A   1     -23.147  -8.486  51.604  0.00  0.00    -0.447 OA
ATOM     29  O4  <0> A   1     -24.026  -6.443  51.712  0.00  0.00    -0.361 OA
BRANCH  25  30
ATOM     30  O5  <0> A   1     -24.806  -7.467  48.565  0.00  0.00    -0.563 OA
ATOM     31  H38 <0> A   1     -24.651  -8.376  48.275  0.00  0.00    +0.386 HD
ENDBRANCH  25  30
ENDBRANCH  22  23
ENDBRANCH  21  22
ENDBRANCH   7  21
BRANCH   4  32
ATOM     32  O6  <0> A   1     -27.254   0.195  54.859  0.00  0.00    -0.371 OA
BRANCH  32  33
ATOM     33  C25 <0> A   1     -26.033   0.921  55.020  0.00  0.00    +0.166 C 
BRANCH  33  34
ATOM     34  C26 <0> A   1     -24.915  -0.044  55.422  0.00  0.00    +0.083 C 
BRANCH  34  35
ATOM     35  C27 <0> A   1     -24.030  -0.311  54.232  0.00  0.00    -0.083 A 
ATOM     36  C28 <0> A   1     -23.285  -1.474  54.173  0.00  0.00    +0.007 A 
ATOM     37  C29 <0> A   1     -22.473  -1.720  53.081  0.00  0.00    +0.004 A 
ATOM     38  C30 <0> A   1     -22.408  -0.803  52.049  0.00  0.00    -0.000 A 
ATOM     39  C31 <0> A   1     -23.154   0.360  52.108  0.00  0.00    +0.004 A 
ATOM     40  C32 <0> A   1     -23.968   0.603  53.197  0.00  0.00    +0.007 A 
ENDBRANCH  34  35
ENDBRANCH  33  34
ENDBRANCH  32  33
ENDBRANCH   4  32
TORSDOF 12
