REMARK VINA RESULT:      -7.4     16.833     20.550
REMARK  Name = CHEMBL298482
REMARK  6 active torsions:
REMARK  status: ('A' for Active; 'I' for Inactive)
REMARK    1  A    between atoms: C3_3  and  C5_6
REMARK    2  A    between atoms: C5_6  and  O2_7
REMARK    3  A    between atoms: O2_7  and  C6_8
REMARK    4  A    between atoms: C11_13  and  C12_14
REMARK    5  A    between atoms: C13_15  and  C14_16
REMARK    6  A    between atoms: C16_18  and  O5_24
REMARK                            x       y       z     vdW  Elec       q    Type
REMARK                         _______ _______ _______ _____ _____    ______ ____
ROOT
ATOM      1  C6  <0> A   1     -24.022  -2.620  50.755  0.00  0.00    +0.169 A 
ATOM      2  C7  <0> A   1     -25.235  -2.070  50.372  0.00  0.00    -0.050 A 
ATOM      3  C8  <0> A   1     -25.417  -0.698  50.407  0.00  0.00    +0.017 A 
ATOM      4  C9  <0> A   1     -24.390   0.133  50.824  0.00  0.00    +0.014 A 
ATOM      5  C10 <0> A   1     -23.176  -0.401  51.209  0.00  0.00    +0.017 A 
ATOM      6  C11 <0> A   1     -22.984  -1.783  51.183  0.00  0.00    -0.074 A 
ATOM      7 Cl1  <0> A   1     -21.893   0.645  51.730  0.00  0.00    -0.036 Cl
ATOM      8 Cl2  <0> A   1     -26.938  -0.016  49.925  0.00  0.00    -0.047 Cl
ENDROOT
BRANCH   6   9
ATOM      9  C12 <0> A   1     -21.690  -2.362  51.599  0.00  0.00    +0.055 C 
ATOM     10  C13 <0> A   1     -21.512  -2.753  52.854  0.00  0.00    -0.009 C 
BRANCH  10  11
ATOM     11  C14 <0> A   1     -20.193  -3.345  53.279  0.00  0.00    +0.243 C 
ATOM     12  C15 <0> A   1     -20.443  -4.546  54.194  0.00  0.00    +0.051 C 
ATOM     13  C16 <0> A   1     -19.100  -5.119  54.659  0.00  0.00    +0.186 C 
ATOM     14  C17 <0> A   1     -18.331  -4.029  55.414  0.00  0.00    +0.023 C 
ATOM     15  C18 <0> A   1     -18.283  -2.791  54.544  0.00  0.00    +0.498 C 
ATOM     16  O3  <0> A   1     -17.243  -2.208  54.349  0.00  0.00    -0.451 OA
ATOM     17  O4  <0> A   1     -19.436  -2.359  53.991  0.00  0.00    -0.367 OA
BRANCH  13  18
ATOM     18  O5  <0> A   1     -18.344  -5.545  53.524  0.00  0.00    -0.564 OA
ATOM     19  H16 <0> A   1     -17.774  -6.308  53.695  0.00  0.00    +0.387 HD
ENDBRANCH  13  18
ENDBRANCH  10  11
ENDBRANCH   6   9
BRANCH   1  20
ATOM     20  O2  <0> A   1     -23.844  -3.966  50.720  0.00  0.00    -0.292 OA
BRANCH  20  21
ATOM     21  C5  <0> A   1     -25.018  -4.777  50.771  0.00  0.00    +0.326 C 
BRANCH  21  24
ATOM     22  C1  <0> A   1     -24.045  -8.332  50.826  0.00  0.00    -0.065 C 
ATOM     23  C2  <0> A   1     -24.324  -7.114  51.487  0.00  0.00    -0.016 C 
ATOM     24  C3  <0> A   1     -24.644  -6.218  50.535  0.00  0.00    -0.032 C 
ATOM     25  O1  <0> A   1     -24.573  -6.825  49.340  0.00  0.00    -0.170 OA
ATOM     26  C4  <0> A   1     -24.210  -8.108  49.509  0.00  0.00    +0.187 C 
ENDBRANCH  21  24
ENDBRANCH  20  21
ENDBRANCH   1  20
TORSDOF 6
