REMARK VINA RESULT:      -7.2      4.011      7.058
REMARK  Name = CHEMBL419542
REMARK  11 active torsions:
REMARK  status: ('A' for Active; 'I' for Inactive)
REMARK    1  A    between atoms: C6_6  and  C7_7
REMARK    2  A    between atoms: C7_7  and  C17_27
REMARK    3  A    between atoms: C8_8  and  C9_9
REMARK    4  A    between atoms: C8_8  and  C16_22
REMARK    5  A    between atoms: C10_10  and  C11_11
REMARK    6  A    between atoms: C11_11  and  C12_13
REMARK    7  A    between atoms: C11_11  and  O4_21
REMARK    8  A    between atoms: C12_13  and  C13_14
REMARK    9  A    between atoms: C13_14  and  C14_16
REMARK   10  A    between atoms: C13_14  and  O3_20
REMARK   11  A    between atoms: C14_16  and  C15_17
REMARK                            x       y       z     vdW  Elec       q    Type
REMARK                         _______ _______ _______ _____ _____    ______ ____
ROOT
ATOM      1  C7  <0> A   1     -13.425   9.657  44.025  0.00  0.00    +0.014 C 
ATOM      2  C8  <0> A   1     -13.722   8.347  44.236  0.00  0.00    -0.039 C 
ENDROOT
BRANCH   1   8
ATOM      3  C1  <0> A   1     -11.774  10.703  45.569  0.00  0.00    +0.070 A 
ATOM      4  C2  <0> A   1     -11.477  11.522  46.637  0.00  0.00    -0.012 A 
ATOM      5  C3  <0> A   1     -12.493  12.180  47.314  0.00  0.00    +0.110 A 
ATOM      6  C4  <0> A   1     -13.812  12.016  46.922  0.00  0.00    -0.007 A 
ATOM      7  C5  <0> A   1     -14.120  11.199  45.855  0.00  0.00    +0.068 A 
ATOM      8  C6  <0> A   1     -13.101  10.535  45.170  0.00  0.00    -0.064 A 
ATOM      9  F2  <0> A   1     -12.196  12.982  48.360  0.00  0.00    -0.136 F 
ENDBRANCH   1   8
BRANCH   1  10
ATOM     10  C17 <0> A   1     -13.428  10.204  42.651  0.00  0.00    -0.078 A 
ATOM     11  C18 <0> A   1     -12.386   9.899  41.773  0.00  0.00    +0.058 A 
ATOM     12  C19 <0> A   1     -12.393  10.412  40.493  0.00  0.00    -0.009 A 
ATOM     13  C20 <0> A   1     -13.433  11.229  40.077  0.00  0.00    +0.108 A 
ATOM     14  C21 <0> A   1     -14.470  11.535  40.944  0.00  0.00    -0.008 A 
ATOM     15  C22 <0> A   1     -14.476  11.022  42.224  0.00  0.00    +0.078 A 
ATOM     16  F1  <0> A   1     -13.435  11.729  38.822  0.00  0.00    -0.136 F 
ENDBRANCH   1  10
BRANCH   2  17
ATOM     17  C16 <0> A   1     -14.052   7.453  43.069  0.00  0.00    +0.246 C 
ATOM     18  N1  <0> A   1     -15.180   6.565  43.401  0.00  0.00    -0.116 NA
ATOM     19  N2  <0> A   1     -14.743   5.409  43.319  0.00  0.00    -0.041 NA
ATOM     20  N3  <0> A   1     -13.399   5.384  42.958  0.00  0.00    -0.042 NA
ATOM     21  N4  <0> A   1     -12.942   6.525  42.798  0.00  0.00    -0.118 NA
ENDBRANCH   2  17
BRANCH   2  22
ATOM     22  C9  <0> A   1     -13.719   7.806  45.593  0.00  0.00    +0.012 C 
ATOM     23  C10 <0> A   1     -12.642   7.168  46.055  0.00  0.00    -0.065 C 
BRANCH  23  24
ATOM     24  C11 <0> A   1     -12.639   6.610  47.455  0.00  0.00    +0.258 C 
BRANCH  24  25
ATOM     25  O4  <0> A   1     -12.935   5.213  47.411  0.00  0.00    -0.533 OA
ATOM     26  H14 <0> A   1     -13.152   4.829  48.272  0.00  0.00    +0.365 HD
ENDBRANCH  24  25
BRANCH  24  27
ATOM     27  C12 <0> A   1     -11.260   6.819  48.085  0.00  0.00    -0.037 C 
BRANCH  27  28
ATOM     28  C13 <0> A   1     -10.316   5.705  47.628  0.00  0.00    +0.233 C 
BRANCH  28  29
ATOM     29  O3  <0> A   1      -9.138   6.281  47.061  0.00  0.00    -0.528 OA
ATOM     30  H13 <0> A   1      -9.080   7.241  47.165  0.00  0.00    +0.350 HD
ENDBRANCH  28  29
BRANCH  28  31
ATOM     31  C14 <0> A   1      -9.932   4.838  48.828  0.00  0.00    -0.099 C 
BRANCH  31  32
ATOM     32  C15 <0> A   1      -8.676   4.069  48.511  0.00  0.00    +0.491 C 
ATOM     33  O1  <0> A   1      -7.650   4.295  49.131  0.00  0.00    -0.681 OA
ATOM     34  O2  <0> A   1      -8.685   3.221  47.635  0.00  0.00    -0.712 OA
ENDBRANCH  31  32
ENDBRANCH  28  31
ENDBRANCH  27  28
ENDBRANCH  24  27
ENDBRANCH  23  24
ENDBRANCH   2  22
TORSDOF 11
