REMARK VINA RESULT:      -8.8      1.417      2.523
REMARK  Name = CHEMBL352558
REMARK  9 active torsions:
REMARK  status: ('A' for Active; 'I' for Inactive)
REMARK    1  A    between atoms: C1_1  and  C2_2
REMARK    2  A    between atoms: C4_5  and  O4_28
REMARK    3  A    between atoms: C6_8  and  C13_17
REMARK    4  A    between atoms: C7_10  and  C12_16
REMARK    5  A    between atoms: C13_17  and  C14_18
REMARK    6  A    between atoms: C14_18  and  C15_19
REMARK    7  A    between atoms: C17_21  and  O3_27
REMARK    8  A    between atoms: O4_28  and  C20_29
REMARK    9  A    between atoms: C20_29  and  C21_31
REMARK                            x       y       z     vdW  Elec       q    Type
REMARK                         _______ _______ _______ _____ _____    ______ ____
ROOT
ATOM      1  C1  <0> A   1      -0.156   2.760  44.702  0.00  0.00    +0.032 C 
ATOM      2  C2  <0> A   1      -1.545   3.367  44.491  0.00  0.00    +0.024 C 
ATOM      3  C3  <0> A   1      -2.050   3.979  45.805  0.00  0.00    +0.018 C 
ATOM      4  C4  <0> A   1      -3.425   4.596  45.553  0.00  0.00    +0.173 C 
ATOM      5  C5  <0> A   1      -4.417   3.574  45.050  0.00  0.00    +0.044 C 
ATOM      6  C6  <0> A   1      -5.325   3.060  46.169  0.00  0.00    +0.011 C 
ATOM      7  C7  <0> A   1      -6.441   2.218  45.549  0.00  0.00    +0.022 C 
ATOM      8  C8  <0> A   1      -5.899   1.193  44.600  0.00  0.00    -0.033 C 
ATOM      9  C9  <0> A   1      -4.702   1.257  44.044  0.00  0.00    -0.006 C 
ATOM     10  C10 <0> A   1      -3.802   2.390  44.366  0.00  0.00    -0.087 C 
ATOM     11  C11 <0> A   1      -2.516   2.290  44.081  0.00  0.00    -0.023 C 
ATOM     12  C12 <0> A   1      -7.399   3.141  44.791  0.00  0.00    +0.030 C 
ENDROOT
BRANCH   6  13
ATOM     13  C13 <0> A   1      -5.930   4.245  46.925  0.00  0.00    +0.063 C 
BRANCH  13  14
ATOM     14  C14 <0> A   1      -6.391   3.786  48.309  0.00  0.00    +0.035 C 
BRANCH  14  15
ATOM     15  C15 <0> A   1      -7.901   3.999  48.442  0.00  0.00    +0.195 C 
ATOM     16  C16 <0> A   1      -8.331   5.168  47.551  0.00  0.00    +0.036 C 
ATOM     17  C17 <0> A   1      -9.836   5.406  47.718  0.00  0.00    +0.182 C 
ATOM     18  C18 <0> A   1     -10.128   5.722  49.190  0.00  0.00    +0.015 C 
ATOM     19  C19 <0> A   1      -9.508   4.635  50.042  0.00  0.00    +0.495 C 
ATOM     20  O1  <0> A   1     -10.144   4.086  50.910  0.00  0.00    -0.449 OA
ATOM     21  O2  <0> A   1      -8.224   4.297  49.804  0.00  0.00    -0.364 OA
BRANCH  17  22
ATOM     22  O3  <0> A   1     -10.552   4.232  47.327  0.00  0.00    -0.559 OA
ATOM     23  H27 <0> A   1     -11.489   4.384  47.145  0.00  0.00    +0.385 HD
ENDBRANCH  17  22
ENDBRANCH  14  15
ENDBRANCH  13  14
ENDBRANCH   6  13
BRANCH   4  24
ATOM     24  O4  <0> A   1      -3.914   5.157  46.771  0.00  0.00    -0.319 OA
BRANCH  24  25
ATOM     25  C20 <0> A   1      -3.434   6.360  47.125  0.00  0.00    +0.457 C 
ATOM     26  O5  <0> A   1      -3.311   7.229  46.294  0.00  0.00    -0.502 OA
BRANCH  25  27
ATOM     27  C21 <0> A   1      -3.050   6.627  48.557  0.00  0.00    -0.041 C 
ATOM     28  C22 <0> A   1      -4.060   5.956  49.489  0.00  0.00    +0.045 C 
ATOM     29  C23 <0> A   1      -3.669   6.228  50.944  0.00  0.00    -0.003 C 
ATOM     30  C24 <0> A   1      -3.664   7.737  51.198  0.00  0.00    +0.016 C 
ATOM     31  C25 <0> A   1      -2.654   8.407  50.265  0.00  0.00    -0.009 C 
ATOM     32  C26 <0> A   1      -3.045   8.136  48.810  0.00  0.00    +0.047 C 
ATOM     33  C27 <0> A   1      -1.258   7.840  50.532  0.00  0.00    +0.016 C 
ATOM     34  C28 <0> A   1      -1.263   6.331  50.278  0.00  0.00    -0.009 C 
ATOM     35  C29 <0> A   1      -2.275   5.661  51.211  0.00  0.00    +0.026 C 
ATOM     36  C30 <0> A   1      -1.654   6.060  48.825  0.00  0.00    +0.038 C 
ENDBRANCH  25  27
ENDBRANCH  24  25
ENDBRANCH   4  24
TORSDOF 7
