REMARK VINA RESULT:      -7.4     15.795     19.696
REMARK  Name = CHEMBL429487
REMARK  16 active torsions:
REMARK  status: ('A' for Active; 'I' for Inactive)
REMARK    1  A    between atoms: C1_1  and  C2_2
REMARK    2  A    between atoms: C2_2  and  C3_3
REMARK    3  A    between atoms: C2_2  and  C4_4
REMARK    4  A    between atoms: C5_5  and  S1_35
REMARK    5  A    between atoms: C6_6  and  C21_29
REMARK    6  A    between atoms: C7_7  and  C15_22
REMARK    7  A    between atoms: N1_8  and  C8_9
REMARK    8  A    between atoms: C8_9  and  C9_10
REMARK    9  A    between atoms: C9_10  and  C10_11
REMARK   10  A    between atoms: C10_11  and  C11_13
REMARK   11  A    between atoms: C10_11  and  O4_21
REMARK   12  A    between atoms: C11_13  and  C12_14
REMARK   13  A    between atoms: C12_14  and  C13_16
REMARK   14  A    between atoms: C12_14  and  O3_20
REMARK   15  A    between atoms: C13_16  and  C14_17
REMARK   16  A    between atoms: S1_35  and  N2_38
REMARK                            x       y       z     vdW  Elec       q    Type
REMARK                         _______ _______ _______ _____ _____    ______ ____
ROOT
ATOM      1  C4  <0> A   1     -24.810  -2.761  51.933  0.00  0.00    +0.174 C 
ATOM      2  C5  <0> A   1     -25.895  -2.126  52.416  0.00  0.00    -0.735 C 
ATOM      3  C6  <0> A   1     -27.026  -2.927  52.127  0.00  0.00    -0.022 C 
ATOM      4  C7  <0> A   1     -26.562  -4.048  51.460  0.00  0.00    +0.059 C 
ATOM      5  N1  <0> A   1     -25.203  -3.927  51.344  0.00  0.00    -0.412 N 
ENDROOT
BRANCH   4   6
ATOM      6  C15 <0> A   1     -27.385  -5.168  50.961  0.00  0.00    -0.027 A 
ATOM      7  C16 <0> A   1     -27.772  -5.208  49.619  0.00  0.00    +0.045 A 
ATOM      8  C17 <0> A   1     -28.541  -6.257  49.157  0.00  0.00    -0.008 A 
ATOM      9  C18 <0> A   1     -28.928  -7.268  50.021  0.00  0.00    +0.105 A 
ATOM     10  C19 <0> A   1     -28.547  -7.233  51.354  0.00  0.00    -0.008 A 
ATOM     11  C20 <0> A   1     -27.773  -6.193  51.825  0.00  0.00    +0.075 A 
ATOM     12  F1  <0> A   1     -29.682  -8.292  49.564  0.00  0.00    -0.137 F 
ENDBRANCH   4   6
BRANCH   3  13
ATOM     13  C21 <0> A   1     -28.434  -2.623  52.472  0.00  0.00    -0.034 A 
ATOM     14  C22 <0> A   1     -29.031  -3.229  53.578  0.00  0.00    +0.061 A 
ATOM     15  C23 <0> A   1     -30.343  -2.942  53.894  0.00  0.00    -0.000 A 
ATOM     16  C24 <0> A   1     -31.067  -2.055  53.116  0.00  0.00    +0.003 A 
ATOM     17  C25 <0> A   1     -30.481  -1.453  52.018  0.00  0.00    -0.009 A 
ATOM     18  C26 <0> A   1     -29.168  -1.727  51.695  0.00  0.00    +0.018 A 
ENDBRANCH   3  13
BRANCH   1  20
ATOM     19  C1  <0> A   1     -22.495  -3.366  52.582  0.00  0.00    +0.040 C 
ATOM     20  C2  <0> A   1     -23.392  -2.260  52.022  0.00  0.00    +0.059 C 
ATOM     21  C3  <0> A   1     -22.902  -1.864  50.627  0.00  0.00    +0.039 C 
ENDBRANCH   1  20
BRANCH   2  22
ATOM     22  S1  <0> A   1     -25.905  -0.577  53.256  0.00  0.00    +2.727 S 
ATOM     23  O5  <0> A   1     -26.746  -0.736  54.390  0.00  0.00    -0.947 OA
ATOM     24  O6  <0> A   1     -24.549  -0.165  53.364  0.00  0.00    -0.962 OA
BRANCH  22  25
ATOM     25  N2  <0> A   1     -26.654   0.515  52.262  0.00  0.00    -1.011 NA
ATOM     26  C27 <0> A   1     -27.676   1.489  52.674  0.00  0.00    +0.254 C 
ATOM     27  C28 <0> A   1     -28.098   2.270  51.413  0.00  0.00    +0.028 C 
ATOM     28  C29 <0> A   1     -27.703   1.312  50.259  0.00  0.00    +0.029 C 
ATOM     29  C30 <0> A   1     -26.402   0.677  50.818  0.00  0.00    +0.268 C 
ENDBRANCH  22  25
ENDBRANCH   2  22
BRANCH   5  30
ATOM     30  C8  <0> A   1     -24.313  -4.895  50.697  0.00  0.00    +0.294 C 
BRANCH  30  31
ATOM     31  C9  <0> A   1     -24.262  -6.177  51.532  0.00  0.00    -0.015 C 
BRANCH  31  32
ATOM     32  C10 <0> A   1     -24.515  -7.384  50.627  0.00  0.00    +0.218 C 
BRANCH  32  33
ATOM     33  O4  <0> A   1     -24.078  -7.087  49.299  0.00  0.00    -0.540 OA
ATOM     34  H19 <0> A   1     -24.799  -6.958  48.668  0.00  0.00    +0.366 HD
ENDBRANCH  32  33
BRANCH  32  35
ATOM     35  C11 <0> A   1     -23.742  -8.593  51.159  0.00  0.00    -0.047 C 
BRANCH  35  36
ATOM     36  C12 <0> A   1     -24.491  -9.877  50.798  0.00  0.00    +0.232 C 
BRANCH  36  37
ATOM     37  O3  <0> A   1     -25.822  -9.555  50.390  0.00  0.00    -0.528 OA
ATOM     38  H18 <0> A   1     -26.472  -9.590  51.105  0.00  0.00    +0.350 HD
ENDBRANCH  36  37
BRANCH  36  39
ATOM     39  C13 <0> A   1     -23.764 -10.587  49.654  0.00  0.00    -0.102 C 
BRANCH  39  40
ATOM     40  C14 <0> A   1     -24.620 -10.548  48.415  0.00  0.00    +0.491 C 
ATOM     41  O1  <0> A   1     -24.613  -9.560  47.700  0.00  0.00    -0.681 OA
ATOM     42  O2  <0> A   1     -25.319 -11.504  48.127  0.00  0.00    -0.712 OA
ENDBRANCH  39  40
ENDBRANCH  36  39
ENDBRANCH  35  36
ENDBRANCH  32  35
ENDBRANCH  31  32
ENDBRANCH  30  31
ENDBRANCH   5  30
TORSDOF 14
