REMARK VINA RESULT:      -7.2      9.268     11.998
REMARK  Name = CHEMBL293944
REMARK  16 active torsions:
REMARK  status: ('A' for Active; 'I' for Inactive)
REMARK    1  A    between atoms: C1_1  and  C2_2
REMARK    2  A    between atoms: C2_2  and  C3_3
REMARK    3  A    between atoms: C3_3  and  C4_5
REMARK    4  A    between atoms: C3_3  and  C5_6
REMARK    5  A    between atoms: C5_6  and  O2_8
REMARK    6  A    between atoms: O2_8  and  C6_9
REMARK    7  A    between atoms: C8_12  and  C24_37
REMARK    8  A    between atoms: C12_18  and  C17_25
REMARK    9  A    between atoms: C13_20  and  C16_24
REMARK   10  A    between atoms: C17_25  and  C18_26
REMARK   11  A    between atoms: C18_26  and  C19_27
REMARK   12  A    between atoms: C19_27  and  C20_29
REMARK   13  A    between atoms: C20_29  and  C21_30
REMARK   14  A    between atoms: C21_30  and  C22_32
REMARK   15  A    between atoms: C21_30  and  O6_36
REMARK   16  A    between atoms: C22_32  and  C23_33
REMARK                            x       y       z     vdW  Elec       q    Type
REMARK                         _______ _______ _______ _____ _____    ______ ____
ROOT
ATOM      1  C6  <0> A   1     -13.444   9.845  44.152  0.00  0.00    +0.187 C 
ATOM      2  C7  <0> A   1     -14.125  11.077  44.765  0.00  0.00    +0.002 C 
ATOM      3  C8  <0> A   1     -13.610  11.297  46.187  0.00  0.00    -0.013 C 
ATOM      4  C9  <0> A   1     -13.939  10.063  47.032  0.00  0.00    +0.028 C 
ATOM      5  C10 <0> A   1     -13.283   8.833  46.422  0.00  0.00    +0.033 C 
ATOM      6  C11 <0> A   1     -13.777   8.612  44.985  0.00  0.00    +0.020 C 
ATOM      7  C12 <0> A   1     -13.104   7.344  44.471  0.00  0.00    -0.008 C 
ATOM      8  C13 <0> A   1     -11.587   7.452  44.458  0.00  0.00    +0.020 C 
ATOM      9  C14 <0> A   1     -11.057   8.367  45.515  0.00  0.00    -0.041 C 
ATOM     10  C15 <0> A   1     -11.790   8.976  46.396  0.00  0.00    -0.047 C 
ATOM     11  C16 <0> A   1     -11.089   7.887  43.079  0.00  0.00    +0.022 C 
ATOM     12  C24 <0> A   1     -14.290  12.526  46.794  0.00  0.00    +0.018 C 
ENDROOT
BRANCH   1  13
ATOM     13  O2  <0> A   1     -13.917   9.710  42.811  0.00  0.00    -0.337 OA
BRANCH  13  14
ATOM     14  C5  <0> A   1     -13.208  10.324  41.851  0.00  0.00    +0.467 C 
ATOM     15  O1  <0> A   1     -12.329  11.097  42.149  0.00  0.00    -0.508 OA
BRANCH  14  16
ATOM     16  C3  <0> A   1     -13.508  10.048  40.400  0.00  0.00    +0.024 C 
ATOM     17  C4  <0> A   1     -12.762  11.056  39.524  0.00  0.00    +0.058 C 
BRANCH  16  19
ATOM     18  C1  <0> A   1     -12.404   8.634  38.662  0.00  0.00    +0.023 C 
ATOM     19  C2  <0> A   1     -13.056   8.630  40.046  0.00  0.00    +0.032 C 
ENDBRANCH  16  19
ENDBRANCH  14  16
ENDBRANCH  13  14
ENDBRANCH   1  13
BRANCH   7  20
ATOM     20  C17 <0> A   1     -13.627   6.930  43.096  0.00  0.00    +0.044 C 
BRANCH  20  21
ATOM     21  C18 <0> A   1     -15.023   6.322  43.244  0.00  0.00    +0.015 C 
BRANCH  21  22
ATOM     22  C19 <0> A   1     -14.903   4.902  43.735  0.00  0.00    +0.351 C 
ATOM     23  O3  <0> A   1     -14.005   4.200  43.339  0.00  0.00    -0.430 OA
BRANCH  22  24
ATOM     24  C20 <0> A   1     -15.905   4.359  44.722  0.00  0.00    -0.020 C 
BRANCH  24  25
ATOM     25  C21 <0> A   1     -15.306   4.397  46.129  0.00  0.00    +0.241 C 
BRANCH  25  26
ATOM     26  O6  <0> A   1     -13.902   4.142  46.057  0.00  0.00    -0.532 OA
ATOM     27  H34 <0> A   1     -13.442   4.236  46.902  0.00  0.00    +0.350 HD
ENDBRANCH  25  26
BRANCH  25  28
ATOM     28  C22 <0> A   1     -15.543   5.776  46.747  0.00  0.00    -0.098 C 
BRANCH  28  29
ATOM     29  C23 <0> A   1     -16.970   5.878  47.220  0.00  0.00    +0.491 C 
ATOM     30  O4  <0> A   1     -17.795   6.467  46.542  0.00  0.00    -0.679 OA
ATOM     31  O5  <0> A   1     -17.299   5.371  48.279  0.00  0.00    -0.713 OA
ENDBRANCH  28  29
ENDBRANCH  25  28
ENDBRANCH  24  25
ENDBRANCH  22  24
ENDBRANCH  21  22
ENDBRANCH  20  21
ENDBRANCH   7  20
TORSDOF 12
