REMARK VINA RESULT:      -7.6      3.786     10.019
REMARK  Name = CHEMBL387514
REMARK  15 active torsions:
REMARK  status: ('A' for Active; 'I' for Inactive)
REMARK    1  A    between atoms: C1_1  and  C2_2
REMARK    2  A    between atoms: C2_2  and  C3_3
REMARK    3  A    between atoms: C2_2  and  N1_4
REMARK    4  A    between atoms: C4_5  and  C25_29
REMARK    5  A    between atoms: C5_6  and  C19_22
REMARK    6  A    between atoms: N2_11  and  C12_15
REMARK    7  A    between atoms: C12_15  and  C13_16
REMARK    8  A    between atoms: C25_29  and  C26_30
REMARK    9  A    between atoms: C26_30  and  C27_31
REMARK   10  A    between atoms: C27_31  and  C28_33
REMARK   11  A    between atoms: C27_31  and  O5_41
REMARK   12  A    between atoms: C28_33  and  C29_34
REMARK   13  A    between atoms: C29_34  and  C30_36
REMARK   14  A    between atoms: C29_34  and  O4_40
REMARK   15  A    between atoms: C30_36  and  C31_37
REMARK                            x       y       z     vdW  Elec       q    Type
REMARK                         _______ _______ _______ _____ _____    ______ ____
ROOT
ATOM      1  N1  <0> A   1     -15.346  10.660  47.370  0.00  0.00    -0.392 N 
ATOM      2  C4  <0> A   1     -16.124   9.962  48.216  0.00  0.00    +0.099 C 
ATOM      3  C5  <0> A   1     -16.126   8.656  47.824  0.00  0.00    -0.158 C 
ATOM      4  C6  <0> A   1     -15.306   8.556  46.678  0.00  0.00    -0.074 C 
ATOM      5  C7  <0> A   1     -14.826   9.803  46.412  0.00  0.00    -0.042 C 
ATOM      6  C8  <0> A   1     -13.922  10.233  45.356  0.00  0.00    +0.595 C 
ATOM      7  O1  <0> A   1     -13.648  11.419  45.352  0.00  0.00    -0.567 OA
ATOM      8  N2  <0> A   1     -13.361   9.521  44.406  0.00  0.00    -0.574 N 
ATOM      9  C9  <0> A   1     -13.541   8.130  44.091  0.00  0.00    +0.260 C 
ATOM     10  C10 <0> A   1     -13.694   7.234  45.289  0.00  0.00    +0.021 C 
ATOM     11  C11 <0> A   1     -15.055   7.289  45.921  0.00  0.00    +0.099 C 
ENDROOT
BRANCH   3  12
ATOM     12  C19 <0> A   1     -16.856   7.543  48.482  0.00  0.00    -0.006 A 
ATOM     13  C20 <0> A   1     -18.147   7.215  48.070  0.00  0.00    +0.048 A 
ATOM     14  C21 <0> A   1     -18.821   6.179  48.684  0.00  0.00    -0.016 A 
ATOM     15  C22 <0> A   1     -18.218   5.466  49.707  0.00  0.00    +0.093 A 
ATOM     16  C23 <0> A   1     -16.936   5.790  50.119  0.00  0.00    -0.017 A 
ATOM     17  C24 <0> A   1     -16.251   6.820  49.507  0.00  0.00    +0.050 A 
ATOM     18  F1  <0> A   1     -18.883   4.454  50.306  0.00  0.00    -0.142 F 
ENDBRANCH   3  12
BRANCH   1  20
ATOM     19  C1  <0> A   1     -16.405  12.837  47.723  0.00  0.00    +0.037 C 
ATOM     20  C2  <0> A   1     -15.092  12.101  47.445  0.00  0.00    +0.244 C 
ATOM     21  C3  <0> A   1     -14.099  12.385  48.574  0.00  0.00    +0.037 C 
ENDBRANCH   1  20
BRANCH   8  22
ATOM     22  C12 <0> A   1     -12.420  10.246  43.548  0.00  0.00    +0.332 C 
BRANCH  22  23
ATOM     23  C13 <0> A   1     -13.035  10.448  42.187  0.00  0.00    -0.106 A 
ATOM     24  C14 <0> A   1     -12.528   9.772  41.093  0.00  0.00    +0.038 A 
ATOM     25  C15 <0> A   1     -13.092   9.959  39.844  0.00  0.00    -0.004 A 
ATOM     26  C16 <0> A   1     -14.162  10.819  39.690  0.00  0.00    +0.004 A 
ATOM     27  C17 <0> A   1     -14.669  11.495  40.785  0.00  0.00    -0.005 A 
ATOM     28  C18 <0> A   1     -14.109  11.305  42.034  0.00  0.00    +0.011 A 
ENDBRANCH  22  23
ENDBRANCH   8  22
BRANCH   2  29
ATOM     29  C25 <0> A   1     -16.869  10.527  49.397  0.00  0.00    +0.114 C 
BRANCH  29  30
ATOM     30  C26 <0> A   1     -16.061  10.284  50.675  0.00  0.00    -0.006 C 
BRANCH  30  31
ATOM     31  C27 <0> A   1     -16.975   9.696  51.752  0.00  0.00    +0.212 C 
BRANCH  31  32
ATOM     32  O5  <0> A   1     -17.110  10.631  52.824  0.00  0.00    -0.541 OA
ATOM     33  H36 <0> A   1     -17.690  11.379  52.623  0.00  0.00    +0.362 HD
ENDBRANCH  31  32
BRANCH  31  34
ATOM     34  C28 <0> A   1     -18.351   9.407  51.150  0.00  0.00    -0.051 C 
BRANCH  34  35
ATOM     35  C29 <0> A   1     -19.319   9.000  52.263  0.00  0.00    +0.230 C 
BRANCH  35  36
ATOM     36  O4  <0> A   1     -20.178  10.099  52.573  0.00  0.00    -0.528 OA
ATOM     37  H35 <0> A   1     -21.108   9.942  52.364  0.00  0.00    +0.349 HD
ENDBRANCH  35  36
BRANCH  35  38
ATOM     38  C30 <0> A   1     -20.162   7.811  51.797  0.00  0.00    -0.103 C 
BRANCH  38  39
ATOM     39  C31 <0> A   1     -21.464   8.311  51.227  0.00  0.00    +0.490 C 
ATOM     40  O2  <0> A   1     -21.510   8.723  50.081  0.00  0.00    -0.681 OA
ATOM     41  O3  <0> A   1     -22.472   8.303  51.913  0.00  0.00    -0.713 OA
ENDBRANCH  38  39
ENDBRANCH  35  38
ENDBRANCH  34  35
ENDBRANCH  31  34
ENDBRANCH  30  31
ENDBRANCH  29  30
ENDBRANCH   2  29
TORSDOF 13
