REMARK VINA RESULT:      -7.6      3.395      5.896
REMARK  Name = CHEMBL155642
REMARK  11 active torsions:
REMARK  status: ('A' for Active; 'I' for Inactive)
REMARK    1  A    between atoms: C1_1  and  C2_2
REMARK    2  A    between atoms: C2_2  and  C3_3
REMARK    3  A    between atoms: C2_2  and  C4_4
REMARK    4  A    between atoms: C5_5  and  C19_21
REMARK    5  A    between atoms: C6_6  and  C13_14
REMARK    6  A    between atoms: C8_8  and  C9_10
REMARK    7  A    between atoms: C9_10  and  C10_11
REMARK    8  A    between atoms: C9_10  and  C11_12
REMARK    9  A    between atoms: C9_10  and  C12_13
REMARK   10  A    between atoms: C20_22  and  C21_23
REMARK   11  A    between atoms: C23_25  and  O3_31
REMARK                            x       y       z     vdW  Elec       q    Type
REMARK                         _______ _______ _______ _____ _____    ______ ____
ROOT
ATOM      1  C4  <0> A   1     -28.377  -2.878  51.939  0.00  0.00    +0.160 A 
ATOM      2  C5  <0> A   1     -26.987  -2.822  52.044  0.00  0.00    -0.104 A 
ATOM      3  C6  <0> A   1     -26.375  -1.575  52.283  0.00  0.00    +0.010 A 
ATOM      4  C7  <0> A   1     -27.198  -0.452  52.405  0.00  0.00    -0.024 A 
ATOM      5  C8  <0> A   1     -28.564  -0.604  52.287  0.00  0.00    +0.151 A 
ATOM      6  N1  <0> A   1     -29.104  -1.786  52.057  0.00  0.00    -0.468 NA
ENDROOT
BRANCH   3   7
ATOM      7  C13 <0> A   1     -24.904  -1.459  52.404  0.00  0.00    -0.064 A 
ATOM      8  C14 <0> A   1     -24.120  -1.273  51.266  0.00  0.00    +0.074 A 
ATOM      9  C15 <0> A   1     -22.750  -1.166  51.384  0.00  0.00    -0.013 A 
ATOM     10  C16 <0> A   1     -22.152  -1.244  52.631  0.00  0.00    +0.108 A 
ATOM     11  C17 <0> A   1     -22.926  -1.430  53.765  0.00  0.00    -0.014 A 
ATOM     12  C18 <0> A   1     -24.297  -1.532  53.659  0.00  0.00    +0.060 A 
ATOM     13  F1  <0> A   1     -20.810  -1.141  52.742  0.00  0.00    -0.137 F 
ENDBRANCH   3   7
BRANCH   5  14
ATOM     14  C9  <0> A   1     -29.456   0.604  52.416  0.00  0.00    -0.019 C 
ATOM     15  C10 <0> A   1     -30.919   0.173  52.294  0.00  0.00    +0.041 C 
ATOM     16  C11 <0> A   1     -29.231   1.261  53.780  0.00  0.00    +0.046 C 
ATOM     17  C12 <0> A   1     -29.124   1.605  51.307  0.00  0.00    +0.039 C 
ENDBRANCH   5  14
BRANCH   1  19
ATOM     18  C1  <0> A   1     -30.234  -4.364  52.641  0.00  0.00    +0.037 C 
ATOM     19  C2  <0> A   1     -29.053  -4.200  51.682  0.00  0.00    +0.042 C 
ATOM     20  C3  <0> A   1     -29.558  -4.243  50.238  0.00  0.00    +0.037 C 
ENDBRANCH   1  19
BRANCH   2  21
ATOM     21  C19 <0> A   1     -26.173  -4.046  51.907  0.00  0.00    +0.049 C 
ATOM     22  C20 <0> A   1     -25.760  -4.436  50.708  0.00  0.00    -0.014 C 
BRANCH  22  23
ATOM     23  C21 <0> A   1     -24.929  -5.686  50.568  0.00  0.00    +0.242 C 
ATOM     24  C22 <0> A   1     -25.619  -6.655  49.603  0.00  0.00    +0.050 C 
ATOM     25  C23 <0> A   1     -24.793  -7.940  49.496  0.00  0.00    +0.186 C 
ATOM     26  C24 <0> A   1     -24.673  -8.571  50.889  0.00  0.00    +0.024 C 
ATOM     27  C25 <0> A   1     -24.174  -7.513  51.848  0.00  0.00    +0.498 C 
ATOM     28  O1  <0> A   1     -23.250  -7.738  52.594  0.00  0.00    -0.450 OA
ATOM     29  O2  <0> A   1     -24.788  -6.313  51.847  0.00  0.00    -0.369 OA
BRANCH  25  30
ATOM     30  O3  <0> A   1     -23.491  -7.631  48.994  0.00  0.00    -0.564 OA
ATOM     31  H30 <0> A   1     -22.798  -8.230  49.303  0.00  0.00    +0.387 HD
ENDBRANCH  25  30
ENDBRANCH  22  23
ENDBRANCH   2  21
TORSDOF 6
