REMARK VINA RESULT:      -7.6      3.984      7.025
REMARK  Name = CHEMBL427854
REMARK  15 active torsions:
REMARK  status: ('A' for Active; 'I' for Inactive)
REMARK    1  A    between atoms: C1_1  and  C2_2
REMARK    2  A    between atoms: C2_2  and  N1_3
REMARK    3  A    between atoms: C3_4  and  C21_25
REMARK    4  A    between atoms: C4_5  and  C15_18
REMARK    5  A    between atoms: C5_6  and  C14_17
REMARK    6  A    between atoms: C6_7  and  C7_8
REMARK    7  A    between atoms: N2_10  and  C8_11
REMARK    8  A    between atoms: C21_25  and  C22_26
REMARK    9  A    between atoms: C22_26  and  C23_27
REMARK   10  A    between atoms: C23_27  and  C24_29
REMARK   11  A    between atoms: C23_27  and  O5_37
REMARK   12  A    between atoms: C24_29  and  C25_30
REMARK   13  A    between atoms: C25_30  and  C26_32
REMARK   14  A    between atoms: C25_30  and  O4_36
REMARK   15  A    between atoms: C26_32  and  C27_33
REMARK                            x       y       z     vdW  Elec       q    Type
REMARK                         _______ _______ _______ _____ _____    ______ ____
ROOT
ATOM      1  N1  <0> A   1     -12.524  10.314  47.314  0.00  0.00    -0.407 N 
ATOM      2  C3  <0> A   1     -13.167   9.425  46.529  0.00  0.00    +0.082 C 
ATOM      3  C4  <0> A   1     -13.411   8.296  47.259  0.00  0.00    -0.141 C 
ATOM      4  C5  <0> A   1     -12.890   8.508  48.550  0.00  0.00    -0.082 C 
ATOM      5  C6  <0> A   1     -12.342   9.760  48.561  0.00  0.00    -0.059 C 
ATOM      6  C14 <0> A   1     -12.927   7.536  49.701  0.00  0.00    +0.110 C 
ENDROOT
BRANCH   3   7
ATOM      7  C15 <0> A   1     -14.098   7.070  46.779  0.00  0.00    -0.009 A 
ATOM      8  C16 <0> A   1     -13.354   5.987  46.316  0.00  0.00    +0.050 A 
ATOM      9  C17 <0> A   1     -13.997   4.850  45.872  0.00  0.00    -0.016 A 
ATOM     10  C18 <0> A   1     -15.380   4.785  45.885  0.00  0.00    +0.094 A 
ATOM     11  C19 <0> A   1     -16.125   5.859  46.344  0.00  0.00    -0.016 A 
ATOM     12  C20 <0> A   1     -15.490   6.998  46.796  0.00  0.00    +0.053 A 
ATOM     13  F1  <0> A   1     -16.006   3.670  45.449  0.00  0.00    -0.142 F 
ENDBRANCH   3   7
BRANCH   5  14
ATOM     14  C7  <0> A   1     -11.678  10.401  49.701  0.00  0.00    +0.602 C 
ATOM     15  O1  <0> A   1     -12.342  10.872  50.605  0.00  0.00    -0.498 OA
ATOM     16  N2  <0> A   1     -10.332  10.466  49.747  0.00  0.00    -0.661 N 
ATOM     17  H8  <0> A   1      -9.808  10.208  48.974  0.00  0.00    +0.415 HD
BRANCH  16  18
ATOM     18  C8  <0> A   1      -9.694  10.907  50.910  0.00  0.00    +0.144 A 
ATOM     19  C9  <0> A   1      -9.492  12.265  51.122  0.00  0.00    +0.017 A 
ATOM     20  C10 <0> A   1      -8.860  12.696  52.272  0.00  0.00    +0.026 A 
ATOM     21  C11 <0> A   1      -8.430  11.778  53.212  0.00  0.00    -0.019 A 
ATOM     22  C12 <0> A   1      -8.629  10.426  53.005  0.00  0.00    +0.026 A 
ATOM     23  C13 <0> A   1      -9.265   9.987  51.859  0.00  0.00    -0.027 A 
ENDBRANCH  16  18
ENDBRANCH   5  14
BRANCH   1  25
ATOM     24  C1  <0> A   1     -13.174  12.671  47.241  0.00  0.00    +0.040 C 
ATOM     25  C2  <0> A   1     -12.086  11.650  46.903  0.00  0.00    +0.280 C 
ENDBRANCH   1  25
BRANCH   2  26
ATOM     26  C21 <0> A   1     -13.553   9.641  45.089  0.00  0.00    +0.117 C 
BRANCH  26  27
ATOM     27  C22 <0> A   1     -12.442   9.114  44.179  0.00  0.00    -0.007 C 
BRANCH  27  28
ATOM     28  C23 <0> A   1     -12.467   9.874  42.851  0.00  0.00    +0.212 C 
BRANCH  28  29
ATOM     29  O5  <0> A   1     -11.801   9.104  41.848  0.00  0.00    -0.542 OA
ATOM     30  H30 <0> A   1     -11.991   8.157  41.888  0.00  0.00    +0.363 HD
ENDBRANCH  28  29
BRANCH  28  31
ATOM     31  C24 <0> A   1     -13.919  10.113  42.428  0.00  0.00    -0.051 C 
BRANCH  31  32
ATOM     32  C25 <0> A   1     -14.003  11.394  41.595  0.00  0.00    +0.231 C 
BRANCH  32  33
ATOM     33  O4  <0> A   1     -12.718  12.018  41.550  0.00  0.00    -0.528 OA
ATOM     34  H29 <0> A   1     -12.730  12.957  41.781  0.00  0.00    +0.349 HD
ENDBRANCH  32  33
BRANCH  32  35
ATOM     35  C26 <0> A   1     -14.452  11.049  40.173  0.00  0.00    -0.103 C 
BRANCH  35  36
ATOM     36  C27 <0> A   1     -13.275  11.151  39.236  0.00  0.00    +0.490 C 
ATOM     37  O2  <0> A   1     -13.099  12.167  38.586  0.00  0.00    -0.681 OA
ATOM     38  O3  <0> A   1     -12.499  10.216  39.129  0.00  0.00    -0.713 OA
ENDBRANCH  35  36
ENDBRANCH  32  35
ENDBRANCH  31  32
ENDBRANCH  28  31
ENDBRANCH  27  28
ENDBRANCH  26  27
ENDBRANCH   2  26
TORSDOF 13
