REMARK VINA RESULT:      -7.9      1.347      1.804
REMARK  Name = CHEMBL235472
REMARK  17 active torsions:
REMARK  status: ('A' for Active; 'I' for Inactive)
REMARK    1  A    between atoms: C1_1  and  C2_2
REMARK    2  A    between atoms: C2_2  and  C3_3
REMARK    3  A    between atoms: C2_2  and  N1_4
REMARK    4  A    between atoms: C4_5  and  C27_32
REMARK    5  A    between atoms: C5_6  and  C21_25
REMARK    6  A    between atoms: C6_7  and  C16_19
REMARK    7  A    between atoms: C7_8  and  C8_9
REMARK    8  A    between atoms: N2_11  and  C9_12
REMARK    9  A    between atoms: C9_12  and  C10_13
REMARK   10  A    between atoms: C27_32  and  C28_33
REMARK   11  A    between atoms: C28_33  and  C29_34
REMARK   12  A    between atoms: C29_34  and  C30_36
REMARK   13  A    between atoms: C29_34  and  O5_44
REMARK   14  A    between atoms: C30_36  and  C31_37
REMARK   15  A    between atoms: C31_37  and  C32_39
REMARK   16  A    between atoms: C31_37  and  O4_43
REMARK   17  A    between atoms: C32_39  and  C33_40
REMARK                            x       y       z     vdW  Elec       q    Type
REMARK                         _______ _______ _______ _____ _____    ______ ____
ROOT
ATOM      1  N1  <0> A   1     -15.526   6.530  45.872  0.00  0.00    -0.395 N 
ATOM      2  C4  <0> A   1     -14.727   7.498  45.363  0.00  0.00    +0.066 C 
ATOM      3  C5  <0> A   1     -14.634   8.518  46.264  0.00  0.00    -0.098 C 
ATOM      4  C6  <0> A   1     -15.417   8.161  47.392  0.00  0.00    -0.064 C 
ATOM      5  C7  <0> A   1     -15.968   6.916  47.116  0.00  0.00    -0.020 C 
ENDROOT
BRANCH   3   6
ATOM      6  C21 <0> A   1     -13.855   9.770  46.095  0.00  0.00    +0.007 A 
ATOM      7  C22 <0> A   1     -14.352  10.799  45.298  0.00  0.00    +0.046 A 
ATOM      8  C23 <0> A   1     -13.624  11.962  45.144  0.00  0.00    -0.022 A 
ATOM      9  C24 <0> A   1     -12.401  12.106  45.781  0.00  0.00    +0.093 A 
ATOM     10  C25 <0> A   1     -11.906  11.085  46.575  0.00  0.00    -0.022 A 
ATOM     11  C26 <0> A   1     -12.629   9.921  46.738  0.00  0.00    +0.071 A 
ATOM     12  F1  <0> A   1     -11.693  13.245  45.627  0.00  0.00    -0.145 F 
ENDBRANCH   3   6
BRANCH   4  13
ATOM     13  C16 <0> A   1     -15.614   8.963  48.620  0.00  0.00    +0.205 A 
ATOM     14  C17 <0> A   1     -16.459  10.072  48.595  0.00  0.00    -0.044 A 
ATOM     15  C18 <0> A   1     -16.633  10.812  49.751  0.00  0.00    +0.061 A 
ATOM     16  C19 <0> A   1     -15.956  10.418  50.897  0.00  0.00    -0.050 A 
ATOM     17  C20 <0> A   1     -15.133   9.308  50.852  0.00  0.00    +0.262 A 
ATOM     18  N3  <0> A   1     -14.988   8.618  49.739  0.00  0.00    -0.461 NA
ENDBRANCH   4  13
BRANCH   5  19
ATOM     19  C8  <0> A   1     -16.856   6.149  47.994  0.00  0.00    +0.601 C 
ATOM     20  O1  <0> A   1     -16.386   5.426  48.853  0.00  0.00    -0.517 OA
ATOM     21  N2  <0> A   1     -18.193   6.245  47.850  0.00  0.00    -0.718 N 
ATOM     22  H10 <0> A   1     -18.566   6.765  47.122  0.00  0.00    +0.407 HD
BRANCH  21  23
ATOM     23  C9  <0> A   1     -19.081   5.564  48.795  0.00  0.00    +0.320 C 
BRANCH  23  24
ATOM     24  C10 <0> A   1     -19.663   6.571  49.754  0.00  0.00    -0.112 A 
ATOM     25  C11 <0> A   1     -20.736   6.225  50.552  0.00  0.00    +0.025 A 
ATOM     26  C12 <0> A   1     -21.269   7.148  51.433  0.00  0.00    +0.004 A 
ATOM     27  C13 <0> A   1     -20.728   8.418  51.514  0.00  0.00    +0.013 A 
ATOM     28  C14 <0> A   1     -19.654   8.764  50.716  0.00  0.00    +0.003 A 
ATOM     29  C15 <0> A   1     -19.118   7.839  49.839  0.00  0.00    +0.026 A 
ENDBRANCH  23  24
ENDBRANCH  21  23
ENDBRANCH   5  19
BRANCH   1  31
ATOM     30  C1  <0> A   1     -16.421   5.574  43.807  0.00  0.00    +0.043 C 
ATOM     31  C2  <0> A   1     -15.869   5.274  45.202  0.00  0.00    +0.230 C 
ATOM     32  C3  <0> A   1     -14.617   4.404  45.079  0.00  0.00    +0.046 C 
ENDBRANCH   1  31
BRANCH   2  33
ATOM     33  C27 <0> A   1     -14.050   7.456  44.018  0.00  0.00    +0.120 C 
BRANCH  33  34
ATOM     34  C28 <0> A   1     -12.538   7.587  44.203  0.00  0.00    -0.008 C 
BRANCH  34  35
ATOM     35  C29 <0> A   1     -11.971   8.518  43.130  0.00  0.00    +0.213 C 
BRANCH  35  36
ATOM     36  O5  <0> A   1     -11.030   7.804  42.326  0.00  0.00    -0.542 OA
ATOM     37  H35 <0> A   1     -11.354   6.951  42.006  0.00  0.00    +0.362 HD
ENDBRANCH  35  36
BRANCH  35  38
ATOM     38  C30 <0> A   1     -13.110   9.032  42.246  0.00  0.00    -0.051 C 
BRANCH  38  39
ATOM     39  C31 <0> A   1     -12.799  10.459  41.791  0.00  0.00    +0.231 C 
BRANCH  39  40
ATOM     40  O4  <0> A   1     -11.440  10.532  41.351  0.00  0.00    -0.528 OA
ATOM     41  H34 <0> A   1     -11.328  10.402  40.400  0.00  0.00    +0.349 HD
ENDBRANCH  39  40
BRANCH  39  42
ATOM     42  C32 <0> A   1     -13.729  10.841  40.638  0.00  0.00    -0.103 C 
BRANCH  42  43
ATOM     43  C33 <0> A   1     -12.937  10.917  39.358  0.00  0.00    +0.491 C 
ATOM     44  O2  <0> A   1     -12.653   9.896  38.755  0.00  0.00    -0.681 OA
ATOM     45  O3  <0> A   1     -12.581  12.000  38.925  0.00  0.00    -0.713 OA
ENDBRANCH  42  43
ENDBRANCH  39  42
ENDBRANCH  38  39
ENDBRANCH  35  38
ENDBRANCH  34  35
ENDBRANCH  33  34
ENDBRANCH   2  33
TORSDOF 15
