REMARK VINA RESULT:      -8.2     14.413     17.379
REMARK  Name = CHEMBL350895
REMARK  8 active torsions:
REMARK  status: ('A' for Active; 'I' for Inactive)
REMARK    1  A    between atoms: C1_1  and  C2_2
REMARK    2  A    between atoms: C2_2  and  C3_3
REMARK    3  A    between atoms: C4_4  and  C20_22
REMARK    4  A    between atoms: C5_5  and  C14_15
REMARK    5  A    between atoms: C7_7  and  C8_9
REMARK    6  A    between atoms: C20_22  and  C21_23
REMARK    7  A    between atoms: C21_23  and  C22_24
REMARK    8  A    between atoms: C24_26  and  O3_32
REMARK                            x       y       z     vdW  Elec       q    Type
REMARK                         _______ _______ _______ _____ _____    ______ ____
ROOT
ATOM      1  C3  <0> A   1     -27.393  -4.291  50.151  0.00  0.00    +0.150 A 
ATOM      2  C4  <0> A   1     -26.817  -3.089  50.509  0.00  0.00    -0.120 A 
ATOM      3  C5  <0> A   1     -25.488  -3.073  50.945  0.00  0.00    +0.004 A 
ATOM      4  C6  <0> A   1     -24.795  -4.283  51.001  0.00  0.00    -0.015 A 
ATOM      5  C7  <0> A   1     -25.449  -5.450  50.621  0.00  0.00    +0.174 A 
ATOM      6  N1  <0> A   1     -26.713  -5.418  50.219  0.00  0.00    -0.472 NA
ENDROOT
BRANCH   3   7
ATOM      7  C14 <0> A   1     -24.833  -1.801  51.340  0.00  0.00    -0.061 A 
ATOM      8  C15 <0> A   1     -24.489  -1.577  52.671  0.00  0.00    +0.065 A 
ATOM      9  C16 <0> A   1     -23.880  -0.392  53.034  0.00  0.00    -0.010 A 
ATOM     10  C17 <0> A   1     -23.611   0.573  52.076  0.00  0.00    +0.107 A 
ATOM     11  C18 <0> A   1     -23.952   0.353  50.751  0.00  0.00    -0.011 A 
ATOM     12  C19 <0> A   1     -24.555  -0.831  50.379  0.00  0.00    +0.062 A 
ATOM     13  F1  <0> A   1     -23.017   1.731  52.436  0.00  0.00    -0.136 F 
ENDBRANCH   3   7
BRANCH   5  14
ATOM     14  C8  <0> A   1     -24.727  -6.745  50.673  0.00  0.00    -0.051 A 
ATOM     15  C9  <0> A   1     -24.428  -7.427  49.495  0.00  0.00    +0.024 A 
ATOM     16  C10 <0> A   1     -23.758  -8.632  49.549  0.00  0.00    +0.003 A 
ATOM     17  C11 <0> A   1     -23.383  -9.164  50.770  0.00  0.00    +0.016 A 
ATOM     18  C12 <0> A   1     -23.678  -8.492  51.942  0.00  0.00    +0.001 A 
ATOM     19  C13 <0> A   1     -24.343  -7.283  51.899  0.00  0.00    +0.056 A 
ENDBRANCH   5  14
BRANCH   1  21
ATOM     20  C1  <0> A   1     -28.859  -4.400  48.152  0.00  0.00    +0.034 C 
ATOM     21  C2  <0> A   1     -28.825  -4.316  49.680  0.00  0.00    +0.090 C 
ENDBRANCH   1  21
BRANCH   2  22
ATOM     22  C20 <0> A   1     -27.610  -1.810  50.432  0.00  0.00    +0.086 C 
BRANCH  22  23
ATOM     23  C21 <0> A   1     -28.256  -1.527  51.790  0.00  0.00    +0.059 C 
BRANCH  23  24
ATOM     24  C22 <0> A   1     -28.242  -0.020  52.057  0.00  0.00    +0.198 C 
ATOM     25  C23 <0> A   1     -27.851   0.721  50.776  0.00  0.00    +0.040 C 
ATOM     26  C24 <0> A   1     -27.797   2.226  51.057  0.00  0.00    +0.184 C 
ATOM     27  C25 <0> A   1     -26.763   2.488  52.159  0.00  0.00    +0.021 C 
ATOM     28  C26 <0> A   1     -27.079   1.584  53.331  0.00  0.00    +0.496 C 
ATOM     29  O1  <0> A   1     -27.141   2.022  54.455  0.00  0.00    -0.452 OA
ATOM     30  O2  <0> A   1     -27.289   0.274  53.084  0.00  0.00    -0.366 OA
BRANCH  26  31
ATOM     31  O3  <0> A   1     -29.082   2.679  51.486  0.00  0.00    -0.563 OA
ATOM     32  H26 <0> A   1     -29.801   2.059  51.300  0.00  0.00    +0.387 HD
ENDBRANCH  26  31
ENDBRANCH  23  24
ENDBRANCH  22  23
ENDBRANCH   2  22
TORSDOF 7
