REMARK VINA RESULT:      -7.0     23.124     24.541
REMARK  Name = CHEMBL121658
REMARK  8 active torsions:
REMARK  status: ('A' for Active; 'I' for Inactive)
REMARK    1  A    between atoms: C1_1  and  C2_2
REMARK    2  A    between atoms: C2_2  and  C3_3
REMARK    3  A    between atoms: C2_2  and  C4_4
REMARK    4  A    between atoms: C7_7  and  C15_21
REMARK    5  A    between atoms: N1_8  and  C8_9
REMARK    6  A    between atoms: C8_9  and  C9_10
REMARK    7  A    between atoms: C9_10  and  C10_11
REMARK    8  A    between atoms: C12_14  and  O3_20
REMARK                            x       y       z     vdW  Elec       q    Type
REMARK                         _______ _______ _______ _____ _____    ______ ____
ROOT
ATOM      1  C4  <0> A   1     -12.728   9.921  47.387  0.00  0.00    +0.091 C 
ATOM      2  C5  <0> A   1     -13.389   9.708  48.545  0.00  0.00    -0.142 C 
ATOM      3  C6  <0> A   1     -14.156   8.540  48.391  0.00  0.00    -0.122 C 
ATOM      4  C7  <0> A   1     -13.935   8.073  47.129  0.00  0.00    +0.096 C 
ATOM      5  N1  <0> A   1     -13.059   8.929  46.510  0.00  0.00    -0.421 N 
ATOM      6 Br1  <0> A   1     -15.285   7.762  49.692  0.00  0.00    -0.009 Br
ATOM      7 Br2  <0> A   1     -13.299  10.786  50.096  0.00  0.00    -0.008 Br
ENDROOT
BRANCH   4   8
ATOM      8  C15 <0> A   1     -14.537   6.863  46.531  0.00  0.00    -0.040 A 
ATOM      9  C16 <0> A   1     -13.834   5.657  46.534  0.00  0.00    +0.052 A 
ATOM     10  C17 <0> A   1     -14.401   4.530  45.975  0.00  0.00    -0.008 A 
ATOM     11  C18 <0> A   1     -15.666   4.594  45.413  0.00  0.00    +0.110 A 
ATOM     12  C19 <0> A   1     -16.368   5.789  45.407  0.00  0.00    -0.005 A 
ATOM     13  C20 <0> A   1     -15.814   6.920  45.968  0.00  0.00    +0.082 A 
ATOM     14  F1  <0> A   1     -16.216   3.488  44.868  0.00  0.00    -0.135 F 
ENDBRANCH   4   8
BRANCH   1  16
ATOM     15  C1  <0> A   1     -12.587  12.363  46.976  0.00  0.00    +0.041 C 
ATOM     16  C2  <0> A   1     -11.787  11.065  47.107  0.00  0.00    +0.052 C 
ATOM     17  C3  <0> A   1     -10.787  11.196  48.258  0.00  0.00    +0.042 C 
ENDBRANCH   1  16
BRANCH   5  18
ATOM     18  C8  <0> A   1     -12.560   8.798  45.139  0.00  0.00    +0.303 C 
BRANCH  18  19
ATOM     19  C9  <0> A   1     -13.429   9.634  44.198  0.00  0.00    +0.055 C 
BRANCH  19  20
ATOM     20  C10 <0> A   1     -12.887   9.523  42.771  0.00  0.00    +0.205 C 
ATOM     21  C11 <0> A   1     -13.664  10.472  41.854  0.00  0.00    +0.046 C 
ATOM     22  C12 <0> A   1     -13.147  10.328  40.419  0.00  0.00    +0.187 C 
ATOM     23  C13 <0> A   1     -13.339   8.875  39.966  0.00  0.00    +0.025 C 
ATOM     24  C14 <0> A   1     -12.726   7.967  41.010  0.00  0.00    +0.497 C 
ATOM     25  O1  <0> A   1     -11.972   7.077  40.693  0.00  0.00    -0.449 OA
ATOM     26  O2  <0> A   1     -13.044   8.179  42.303  0.00  0.00    -0.371 OA
BRANCH  22  27
ATOM     27  O3  <0> A   1     -11.760  10.666  40.375  0.00  0.00    -0.564 OA
ATOM     28  H18 <0> A   1     -11.262  10.194  39.691  0.00  0.00    +0.388 HD
ENDBRANCH  22  27
ENDBRANCH  19  20
ENDBRANCH  18  19
ENDBRANCH   5  18
TORSDOF 6
