MODEL 1
REMARK VINA RESULT:      -8.7      0.000      0.000
REMARK  Name = CHEMBL488471
REMARK  15 active torsions:
REMARK  status: ('A' for Active; 'I' for Inactive)
REMARK    1  A    between atoms: C1_1  and  C2_2
REMARK    2  A    between atoms: C2_2  and  C3_3
REMARK    3  A    between atoms: C4_4  and  C19_26
REMARK    4  A    between atoms: N1_7  and  C7_8
REMARK    5  A    between atoms: C7_8  and  C8_9
REMARK    6  A    between atoms: C8_9  and  C9_10
REMARK    7  A    between atoms: C9_10  and  C10_12
REMARK    8  A    between atoms: C9_10  and  O4_20
REMARK    9  A    between atoms: C10_12  and  C11_13
REMARK   10  A    between atoms: C11_13  and  C12_15
REMARK   11  A    between atoms: C11_13  and  O3_19
REMARK   12  A    between atoms: C12_15  and  C13_16
REMARK   13  A    between atoms: N2_28  and  C20_29
REMARK   14  A    between atoms: C20_29  and  C21_30
REMARK   15  A    between atoms: C24_33  and  C27_36
REMARK                            x       y       z     vdW  Elec       q    Type
REMARK                         _______ _______ _______ _____ _____    ______ ____
ROOT
ATOM      1  C3  <0> A   1     -10.868   7.699  45.914  0.00  0.00    +0.082 C 
ATOM      2  C4  <0> A   1     -11.184   6.729  46.826  0.00  0.00    -0.225 C 
ATOM      3  C5  <0> A   1     -12.642   6.614  46.802  0.00  0.00    -0.124 C 
ATOM      4  C6  <0> A   1     -13.086   7.501  45.893  0.00  0.00    +0.025 C 
ATOM      5  N1  <0> A   1     -12.011   8.160  45.370  0.00  0.00    -0.427 N 
ATOM      6  C14 <0> A   1     -14.532   7.715  45.519  0.00  0.00    +0.101 C 
ATOM      7  C15 <0> A   1     -15.375   7.825  46.791  0.00  0.00    +0.019 C 
ATOM      8  C16 <0> A   1     -15.842   6.437  47.223  0.00  0.00    +0.003 C 
ATOM      9  C17 <0> A   1     -14.790   5.384  46.883  0.00  0.00    +0.010 C 
ATOM     10  C18 <0> A   1     -13.493   5.696  47.637  0.00  0.00    +0.088 C 
ENDROOT
BRANCH   2  11
ATOM     11  C19 <0> A   1     -10.247   5.956  47.660  0.00  0.00    +0.603 C 
ATOM     12  O5  <0> A   1     -10.053   6.281  48.815  0.00  0.00    -0.539 OA
ATOM     13  N2  <0> A   1      -9.606   4.890  47.142  0.00  0.00    -0.723 N 
ATOM     14  H28 <0> A   1      -9.762   4.630  46.221  0.00  0.00    +0.403 HD
BRANCH  13  15
ATOM     15  C20 <0> A   1      -8.675   4.123  47.972  0.00  0.00    +0.312 C 
BRANCH  15  16
ATOM     16  C21 <0> A   1      -7.372   3.948  47.236  0.00  0.00    -0.105 A 
ATOM     17  C22 <0> A   1      -6.187   4.349  47.827  0.00  0.00    +0.031 A 
ATOM     18  C23 <0> A   1      -4.991   4.190  47.157  0.00  0.00    +0.015 A 
ATOM     19  C24 <0> A   1      -4.977   3.625  45.883  0.00  0.00    -0.038 A 
ATOM     20  C25 <0> A   1      -6.174   3.223  45.293  0.00  0.00    +0.016 A 
ATOM     21  C26 <0> A   1      -7.364   3.381  45.974  0.00  0.00    +0.031 A 
BRANCH  19  22
ATOM     22  C27 <0> A   1      -3.694   3.453  45.158  0.00  0.00    -0.048 A 
ATOM     23  C28 <0> A   1      -2.495   3.828  45.761  0.00  0.00    +0.015 A 
ATOM     24  C29 <0> A   1      -1.305   3.665  45.082  0.00  0.00    +0.006 A 
ATOM     25  C30 <0> A   1      -1.300   3.131  43.806  0.00  0.00    +0.005 A 
ATOM     26  C31 <0> A   1      -2.488   2.757  43.203  0.00  0.00    +0.007 A 
ATOM     27  C32 <0> A   1      -3.683   2.910  43.876  0.00  0.00    +0.016 A 
ENDBRANCH  19  22
ENDBRANCH  15  16
ENDBRANCH  13  15
ENDBRANCH   2  11
BRANCH   1  29
ATOM     28  C1  <0> A   1      -8.846   7.229  44.557  0.00  0.00    +0.031 C 
ATOM     29  C2  <0> A   1      -9.478   8.176  45.580  0.00  0.00    +0.095 C 
ENDBRANCH   1  29
BRANCH   5  30
ATOM     30  C7  <0> A   1     -12.089   9.216  44.356  0.00  0.00    +0.290 C 
BRANCH  30  31
ATOM     31  C8  <0> A   1     -12.346  10.561  45.039  0.00  0.00    -0.017 C 
BRANCH  31  32
ATOM     32  C9  <0> A   1     -13.433  11.320  44.275  0.00  0.00    +0.216 C 
BRANCH  32  33
ATOM     33  O4  <0> A   1     -12.952  12.622  43.931  0.00  0.00    -0.541 OA
ATOM     34  H17 <0> A   1     -13.600  13.170  43.466  0.00  0.00    +0.366 HD
ENDBRANCH  32  33
BRANCH  32  35
ATOM     35  C10 <0> A   1     -13.789  10.555  42.999  0.00  0.00    -0.048 C 
BRANCH  35  36
ATOM     36  C11 <0> A   1     -13.289  11.333  41.781  0.00  0.00    +0.231 C 
BRANCH  36  37
ATOM     37  O3  <0> A   1     -11.953  10.927  41.472  0.00  0.00    -0.528 OA
ATOM     38  H16 <0> A   1     -11.440  11.595  40.997  0.00  0.00    +0.350 HD
ENDBRANCH  36  37
BRANCH  36  39
ATOM     39  C12 <0> A   1     -14.197  11.047  40.584  0.00  0.00    -0.102 C 
BRANCH  39  40
ATOM     40  C13 <0> A   1     -13.387  11.093  39.314  0.00  0.00    +0.490 C 
ATOM     41  O1  <0> A   1     -13.228  12.153  38.732  0.00  0.00    -0.681 OA
ATOM     42  O2  <0> A   1     -12.890  10.073  38.869  0.00  0.00    -0.713 OA
ENDBRANCH  39  40
ENDBRANCH  36  39
ENDBRANCH  35  36
ENDBRANCH  32  35
ENDBRANCH  31  32
ENDBRANCH  30  31
ENDBRANCH   5  30
TORSDOF 14
ENDMDL
MODEL 2
REMARK VINA RESULT:      -8.6      6.048     11.241
REMARK  Name = CHEMBL488471
REMARK  15 active torsions:
REMARK  status: ('A' for Active; 'I' for Inactive)
REMARK    1  A    between atoms: C1_1  and  C2_2
REMARK    2  A    between atoms: C2_2  and  C3_3
REMARK    3  A    between atoms: C4_4  and  C19_26
REMARK    4  A    between atoms: N1_7  and  C7_8
REMARK    5  A    between atoms: C7_8  and  C8_9
REMARK    6  A    between atoms: C8_9  and  C9_10
REMARK    7  A    between atoms: C9_10  and  C10_12
REMARK    8  A    between atoms: C9_10  and  O4_20
REMARK    9  A    between atoms: C10_12  and  C11_13
REMARK   10  A    between atoms: C11_13  and  C12_15
REMARK   11  A    between atoms: C11_13  and  O3_19
REMARK   12  A    between atoms: C12_15  and  C13_16
REMARK   13  A    between atoms: N2_28  and  C20_29
REMARK   14  A    between atoms: C20_29  and  C21_30
REMARK   15  A    between atoms: C24_33  and  C27_36
REMARK                            x       y       z     vdW  Elec       q    Type
REMARK                         _______ _______ _______ _____ _____    ______ ____
ROOT
ATOM      1  C3  <0> A   1     -14.814   6.705  45.617  0.00  0.00    +0.082 C 
ATOM      2  C4  <0> A   1     -15.653   7.301  46.519  0.00  0.00    -0.225 C 
ATOM      3  C5  <0> A   1     -15.281   8.716  46.540  0.00  0.00    -0.124 C 
ATOM      4  C6  <0> A   1     -14.271   8.864  45.664  0.00  0.00    +0.025 C 
ATOM      5  N1  <0> A   1     -13.987   7.645  45.120  0.00  0.00    -0.427 N 
ATOM      6  C14 <0> A   1     -13.584  10.168  45.340  0.00  0.00    +0.101 C 
ATOM      7  C15 <0> A   1     -13.241  10.897  46.641  0.00  0.00    +0.019 C 
ATOM      8  C16 <0> A   1     -14.410  11.785  47.059  0.00  0.00    +0.003 C 
ATOM      9  C17 <0> A   1     -15.740  11.146  46.665  0.00  0.00    +0.010 C 
ATOM     10  C18 <0> A   1     -15.894   9.801  47.383  0.00  0.00    +0.088 C 
ENDROOT
BRANCH   2  11
ATOM     11  C19 <0> A   1     -16.715   6.651  47.307  0.00  0.00    +0.603 C 
ATOM     12  O5  <0> A   1     -17.754   6.321  46.769  0.00  0.00    -0.539 OA
ATOM     13  N2  <0> A   1     -16.534   6.423  48.622  0.00  0.00    -0.723 N 
ATOM     14  H28 <0> A   1     -15.704   6.686  49.051  0.00  0.00    +0.403 HD
BRANCH  13  15
ATOM     15  C20 <0> A   1     -17.590   5.777  49.405  0.00  0.00    +0.312 C 
BRANCH  15  16
ATOM     16  C21 <0> A   1     -18.559   6.820  49.899  0.00  0.00    -0.105 A 
ATOM     17  C22 <0> A   1     -19.900   6.506  50.038  0.00  0.00    +0.031 A 
ATOM     18  C23 <0> A   1     -20.790   7.457  50.491  0.00  0.00    +0.015 A 
ATOM     19  C24 <0> A   1     -20.339   8.737  50.809  0.00  0.00    -0.038 A 
ATOM     20  C25 <0> A   1     -18.988   9.047  50.668  0.00  0.00    +0.016 A 
ATOM     21  C26 <0> A   1     -18.104   8.087  50.219  0.00  0.00    +0.031 A 
BRANCH  19  22
ATOM     22  C27 <0> A   1     -21.292   9.763  51.297  0.00  0.00    -0.048 A 
ATOM     23  C28 <0> A   1     -22.352  10.172  50.489  0.00  0.00    +0.015 A 
ATOM     24  C29 <0> A   1     -23.236  11.127  50.948  0.00  0.00    +0.006 A 
ATOM     25  C30 <0> A   1     -23.073  11.678  52.206  0.00  0.00    +0.005 A 
ATOM     26  C31 <0> A   1     -22.022  11.277  53.011  0.00  0.00    +0.007 A 
ATOM     27  C32 <0> A   1     -21.136  10.317  52.565  0.00  0.00    +0.016 A 
ENDBRANCH  19  22
ENDBRANCH  15  16
ENDBRANCH  13  15
ENDBRANCH   2  11
BRANCH   1  29
ATOM     28  C1  <0> A   1     -15.815   5.000  44.120  0.00  0.00    +0.031 C 
ATOM     29  C2  <0> A   1     -14.810   5.244  45.248  0.00  0.00    +0.095 C 
ENDBRANCH   1  29
BRANCH   5  30
ATOM     30  C7  <0> A   1     -12.935   7.396  44.130  0.00  0.00    +0.290 C 
BRANCH  30  31
ATOM     31  C8  <0> A   1     -13.496   7.610  42.723  0.00  0.00    -0.017 C 
BRANCH  31  32
ATOM     32  C9  <0> A   1     -12.342   7.706  41.723  0.00  0.00    +0.216 C 
BRANCH  32  33
ATOM     33  O4  <0> A   1     -11.563   6.509  41.779  0.00  0.00    -0.541 OA
ATOM     34  H17 <0> A   1     -12.072   5.719  42.012  0.00  0.00    +0.366 HD
ENDBRANCH  32  33
BRANCH  32  35
ATOM     35  C10 <0> A   1     -12.903   7.883  40.312  0.00  0.00    -0.048 C 
BRANCH  35  36
ATOM     36  C11 <0> A   1     -12.388   9.195  39.718  0.00  0.00    +0.231 C 
BRANCH  36  37
ATOM     37  O3  <0> A   1     -12.778   9.283  38.346  0.00  0.00    -0.528 OA
ATOM     38  H16 <0> A   1     -13.730   9.393  38.214  0.00  0.00    +0.350 HD
ENDBRANCH  36  37
BRANCH  36  39
ATOM     39  C12 <0> A   1     -12.981  10.374  40.492  0.00  0.00    -0.102 C 
BRANCH  39  40
ATOM     40  C13 <0> A   1     -13.804  11.226  39.559  0.00  0.00    +0.490 C 
ATOM     41  O1  <0> A   1     -15.019  11.124  39.556  0.00  0.00    -0.681 OA
ATOM     42  O2  <0> A   1     -13.256  12.014  38.809  0.00  0.00    -0.713 OA
ENDBRANCH  39  40
ENDBRANCH  36  39
ENDBRANCH  35  36
ENDBRANCH  32  35
ENDBRANCH  31  32
ENDBRANCH  30  31
ENDBRANCH   5  30
TORSDOF 14
ENDMDL
MODEL 3
REMARK VINA RESULT:      -8.6      6.021     11.195
REMARK  Name = CHEMBL488471
REMARK  15 active torsions:
REMARK  status: ('A' for Active; 'I' for Inactive)
REMARK    1  A    between atoms: C1_1  and  C2_2
REMARK    2  A    between atoms: C2_2  and  C3_3
REMARK    3  A    between atoms: C4_4  and  C19_26
REMARK    4  A    between atoms: N1_7  and  C7_8
REMARK    5  A    between atoms: C7_8  and  C8_9
REMARK    6  A    between atoms: C8_9  and  C9_10
REMARK    7  A    between atoms: C9_10  and  C10_12
REMARK    8  A    between atoms: C9_10  and  O4_20
REMARK    9  A    between atoms: C10_12  and  C11_13
REMARK   10  A    between atoms: C11_13  and  C12_15
REMARK   11  A    between atoms: C11_13  and  O3_19
REMARK   12  A    between atoms: C12_15  and  C13_16
REMARK   13  A    between atoms: N2_28  and  C20_29
REMARK   14  A    between atoms: C20_29  and  C21_30
REMARK   15  A    between atoms: C24_33  and  C27_36
REMARK                            x       y       z     vdW  Elec       q    Type
REMARK                         _______ _______ _______ _____ _____    ______ ____
ROOT
ATOM      1  C3  <0> A   1     -14.790   6.720  45.623  0.00  0.00    +0.082 C 
ATOM      2  C4  <0> A   1     -15.647   7.309  46.512  0.00  0.00    -0.225 C 
ATOM      3  C5  <0> A   1     -15.287   8.727  46.538  0.00  0.00    -0.124 C 
ATOM      4  C6  <0> A   1     -14.266   8.883  45.676  0.00  0.00    +0.025 C 
ATOM      5  N1  <0> A   1     -13.963   7.666  45.137  0.00  0.00    -0.427 N 
ATOM      6  C14 <0> A   1     -13.584  10.193  45.362  0.00  0.00    +0.101 C 
ATOM      7  C15 <0> A   1     -13.267  10.925  46.667  0.00  0.00    +0.019 C 
ATOM      8  C16 <0> A   1     -14.450  11.803  47.067  0.00  0.00    +0.003 C 
ATOM      9  C17 <0> A   1     -15.768  11.153  46.654  0.00  0.00    +0.010 C 
ATOM     10  C18 <0> A   1     -15.922   9.808  47.370  0.00  0.00    +0.088 C 
ENDROOT
BRANCH   2  11
ATOM     11  C19 <0> A   1     -16.715   6.651  47.284  0.00  0.00    +0.603 C 
ATOM     12  O5  <0> A   1     -17.752   6.331  46.736  0.00  0.00    -0.539 OA
ATOM     13  N2  <0> A   1     -16.542   6.403  48.597  0.00  0.00    -0.723 N 
ATOM     14  H28 <0> A   1     -15.713   6.657  49.034  0.00  0.00    +0.403 HD
BRANCH  13  15
ATOM     15  C20 <0> A   1     -17.604   5.749  49.364  0.00  0.00    +0.312 C 
BRANCH  15  16
ATOM     16  C21 <0> A   1     -18.572   6.787  49.870  0.00  0.00    -0.105 A 
ATOM     17  C22 <0> A   1     -18.134   8.076  50.117  0.00  0.00    +0.031 A 
ATOM     18  C23 <0> A   1     -19.017   9.030  50.580  0.00  0.00    +0.015 A 
ATOM     19  C24 <0> A   1     -20.352   8.695  50.797  0.00  0.00    -0.038 A 
ATOM     20  C25 <0> A   1     -20.788   7.396  50.546  0.00  0.00    +0.016 A 
ATOM     21  C26 <0> A   1     -19.898   6.450  50.078  0.00  0.00    +0.031 A 
BRANCH  19  22
ATOM     22  C27 <0> A   1     -21.306   9.717  51.294  0.00  0.00    -0.048 A 
ATOM     23  C28 <0> A   1     -21.183  10.216  52.589  0.00  0.00    +0.015 A 
ATOM     24  C29 <0> A   1     -22.072  11.168  53.046  0.00  0.00    +0.006 A 
ATOM     25  C30 <0> A   1     -23.084  11.625  52.221  0.00  0.00    +0.005 A 
ATOM     26  C31 <0> A   1     -23.212  11.132  50.935  0.00  0.00    +0.007 A 
ATOM     27  C32 <0> A   1     -22.323  10.186  50.466  0.00  0.00    +0.016 A 
ENDBRANCH  19  22
ENDBRANCH  15  16
ENDBRANCH  13  15
ENDBRANCH   2  11
BRANCH   1  29
ATOM     28  C1  <0> A   1     -15.773   5.001  44.130  0.00  0.00    +0.031 C 
ATOM     29  C2  <0> A   1     -14.768   5.259  45.255  0.00  0.00    +0.095 C 
ENDBRANCH   1  29
BRANCH   5  30
ATOM     30  C7  <0> A   1     -12.895   7.425  44.163  0.00  0.00    +0.290 C 
BRANCH  30  31
ATOM     31  C8  <0> A   1     -13.456   7.560  42.746  0.00  0.00    -0.017 C 
BRANCH  31  32
ATOM     32  C9  <0> A   1     -12.300   7.674  41.750  0.00  0.00    +0.216 C 
BRANCH  32  33
ATOM     33  O4  <0> A   1     -11.512   6.482  41.796  0.00  0.00    -0.541 OA
ATOM     34  H17 <0> A   1     -11.183   6.262  42.679  0.00  0.00    +0.366 HD
ENDBRANCH  32  33
BRANCH  32  35
ATOM     35  C10 <0> A   1     -12.860   7.860  40.339  0.00  0.00    -0.048 C 
BRANCH  35  36
ATOM     36  C11 <0> A   1     -12.410   9.213  39.786  0.00  0.00    +0.231 C 
BRANCH  36  37
ATOM     37  O3  <0> A   1     -12.759   9.303  38.402  0.00  0.00    -0.528 OA
ATOM     38  H16 <0> A   1     -13.678   9.560  38.244  0.00  0.00    +0.350 HD
ENDBRANCH  36  37
BRANCH  36  39
ATOM     39  C12 <0> A   1     -13.103  10.337  40.559  0.00  0.00    -0.102 C 
BRANCH  39  40
ATOM     40  C13 <0> A   1     -13.885  11.200  39.601  0.00  0.00    +0.490 C 
ATOM     41  O1  <0> A   1     -15.101  11.120  39.563  0.00  0.00    -0.681 OA
ATOM     42  O2  <0> A   1     -13.301  11.976  38.864  0.00  0.00    -0.713 OA
ENDBRANCH  39  40
ENDBRANCH  36  39
ENDBRANCH  35  36
ENDBRANCH  32  35
ENDBRANCH  31  32
ENDBRANCH  30  31
ENDBRANCH   5  30
TORSDOF 14
ENDMDL
MODEL 4
REMARK VINA RESULT:      -8.6      1.464      2.150
REMARK  Name = CHEMBL488471
REMARK  15 active torsions:
REMARK  status: ('A' for Active; 'I' for Inactive)
REMARK    1  A    between atoms: C1_1  and  C2_2
REMARK    2  A    between atoms: C2_2  and  C3_3
REMARK    3  A    between atoms: C4_4  and  C19_26
REMARK    4  A    between atoms: N1_7  and  C7_8
REMARK    5  A    between atoms: C7_8  and  C8_9
REMARK    6  A    between atoms: C8_9  and  C9_10
REMARK    7  A    between atoms: C9_10  and  C10_12
REMARK    8  A    between atoms: C9_10  and  O4_20
REMARK    9  A    between atoms: C10_12  and  C11_13
REMARK   10  A    between atoms: C11_13  and  C12_15
REMARK   11  A    between atoms: C11_13  and  O3_19
REMARK   12  A    between atoms: C12_15  and  C13_16
REMARK   13  A    between atoms: N2_28  and  C20_29
REMARK   14  A    between atoms: C20_29  and  C21_30
REMARK   15  A    between atoms: C24_33  and  C27_36
REMARK                            x       y       z     vdW  Elec       q    Type
REMARK                         _______ _______ _______ _____ _____    ______ ____
ROOT
ATOM      1  C3  <0> A   1     -12.909   7.793  47.051  0.00  0.00    +0.082 C 
ATOM      2  C4  <0> A   1     -12.757   6.434  47.118  0.00  0.00    -0.225 C 
ATOM      3  C5  <0> A   1     -13.707   5.876  46.155  0.00  0.00    -0.124 C 
ATOM      4  C6  <0> A   1     -14.342   6.918  45.589  0.00  0.00    +0.025 C 
ATOM      5  N1  <0> A   1     -13.864   8.071  46.143  0.00  0.00    -0.427 N 
ATOM      6  C14 <0> A   1     -15.398   6.815  44.515  0.00  0.00    +0.101 C 
ATOM      7  C15 <0> A   1     -16.421   5.748  44.911  0.00  0.00    +0.019 C 
ATOM      8  C16 <0> A   1     -15.970   4.384  44.395  0.00  0.00    +0.003 C 
ATOM      9  C17 <0> A   1     -14.447   4.276  44.417  0.00  0.00    +0.010 C 
ATOM     10  C18 <0> A   1     -13.944   4.421  45.856  0.00  0.00    +0.088 C 
ENDROOT
BRANCH   2  11
ATOM     11  C19 <0> A   1     -11.826   5.687  47.981  0.00  0.00    +0.603 C 
ATOM     12  O5  <0> A   1     -12.074   5.547  49.163  0.00  0.00    -0.539 OA
ATOM     13  N2  <0> A   1     -10.701   5.159  47.461  0.00  0.00    -0.723 N 
ATOM     14  H28 <0> A   1     -10.504   5.270  46.517  0.00  0.00    +0.403 HD
BRANCH  13  15
ATOM     15  C20 <0> A   1      -9.777   4.416  48.320  0.00  0.00    +0.312 C 
BRANCH  15  16
ATOM     16  C21 <0> A   1      -8.471   4.212  47.595  0.00  0.00    -0.105 A 
ATOM     17  C22 <0> A   1      -8.107   5.072  46.574  0.00  0.00    +0.031 A 
ATOM     18  C23 <0> A   1      -6.913   4.890  45.909  0.00  0.00    +0.015 A 
ATOM     19  C24 <0> A   1      -6.071   3.838  46.266  0.00  0.00    -0.038 A 
ATOM     20  C25 <0> A   1      -6.442   2.976  47.295  0.00  0.00    +0.016 A 
ATOM     21  C26 <0> A   1      -7.637   3.170  47.959  0.00  0.00    +0.031 A 
BRANCH  19  22
ATOM     22  C27 <0> A   1      -4.785   3.638  45.554  0.00  0.00    -0.048 A 
ATOM     23  C28 <0> A   1      -4.754   2.930  44.354  0.00  0.00    +0.015 A 
ATOM     24  C29 <0> A   1      -3.555   2.748  43.695  0.00  0.00    +0.006 A 
ATOM     25  C30 <0> A   1      -2.386   3.265  44.224  0.00  0.00    +0.005 A 
ATOM     26  C31 <0> A   1      -2.411   3.968  45.415  0.00  0.00    +0.007 A 
ATOM     27  C32 <0> A   1      -3.606   4.162  46.078  0.00  0.00    +0.016 A 
ENDBRANCH  19  22
ENDBRANCH  15  16
ENDBRANCH  13  15
ENDBRANCH   2  11
BRANCH   1  29
ATOM     28  C1  <0> A   1     -12.882   9.072  49.175  0.00  0.00    +0.031 C 
ATOM     29  C2  <0> A   1     -12.143   8.806  47.862  0.00  0.00    +0.095 C 
ENDBRANCH   1  29
BRANCH   5  30
ATOM     30  C7  <0> A   1     -14.321   9.418  45.794  0.00  0.00    +0.290 C 
BRANCH  30  31
ATOM     31  C8  <0> A   1     -13.207  10.160  45.052  0.00  0.00    -0.017 C 
BRANCH  31  32
ATOM     32  C9  <0> A   1     -13.822  11.070  43.988  0.00  0.00    +0.216 C 
BRANCH  32  33
ATOM     33  O4  <0> A   1     -13.068  12.281  43.904  0.00  0.00    -0.541 OA
ATOM     34  H17 <0> A   1     -13.564  13.072  44.158  0.00  0.00    +0.366 HD
ENDBRANCH  32  33
BRANCH  32  35
ATOM     35  C10 <0> A   1     -13.799  10.360  42.633  0.00  0.00    -0.048 C 
BRANCH  35  36
ATOM     36  C11 <0> A   1     -13.054  11.225  41.616  0.00  0.00    +0.231 C 
BRANCH  36  37
ATOM     37  O3  <0> A   1     -11.754  10.675  41.384  0.00  0.00    -0.528 OA
ATOM     38  H16 <0> A   1     -11.687  10.155  40.571  0.00  0.00    +0.350 HD
ENDBRANCH  36  37
BRANCH  36  39
ATOM     39  C12 <0> A   1     -13.835  11.256  40.301  0.00  0.00    -0.102 C 
BRANCH  39  40
ATOM     40  C13 <0> A   1     -12.880  11.113  39.144  0.00  0.00    +0.490 C 
ATOM     41  O1  <0> A   1     -12.404  12.107  38.622  0.00  0.00    -0.681 OA
ATOM     42  O2  <0> A   1     -12.583  10.006  38.730  0.00  0.00    -0.713 OA
ENDBRANCH  39  40
ENDBRANCH  36  39
ENDBRANCH  35  36
ENDBRANCH  32  35
ENDBRANCH  31  32
ENDBRANCH  30  31
ENDBRANCH   5  30
TORSDOF 14
ENDMDL
MODEL 5
REMARK VINA RESULT:      -8.4      1.522      2.335
REMARK  Name = CHEMBL488471
REMARK  15 active torsions:
REMARK  status: ('A' for Active; 'I' for Inactive)
REMARK    1  A    between atoms: C1_1  and  C2_2
REMARK    2  A    between atoms: C2_2  and  C3_3
REMARK    3  A    between atoms: C4_4  and  C19_26
REMARK    4  A    between atoms: N1_7  and  C7_8
REMARK    5  A    between atoms: C7_8  and  C8_9
REMARK    6  A    between atoms: C8_9  and  C9_10
REMARK    7  A    between atoms: C9_10  and  C10_12
REMARK    8  A    between atoms: C9_10  and  O4_20
REMARK    9  A    between atoms: C10_12  and  C11_13
REMARK   10  A    between atoms: C11_13  and  C12_15
REMARK   11  A    between atoms: C11_13  and  O3_19
REMARK   12  A    between atoms: C12_15  and  C13_16
REMARK   13  A    between atoms: N2_28  and  C20_29
REMARK   14  A    between atoms: C20_29  and  C21_30
REMARK   15  A    between atoms: C24_33  and  C27_36
REMARK                            x       y       z     vdW  Elec       q    Type
REMARK                         _______ _______ _______ _____ _____    ______ ____
ROOT
ATOM      1  C3  <0> A   1     -11.850   7.506  45.627  0.00  0.00    +0.082 C 
ATOM      2  C4  <0> A   1     -12.051   6.644  46.670  0.00  0.00    -0.225 C 
ATOM      3  C5  <0> A   1     -13.480   6.330  46.661  0.00  0.00    -0.124 C 
ATOM      4  C6  <0> A   1     -14.020   7.007  45.631  0.00  0.00    +0.025 C 
ATOM      5  N1  <0> A   1     -13.031   7.724  45.019  0.00  0.00    -0.427 N 
ATOM      6  C14 <0> A   1     -15.473   6.965  45.226  0.00  0.00    +0.101 C 
ATOM      7  C15 <0> A   1     -16.350   7.142  46.467  0.00  0.00    +0.019 C 
ATOM      8  C16 <0> A   1     -16.636   5.781  47.097  0.00  0.00    +0.003 C 
ATOM      9  C17 <0> A   1     -15.444   4.843  46.917  0.00  0.00    +0.010 C 
ATOM     10  C18 <0> A   1     -14.217   5.435  47.619  0.00  0.00    +0.088 C 
ENDROOT
BRANCH   2  11
ATOM     11  C19 <0> A   1     -11.038   6.136  47.610  0.00  0.00    +0.603 C 
ATOM     12  O5  <0> A   1     -10.694   6.816  48.559  0.00  0.00    -0.539 OA
ATOM     13  N2  <0> A   1     -10.492   4.919  47.420  0.00  0.00    -0.723 N 
ATOM     14  H28 <0> A   1     -10.767   4.377  46.664  0.00  0.00    +0.403 HD
BRANCH  13  15
ATOM     15  C20 <0> A   1      -9.485   4.415  48.355  0.00  0.00    +0.312 C 
BRANCH  15  16
ATOM     16  C21 <0> A   1      -8.180   4.212  47.627  0.00  0.00    -0.105 A 
ATOM     17  C22 <0> A   1      -8.154   4.213  46.244  0.00  0.00    +0.031 A 
ATOM     18  C23 <0> A   1      -6.962   4.028  45.574  0.00  0.00    +0.015 A 
ATOM     19  C24 <0> A   1      -5.783   3.841  46.292  0.00  0.00    -0.038 A 
ATOM     20  C25 <0> A   1      -5.815   3.842  47.685  0.00  0.00    +0.016 A 
ATOM     21  C26 <0> A   1      -7.011   4.033  48.346  0.00  0.00    +0.031 A 
BRANCH  19  22
ATOM     22  C27 <0> A   1      -4.499   3.642  45.576  0.00  0.00    -0.048 A 
ATOM     23  C28 <0> A   1      -4.466   2.916  44.388  0.00  0.00    +0.015 A 
ATOM     24  C29 <0> A   1      -3.269   2.735  43.726  0.00  0.00    +0.006 A 
ATOM     25  C30 <0> A   1      -2.102   3.272  44.240  0.00  0.00    +0.005 A 
ATOM     26  C31 <0> A   1      -2.129   3.993  45.420  0.00  0.00    +0.007 A 
ATOM     27  C32 <0> A   1      -3.322   4.186  46.086  0.00  0.00    +0.016 A 
ENDBRANCH  19  22
ENDBRANCH  15  16
ENDBRANCH  13  15
ENDBRANCH   2  11
BRANCH   1  29
ATOM     28  C1  <0> A   1     -10.407   9.512  45.840  0.00  0.00    +0.031 C 
ATOM     29  C2  <0> A   1     -10.529   8.115  45.229  0.00  0.00    +0.095 C 
ENDBRANCH   1  29
BRANCH   5  30
ATOM     30  C7  <0> A   1     -13.229   8.600  43.861  0.00  0.00    +0.290 C 
BRANCH  30  31
ATOM     31  C8  <0> A   1     -13.500   7.750  42.618  0.00  0.00    -0.017 C 
BRANCH  31  32
ATOM     32  C9  <0> A   1     -12.231   7.672  41.768  0.00  0.00    +0.216 C 
BRANCH  32  33
ATOM     33  O4  <0> A   1     -11.507   6.486  42.101  0.00  0.00    -0.541 OA
ATOM     34  H17 <0> A   1     -11.425   5.856  41.371  0.00  0.00    +0.366 HD
ENDBRANCH  32  33
BRANCH  32  35
ATOM     35  C10 <0> A   1     -12.610   7.638  40.286  0.00  0.00    -0.048 C 
BRANCH  35  36
ATOM     36  C11 <0> A   1     -12.552   9.054  39.712  0.00  0.00    +0.231 C 
BRANCH  36  37
ATOM     37  O3  <0> A   1     -12.227   8.991  38.321  0.00  0.00    -0.528 OA
ATOM     38  H16 <0> A   1     -12.821   9.501  37.755  0.00  0.00    +0.350 HD
ENDBRANCH  36  37
BRANCH  36  39
ATOM     39  C12 <0> A   1     -13.912   9.733  39.886  0.00  0.00    -0.102 C 
BRANCH  39  40
ATOM     40  C13 <0> A   1     -13.772  11.213  39.639  0.00  0.00    +0.490 C 
ATOM     41  O1  <0> A   1     -12.900  11.626  38.893  0.00  0.00    -0.681 OA
ATOM     42  O2  <0> A   1     -14.528  11.997  40.186  0.00  0.00    -0.713 OA
ENDBRANCH  39  40
ENDBRANCH  36  39
ENDBRANCH  35  36
ENDBRANCH  32  35
ENDBRANCH  31  32
ENDBRANCH  30  31
ENDBRANCH   5  30
TORSDOF 14
ENDMDL
MODEL 6
REMARK VINA RESULT:      -8.3     16.774     20.872
REMARK  Name = CHEMBL488471
REMARK  15 active torsions:
REMARK  status: ('A' for Active; 'I' for Inactive)
REMARK    1  A    between atoms: C1_1  and  C2_2
REMARK    2  A    between atoms: C2_2  and  C3_3
REMARK    3  A    between atoms: C4_4  and  C19_26
REMARK    4  A    between atoms: N1_7  and  C7_8
REMARK    5  A    between atoms: C7_8  and  C8_9
REMARK    6  A    between atoms: C8_9  and  C9_10
REMARK    7  A    between atoms: C9_10  and  C10_12
REMARK    8  A    between atoms: C9_10  and  O4_20
REMARK    9  A    between atoms: C10_12  and  C11_13
REMARK   10  A    between atoms: C11_13  and  C12_15
REMARK   11  A    between atoms: C11_13  and  O3_19
REMARK   12  A    between atoms: C12_15  and  C13_16
REMARK   13  A    between atoms: N2_28  and  C20_29
REMARK   14  A    between atoms: C20_29  and  C21_30
REMARK   15  A    between atoms: C24_33  and  C27_36
REMARK                            x       y       z     vdW  Elec       q    Type
REMARK                         _______ _______ _______ _____ _____    ______ ____
ROOT
ATOM      1  C3  <0> A   1     -24.834  -2.339  50.843  0.00  0.00    +0.082 C 
ATOM      2  C4  <0> A   1     -26.197  -2.232  50.794  0.00  0.00    -0.225 C 
ATOM      3  C5  <0> A   1     -26.491  -0.803  50.906  0.00  0.00    -0.124 C 
ATOM      4  C6  <0> A   1     -25.308  -0.170  51.005  0.00  0.00    +0.025 C 
ATOM      5  N1  <0> A   1     -24.313  -1.104  50.978  0.00  0.00    -0.427 N 
ATOM      6  C14 <0> A   1     -25.127   1.324  51.117  0.00  0.00    +0.101 C 
ATOM      7  C15 <0> A   1     -26.089   1.874  52.172  0.00  0.00    +0.019 C 
ATOM      8  C16 <0> A   1     -27.422   2.231  51.519  0.00  0.00    +0.003 C 
ATOM      9  C17 <0> A   1     -27.735   1.271  50.374  0.00  0.00    +0.010 C 
ATOM     10  C18 <0> A   1     -27.850  -0.156  50.919  0.00  0.00    +0.088 C 
ENDROOT
BRANCH   2  11
ATOM     11  C19 <0> A   1     -27.169  -3.329  50.657  0.00  0.00    +0.603 C 
ATOM     12  O5  <0> A   1     -27.917  -3.597  51.578  0.00  0.00    -0.539 OA
ATOM     13  N2  <0> A   1     -27.230  -4.036  49.512  0.00  0.00    -0.723 N 
ATOM     14  H28 <0> A   1     -26.635  -3.821  48.777  0.00  0.00    +0.403 HD
BRANCH  13  15
ATOM     15  C20 <0> A   1     -28.198  -5.127  49.376  0.00  0.00    +0.312 C 
BRANCH  15  16
ATOM     16  C21 <0> A   1     -27.470  -6.447  49.377  0.00  0.00    -0.105 A 
ATOM     17  C22 <0> A   1     -28.174  -7.622  49.181  0.00  0.00    +0.031 A 
ATOM     18  C23 <0> A   1     -27.512  -8.833  49.181  0.00  0.00    +0.015 A 
ATOM     19  C24 <0> A   1     -26.133  -8.872  49.378  0.00  0.00    -0.038 A 
ATOM     20  C25 <0> A   1     -25.430  -7.685  49.576  0.00  0.00    +0.016 A 
ATOM     21  C26 <0> A   1     -26.100  -6.479  49.569  0.00  0.00    +0.031 A 
BRANCH  19  22
ATOM     22  C27 <0> A   1     -25.416 -10.171  49.379  0.00  0.00    -0.048 A 
ATOM     23  C28 <0> A   1     -25.216 -10.858  50.575  0.00  0.00    +0.015 A 
ATOM     24  C29 <0> A   1     -24.550 -12.067  50.569  0.00  0.00    +0.006 A 
ATOM     25  C30 <0> A   1     -24.080 -12.596  49.380  0.00  0.00    +0.005 A 
ATOM     26  C31 <0> A   1     -24.275 -11.917  48.191  0.00  0.00    +0.007 A 
ATOM     27  C32 <0> A   1     -24.947 -10.711  48.184  0.00  0.00    +0.016 A 
ENDBRANCH  19  22
ENDBRANCH  15  16
ENDBRANCH  13  15
ENDBRANCH   2  11
BRANCH   1  29
ATOM     28  C1  <0> A   1     -24.296  -4.450  52.028  0.00  0.00    +0.031 C 
ATOM     29  C2  <0> A   1     -24.047  -3.622  50.766  0.00  0.00    +0.095 C 
ENDBRANCH   1  29
BRANCH   5  30
ATOM     30  C7  <0> A   1     -22.882  -0.804  51.077  0.00  0.00    +0.290 C 
BRANCH  30  31
ATOM     31  C8  <0> A   1     -22.495  -0.645  52.549  0.00  0.00    -0.017 C 
BRANCH  31  32
ATOM     32  C9  <0> A   1     -21.239  -1.471  52.837  0.00  0.00    +0.216 C 
BRANCH  32  33
ATOM     33  O4  <0> A   1     -20.231  -0.625  53.396  0.00  0.00    -0.541 OA
ATOM     34  H17 <0> A   1     -20.537  -0.088  54.141  0.00  0.00    +0.366 HD
ENDBRANCH  32  33
BRANCH  32  35
ATOM     35  C10 <0> A   1     -21.577  -2.584  53.829  0.00  0.00    -0.048 C 
BRANCH  35  36
ATOM     36  C11 <0> A   1     -20.889  -3.880  53.396  0.00  0.00    +0.231 C 
BRANCH  36  37
ATOM     37  O3  <0> A   1     -20.100  -3.633  52.229  0.00  0.00    -0.528 OA
ATOM     38  H16 <0> A   1     -20.606  -3.303  51.475  0.00  0.00    +0.350 HD
ENDBRANCH  36  37
BRANCH  36  39
ATOM     39  C12 <0> A   1     -19.985  -4.379  54.525  0.00  0.00    -0.102 C 
BRANCH  39  40
ATOM     40  C13 <0> A   1     -18.591  -4.600  53.993  0.00  0.00    +0.490 C 
ATOM     41  O1  <0> A   1     -18.310  -5.651  53.442  0.00  0.00    -0.681 OA
ATOM     42  O2  <0> A   1     -17.747  -3.730  54.114  0.00  0.00    -0.713 OA
ENDBRANCH  39  40
ENDBRANCH  36  39
ENDBRANCH  35  36
ENDBRANCH  32  35
ENDBRANCH  31  32
ENDBRANCH  30  31
ENDBRANCH   5  30
TORSDOF 14
ENDMDL
MODEL 7
REMARK VINA RESULT:      -8.3      5.711      8.915
REMARK  Name = CHEMBL488471
REMARK  15 active torsions:
REMARK  status: ('A' for Active; 'I' for Inactive)
REMARK    1  A    between atoms: C1_1  and  C2_2
REMARK    2  A    between atoms: C2_2  and  C3_3
REMARK    3  A    between atoms: C4_4  and  C19_26
REMARK    4  A    between atoms: N1_7  and  C7_8
REMARK    5  A    between atoms: C7_8  and  C8_9
REMARK    6  A    between atoms: C8_9  and  C9_10
REMARK    7  A    between atoms: C9_10  and  C10_12
REMARK    8  A    between atoms: C9_10  and  O4_20
REMARK    9  A    between atoms: C10_12  and  C11_13
REMARK   10  A    between atoms: C11_13  and  C12_15
REMARK   11  A    between atoms: C11_13  and  O3_19
REMARK   12  A    between atoms: C12_15  and  C13_16
REMARK   13  A    between atoms: N2_28  and  C20_29
REMARK   14  A    between atoms: C20_29  and  C21_30
REMARK   15  A    between atoms: C24_33  and  C27_36
REMARK                            x       y       z     vdW  Elec       q    Type
REMARK                         _______ _______ _______ _____ _____    ______ ____
ROOT
ATOM      1  C3  <0> A   1     -13.239   9.000  44.417  0.00  0.00    +0.082 C 
ATOM      2  C4  <0> A   1     -13.452  10.330  44.178  0.00  0.00    -0.225 C 
ATOM      3  C5  <0> A   1     -13.619  10.456  42.730  0.00  0.00    -0.124 C 
ATOM      4  C6  <0> A   1     -13.502   9.217  42.217  0.00  0.00    +0.025 C 
ATOM      5  N1  <0> A   1     -13.261   8.346  43.240  0.00  0.00    -0.427 N 
ATOM      6  C14 <0> A   1     -13.626   8.865  40.755  0.00  0.00    +0.101 C 
ATOM      7  C15 <0> A   1     -12.791   9.842  39.924  0.00  0.00    +0.019 C 
ATOM      8  C16 <0> A   1     -13.635  11.058  39.554  0.00  0.00    +0.003 C 
ATOM      9  C17 <0> A   1     -14.627  11.385  40.668  0.00  0.00    +0.010 C 
ATOM     10  C18 <0> A   1     -13.862  11.721  41.952  0.00  0.00    +0.088 C 
ENDROOT
BRANCH   2  11
ATOM     11  C19 <0> A   1     -13.505  11.414  45.174  0.00  0.00    +0.603 C 
ATOM     12  O5  <0> A   1     -12.719  12.339  45.107  0.00  0.00    -0.539 OA
ATOM     13  N2  <0> A   1     -14.423  11.380  46.159  0.00  0.00    -0.723 N 
ATOM     14  H28 <0> A   1     -15.051  10.642  46.212  0.00  0.00    +0.403 HD
BRANCH  13  15
ATOM     15  C20 <0> A   1     -14.475  12.457  47.149  0.00  0.00    +0.312 C 
BRANCH  15  16
ATOM     16  C21 <0> A   1     -13.373  12.266  48.159  0.00  0.00    -0.105 A 
ATOM     17  C22 <0> A   1     -13.247  11.056  48.820  0.00  0.00    +0.031 A 
ATOM     18  C23 <0> A   1     -12.239  10.876  49.746  0.00  0.00    +0.015 A 
ATOM     19  C24 <0> A   1     -11.348  11.913  50.015  0.00  0.00    -0.038 A 
ATOM     20  C25 <0> A   1     -11.481  13.128  49.346  0.00  0.00    +0.016 A 
ATOM     21  C26 <0> A   1     -12.488  13.297  48.418  0.00  0.00    +0.031 A 
BRANCH  19  22
ATOM     22  C27 <0> A   1     -10.264  11.724  51.009  0.00  0.00    -0.048 A 
ATOM     23  C28 <0> A   1      -9.776  10.447  51.277  0.00  0.00    +0.015 A 
ATOM     24  C29 <0> A   1      -8.766  10.277  52.203  0.00  0.00    +0.006 A 
ATOM     25  C30 <0> A   1      -8.239  11.371  52.864  0.00  0.00    +0.005 A 
ATOM     26  C31 <0> A   1      -8.720  12.642  52.603  0.00  0.00    +0.007 A 
ATOM     27  C32 <0> A   1      -9.725  12.823  51.674  0.00  0.00    +0.016 A 
ENDBRANCH  19  22
ENDBRANCH  15  16
ENDBRANCH  13  15
ENDBRANCH   2  11
BRANCH   1  29
ATOM     28  C1  <0> A   1     -11.533   8.496  46.146  0.00  0.00    +0.031 C 
ATOM     29  C2  <0> A   1     -13.011   8.373  45.769  0.00  0.00    +0.095 C 
ENDBRANCH   1  29
BRANCH   5  30
ATOM     30  C7  <0> A   1     -13.060   6.903  43.079  0.00  0.00    +0.290 C 
BRANCH  30  31
ATOM     31  C8  <0> A   1     -14.411   6.189  43.152  0.00  0.00    -0.017 C 
BRANCH  31  32
ATOM     32  C9  <0> A   1     -14.270   4.915  43.988  0.00  0.00    +0.216 C 
BRANCH  32  33
ATOM     33  O4  <0> A   1     -13.403   5.168  45.096  0.00  0.00    -0.541 OA
ATOM     34  H17 <0> A   1     -13.324   4.424  45.711  0.00  0.00    +0.366 HD
ENDBRANCH  32  33
BRANCH  32  35
ATOM     35  C10 <0> A   1     -15.645   4.489  44.504  0.00  0.00    -0.048 C 
BRANCH  35  36
ATOM     36  C11 <0> A   1     -16.494   5.730  44.780  0.00  0.00    +0.231 C 
BRANCH  36  37
ATOM     37  O3  <0> A   1     -17.764   5.592  44.137  0.00  0.00    -0.528 OA
ATOM     38  H16 <0> A   1     -18.516   5.614  44.744  0.00  0.00    +0.350 HD
ENDBRANCH  36  37
BRANCH  36  39
ATOM     39  C12 <0> A   1     -16.702   5.881  46.288  0.00  0.00    -0.102 C 
BRANCH  39  40
ATOM     40  C13 <0> A   1     -17.628   7.040  46.556  0.00  0.00    +0.490 C 
ATOM     41  O1  <0> A   1     -18.823   6.928  46.335  0.00  0.00    -0.681 OA
ATOM     42  O2  <0> A   1     -17.185   8.088  46.992  0.00  0.00    -0.713 OA
ENDBRANCH  39  40
ENDBRANCH  36  39
ENDBRANCH  35  36
ENDBRANCH  32  35
ENDBRANCH  31  32
ENDBRANCH  30  31
ENDBRANCH   5  30
TORSDOF 14
ENDMDL
MODEL 8
REMARK VINA RESULT:      -8.2     18.716     23.748
REMARK  Name = CHEMBL488471
REMARK  15 active torsions:
REMARK  status: ('A' for Active; 'I' for Inactive)
REMARK    1  A    between atoms: C1_1  and  C2_2
REMARK    2  A    between atoms: C2_2  and  C3_3
REMARK    3  A    between atoms: C4_4  and  C19_26
REMARK    4  A    between atoms: N1_7  and  C7_8
REMARK    5  A    between atoms: C7_8  and  C8_9
REMARK    6  A    between atoms: C8_9  and  C9_10
REMARK    7  A    between atoms: C9_10  and  C10_12
REMARK    8  A    between atoms: C9_10  and  O4_20
REMARK    9  A    between atoms: C10_12  and  C11_13
REMARK   10  A    between atoms: C11_13  and  C12_15
REMARK   11  A    between atoms: C11_13  and  O3_19
REMARK   12  A    between atoms: C12_15  and  C13_16
REMARK   13  A    between atoms: N2_28  and  C20_29
REMARK   14  A    between atoms: C20_29  and  C21_30
REMARK   15  A    between atoms: C24_33  and  C27_36
REMARK                            x       y       z     vdW  Elec       q    Type
REMARK                         _______ _______ _______ _____ _____    ______ ____
ROOT
ATOM      1  C3  <0> A   1     -24.949  -3.970  51.342  0.00  0.00    +0.082 C 
ATOM      2  C4  <0> A   1     -25.954  -3.106  51.685  0.00  0.00    -0.225 C 
ATOM      3  C5  <0> A   1     -27.103  -3.944  52.030  0.00  0.00    -0.124 C 
ATOM      4  C6  <0> A   1     -26.710  -5.222  51.877  0.00  0.00    +0.025 C 
ATOM      5  N1  <0> A   1     -25.413  -5.229  51.450  0.00  0.00    -0.427 N 
ATOM      6  C14 <0> A   1     -27.568  -6.435  52.145  0.00  0.00    +0.101 C 
ATOM      7  C15 <0> A   1     -28.938  -6.241  51.492  0.00  0.00    +0.019 C 
ATOM      8  C16 <0> A   1     -29.880  -5.539  52.467  0.00  0.00    +0.003 C 
ATOM      9  C17 <0> A   1     -29.112  -4.553  53.344  0.00  0.00    +0.010 C 
ATOM     10  C18 <0> A   1     -28.467  -3.479  52.462  0.00  0.00    +0.088 C 
ENDROOT
BRANCH   2  11
ATOM     11  C19 <0> A   1     -25.892  -1.635  51.705  0.00  0.00    +0.603 C 
ATOM     12  O5  <0> A   1     -25.341  -1.063  52.626  0.00  0.00    -0.539 OA
ATOM     13  N2  <0> A   1     -26.447  -0.924  50.704  0.00  0.00    -0.723 N 
ATOM     14  H28 <0> A   1     -26.886  -1.380  49.969  0.00  0.00    +0.403 HD
BRANCH  13  15
ATOM     15  C20 <0> A   1     -26.385   0.539  50.725  0.00  0.00    +0.312 C 
BRANCH  15  16
ATOM     16  C21 <0> A   1     -27.721   1.094  51.148  0.00  0.00    -0.105 A 
ATOM     17  C22 <0> A   1     -28.788   0.237  51.354  0.00  0.00    +0.031 A 
ATOM     18  C23 <0> A   1     -30.014   0.740  51.741  0.00  0.00    +0.015 A 
ATOM     19  C24 <0> A   1     -30.176   2.112  51.925  0.00  0.00    -0.038 A 
ATOM     20  C25 <0> A   1     -29.097   2.969  51.716  0.00  0.00    +0.016 A 
ATOM     21  C26 <0> A   1     -27.874   2.456  51.334  0.00  0.00    +0.031 A 
BRANCH  19  22
ATOM     22  C27 <0> A   1     -31.491   2.658  52.341  0.00  0.00    -0.048 A 
ATOM     23  C28 <0> A   1     -31.553   3.755  53.198  0.00  0.00    +0.015 A 
ATOM     24  C29 <0> A   1     -32.779   4.259  53.581  0.00  0.00    +0.006 A 
ATOM     25  C30 <0> A   1     -33.945   3.676  53.118  0.00  0.00    +0.005 A 
ATOM     26  C31 <0> A   1     -33.889   2.586  52.269  0.00  0.00    +0.007 A 
ATOM     27  C32 <0> A   1     -32.668   2.079  51.873  0.00  0.00    +0.016 A 
ENDBRANCH  19  22
ENDBRANCH  15  16
ENDBRANCH  13  15
ENDBRANCH   2  11
BRANCH   1  29
ATOM     28  C1  <0> A   1     -22.663  -3.432  52.139  0.00  0.00    +0.031 C 
ATOM     29  C2  <0> A   1     -23.560  -3.577  50.908  0.00  0.00    +0.095 C 
ENDBRANCH   1  29
BRANCH   5  30
ATOM     30  C7  <0> A   1     -24.636  -6.437  51.158  0.00  0.00    +0.290 C 
BRANCH  30  31
ATOM     31  C8  <0> A   1     -24.829  -6.824  49.690  0.00  0.00    -0.017 C 
BRANCH  31  32
ATOM     32  C9  <0> A   1     -25.043  -8.335  49.586  0.00  0.00    +0.216 C 
BRANCH  32  33
ATOM     33  O4  <0> A   1     -25.684  -8.641  48.346  0.00  0.00    -0.541 OA
ATOM     34  H17 <0> A   1     -25.157  -8.420  47.565  0.00  0.00    +0.366 HD
ENDBRANCH  32  33
BRANCH  32  35
ATOM     35  C10 <0> A   1     -23.691  -9.047  49.650  0.00  0.00    -0.048 C 
BRANCH  35  36
ATOM     36  C11 <0> A   1     -23.877 -10.446  50.238  0.00  0.00    +0.231 C 
BRANCH  36  37
ATOM     37  O3  <0> A   1     -25.242 -10.621  50.627  0.00  0.00    -0.528 OA
ATOM     38  H16 <0> A   1     -25.386 -10.594  51.582  0.00  0.00    +0.350 HD
ENDBRANCH  36  37
BRANCH  36  39
ATOM     39  C12 <0> A   1     -23.509 -11.496  49.188  0.00  0.00    -0.102 C 
BRANCH  39  40
ATOM     40  C13 <0> A   1     -24.760 -12.187  48.707  0.00  0.00    +0.490 C 
ATOM     41  O1  <0> A   1     -25.420 -11.693  47.808  0.00  0.00    -0.681 OA
ATOM     42  O2  <0> A   1     -25.111 -13.237  49.215  0.00  0.00    -0.713 OA
ENDBRANCH  39  40
ENDBRANCH  36  39
ENDBRANCH  35  36
ENDBRANCH  32  35
ENDBRANCH  31  32
ENDBRANCH  30  31
ENDBRANCH   5  30
TORSDOF 14
ENDMDL
MODEL 9
REMARK VINA RESULT:      -8.2      6.167     11.573
REMARK  Name = CHEMBL488471
REMARK  15 active torsions:
REMARK  status: ('A' for Active; 'I' for Inactive)
REMARK    1  A    between atoms: C1_1  and  C2_2
REMARK    2  A    between atoms: C2_2  and  C3_3
REMARK    3  A    between atoms: C4_4  and  C19_26
REMARK    4  A    between atoms: N1_7  and  C7_8
REMARK    5  A    between atoms: C7_8  and  C8_9
REMARK    6  A    between atoms: C8_9  and  C9_10
REMARK    7  A    between atoms: C9_10  and  C10_12
REMARK    8  A    between atoms: C9_10  and  O4_20
REMARK    9  A    between atoms: C10_12  and  C11_13
REMARK   10  A    between atoms: C11_13  and  C12_15
REMARK   11  A    between atoms: C11_13  and  O3_19
REMARK   12  A    between atoms: C12_15  and  C13_16
REMARK   13  A    between atoms: N2_28  and  C20_29
REMARK   14  A    between atoms: C20_29  and  C21_30
REMARK   15  A    between atoms: C24_33  and  C27_36
REMARK                            x       y       z     vdW  Elec       q    Type
REMARK                         _______ _______ _______ _____ _____    ______ ____
ROOT
ATOM      1  C3  <0> A   1     -15.926   8.404  47.115  0.00  0.00    +0.082 C 
ATOM      2  C4  <0> A   1     -16.569   7.211  46.924  0.00  0.00    -0.225 C 
ATOM      3  C5  <0> A   1     -15.748   6.460  45.975  0.00  0.00    -0.124 C 
ATOM      4  C6  <0> A   1     -14.691   7.237  45.676  0.00  0.00    +0.025 C 
ATOM      5  N1  <0> A   1     -14.812   8.414  46.359  0.00  0.00    -0.427 N 
ATOM      6  C14 <0> A   1     -13.565   6.857  44.747  0.00  0.00    +0.101 C 
ATOM      7  C15 <0> A   1     -14.146   6.270  43.459  0.00  0.00    +0.019 C 
ATOM      8  C16 <0> A   1     -14.332   4.763  43.616  0.00  0.00    +0.003 C 
ATOM      9  C17 <0> A   1     -14.701   4.413  45.056  0.00  0.00    +0.010 C 
ATOM     10  C18 <0> A   1     -16.026   5.088  45.423  0.00  0.00    +0.088 C 
ENDROOT
BRANCH   2  11
ATOM     11  C19 <0> A   1     -17.830   6.772  47.547  0.00  0.00    +0.603 C 
ATOM     12  O5  <0> A   1     -18.858   6.765  46.898  0.00  0.00    -0.539 OA
ATOM     13  N2  <0> A   1     -17.843   6.379  48.836  0.00  0.00    -0.723 N 
ATOM     14  H28 <0> A   1     -17.023   6.384  49.353  0.00  0.00    +0.403 HD
BRANCH  13  15
ATOM     15  C20 <0> A   1     -19.097   5.943  49.454  0.00  0.00    +0.312 C 
BRANCH  15  16
ATOM     16  C21 <0> A   1     -19.723   7.099  50.192  0.00  0.00    -0.105 A 
ATOM     17  C22 <0> A   1     -19.105   8.337  50.185  0.00  0.00    +0.031 A 
ATOM     18  C23 <0> A   1     -19.674   9.398  50.858  0.00  0.00    +0.015 A 
ATOM     19  C24 <0> A   1     -20.873   9.222  51.546  0.00  0.00    -0.038 A 
ATOM     20  C25 <0> A   1     -21.491   7.974  51.550  0.00  0.00    +0.016 A 
ATOM     21  C26 <0> A   1     -20.916   6.919  50.869  0.00  0.00    +0.031 A 
BRANCH  19  22
ATOM     22  C27 <0> A   1     -21.490  10.360  52.272  0.00  0.00    -0.048 A 
ATOM     23  C28 <0> A   1     -22.674  10.927  51.806  0.00  0.00    +0.015 A 
ATOM     24  C29 <0> A   1     -23.243  11.985  52.486  0.00  0.00    +0.006 A 
ATOM     25  C30 <0> A   1     -22.640  12.483  53.626  0.00  0.00    +0.005 A 
ATOM     26  C31 <0> A   1     -21.463  11.925  54.093  0.00  0.00    +0.007 A 
ATOM     27  C32 <0> A   1     -20.890  10.862  53.425  0.00  0.00    +0.016 A 
ENDBRANCH  19  22
ENDBRANCH  15  16
ENDBRANCH  13  15
ENDBRANCH   2  11
BRANCH   1  29
ATOM     28  C1  <0> A   1     -15.732   9.377  49.388  0.00  0.00    +0.031 C 
ATOM     29  C2  <0> A   1     -16.390   9.521  48.014  0.00  0.00    +0.095 C 
ENDBRANCH   1  29
BRANCH   5  30
ATOM     30  C7  <0> A   1     -13.861   9.526  46.283  0.00  0.00    +0.290 C 
BRANCH  30  31
ATOM     31  C8  <0> A   1     -14.384  10.579  45.303  0.00  0.00    -0.017 C 
BRANCH  31  32
ATOM     32  C9  <0> A   1     -13.338  10.824  44.214  0.00  0.00    +0.216 C 
BRANCH  32  33
ATOM     33  O4  <0> A   1     -12.203   9.986  44.445  0.00  0.00    -0.541 OA
ATOM     34  H17 <0> A   1     -12.357   9.288  45.098  0.00  0.00    +0.366 HD
ENDBRANCH  32  33
BRANCH  32  35
ATOM     35  C10 <0> A   1     -13.941  10.499  42.846  0.00  0.00    -0.048 C 
BRANCH  35  36
ATOM     36  C11 <0> A   1     -13.210  11.295  41.764  0.00  0.00    +0.231 C 
BRANCH  36  37
ATOM     37  O3  <0> A   1     -11.873  10.805  41.634  0.00  0.00    -0.528 OA
ATOM     38  H16 <0> A   1     -11.689  10.017  42.164  0.00  0.00    +0.350 HD
ENDBRANCH  36  37
BRANCH  36  39
ATOM     39  C12 <0> A   1     -13.941  11.135  40.430  0.00  0.00    -0.102 C 
BRANCH  39  40
ATOM     40  C13 <0> A   1     -12.935  10.961  39.321  0.00  0.00    +0.490 C 
ATOM     41  O1  <0> A   1     -12.430  11.941  38.799  0.00  0.00    -0.681 OA
ATOM     42  O2  <0> A   1     -12.626   9.843  38.947  0.00  0.00    -0.713 OA
ENDBRANCH  39  40
ENDBRANCH  36  39
ENDBRANCH  35  36
ENDBRANCH  32  35
ENDBRANCH  31  32
ENDBRANCH  30  31
ENDBRANCH   5  30
TORSDOF 14
ENDMDL
MODEL 10
REMARK VINA RESULT:      -8.1     16.962     21.313
REMARK  Name = CHEMBL488471
REMARK  15 active torsions:
REMARK  status: ('A' for Active; 'I' for Inactive)
REMARK    1  A    between atoms: C1_1  and  C2_2
REMARK    2  A    between atoms: C2_2  and  C3_3
REMARK    3  A    between atoms: C4_4  and  C19_26
REMARK    4  A    between atoms: N1_7  and  C7_8
REMARK    5  A    between atoms: C7_8  and  C8_9
REMARK    6  A    between atoms: C8_9  and  C9_10
REMARK    7  A    between atoms: C9_10  and  C10_12
REMARK    8  A    between atoms: C9_10  and  O4_20
REMARK    9  A    between atoms: C10_12  and  C11_13
REMARK   10  A    between atoms: C11_13  and  C12_15
REMARK   11  A    between atoms: C11_13  and  O3_19
REMARK   12  A    between atoms: C12_15  and  C13_16
REMARK   13  A    between atoms: N2_28  and  C20_29
REMARK   14  A    between atoms: C20_29  and  C21_30
REMARK   15  A    between atoms: C24_33  and  C27_36
REMARK                            x       y       z     vdW  Elec       q    Type
REMARK                         _______ _______ _______ _____ _____    ______ ____
ROOT
ATOM      1  C3  <0> A   1     -26.035  -5.458  51.046  0.00  0.00    +0.082 C 
ATOM      2  C4  <0> A   1     -26.323  -4.164  51.388  0.00  0.00    -0.225 C 
ATOM      3  C5  <0> A   1     -27.751  -4.142  51.705  0.00  0.00    -0.124 C 
ATOM      4  C6  <0> A   1     -28.205  -5.398  51.540  0.00  0.00    +0.025 C 
ATOM      5  N1  <0> A   1     -27.166  -6.183  51.131  0.00  0.00    -0.427 N 
ATOM      6  C14 <0> A   1     -29.625  -5.850  51.779  0.00  0.00    +0.101 C 
ATOM      7  C15 <0> A   1     -30.589  -4.867  51.110  0.00  0.00    +0.019 C 
ATOM      8  C16 <0> A   1     -30.937  -3.743  52.082  0.00  0.00    +0.003 C 
ATOM      9  C17 <0> A   1     -29.746  -3.421  52.982  0.00  0.00    +0.010 C 
ATOM     10  C18 <0> A   1     -28.568  -2.950  52.125  0.00  0.00    +0.088 C 
ENDROOT
BRANCH   2  11
ATOM     11  C19 <0> A   1     -25.388  -3.027  51.429  0.00  0.00    +0.603 C 
ATOM     12  O5  <0> A   1     -25.080  -2.456  50.400  0.00  0.00    -0.539 OA
ATOM     13  N2  <0> A   1     -24.873  -2.620  52.606  0.00  0.00    -0.723 N 
ATOM     14  H28 <0> A   1     -25.120  -3.075  53.427  0.00  0.00    +0.403 HD
BRANCH  13  15
ATOM     15  C20 <0> A   1     -23.944  -1.490  52.646  0.00  0.00    +0.312 C 
BRANCH  15  16
ATOM     16  C21 <0> A   1     -22.566  -1.984  53.008  0.00  0.00    -0.105 A 
ATOM     17  C22 <0> A   1     -22.096  -1.830  54.300  0.00  0.00    +0.031 A 
ATOM     18  C23 <0> A   1     -20.836  -2.281  54.635  0.00  0.00    +0.015 A 
ATOM     19  C24 <0> A   1     -20.037  -2.893  53.672  0.00  0.00    -0.038 A 
ATOM     20  C25 <0> A   1     -20.516  -3.046  52.373  0.00  0.00    +0.016 A 
ATOM     21  C26 <0> A   1     -21.780  -2.596  52.048  0.00  0.00    +0.031 A 
BRANCH  19  22
ATOM     22  C27 <0> A   1     -18.681  -3.380  54.028  0.00  0.00    -0.048 A 
ATOM     23  C28 <0> A   1     -17.738  -2.499  54.554  0.00  0.00    +0.015 A 
ATOM     24  C29 <0> A   1     -16.479  -2.958  54.884  0.00  0.00    +0.006 A 
ATOM     25  C30 <0> A   1     -16.152  -4.289  54.692  0.00  0.00    +0.005 A 
ATOM     26  C31 <0> A   1     -17.084  -5.167  54.169  0.00  0.00    +0.007 A 
ATOM     27  C32 <0> A   1     -18.348  -4.720  53.843  0.00  0.00    +0.016 A 
ENDBRANCH  19  22
ENDBRANCH  15  16
ENDBRANCH  13  15
ENDBRANCH   2  11
BRANCH   1  29
ATOM     28  C1  <0> A   1     -24.046  -6.725  51.813  0.00  0.00    +0.031 C 
ATOM     29  C2  <0> A   1     -24.681  -5.980  50.637  0.00  0.00    +0.095 C 
ENDBRANCH   1  29
BRANCH   5  30
ATOM     30  C7  <0> A   1     -27.267  -7.615  50.832  0.00  0.00    +0.290 C 
BRANCH  30  31
ATOM     31  C8  <0> A   1     -27.366  -7.814  49.318  0.00  0.00    -0.017 C 
BRANCH  31  32
ATOM     32  C9  <0> A   1     -26.730  -9.153  48.938  0.00  0.00    +0.216 C 
BRANCH  32  33
ATOM     33  O4  <0> A   1     -27.010  -9.441  47.566  0.00  0.00    -0.541 OA
ATOM     34  H17 <0> A   1     -26.913  -8.679  46.977  0.00  0.00    +0.366 HD
ENDBRANCH  32  33
BRANCH  32  35
ATOM     35  C10 <0> A   1     -25.216  -9.074  49.144  0.00  0.00    -0.048 C 
BRANCH  35  36
ATOM     36  C11 <0> A   1     -24.772 -10.186  50.094  0.00  0.00    +0.231 C 
BRANCH  36  37
ATOM     37  O3  <0> A   1     -25.923 -10.844  50.629  0.00  0.00    -0.528 OA
ATOM     38  H16 <0> A   1     -25.887 -10.983  51.585  0.00  0.00    +0.350 HD
ENDBRANCH  36  37
BRANCH  36  39
ATOM     39  C12 <0> A   1     -23.916 -11.199  49.332  0.00  0.00    -0.102 C 
BRANCH  39  40
ATOM     40  C13 <0> A   1     -24.796 -12.302  48.800  0.00  0.00    +0.490 C 
ATOM     41  O1  <0> A   1     -24.938 -13.330  49.442  0.00  0.00    -0.681 OA
ATOM     42  O2  <0> A   1     -25.364 -12.168  47.730  0.00  0.00    -0.713 OA
ENDBRANCH  39  40
ENDBRANCH  36  39
ENDBRANCH  35  36
ENDBRANCH  32  35
ENDBRANCH  31  32
ENDBRANCH  30  31
ENDBRANCH   5  30
TORSDOF 14
ENDMDL
