REMARK VINA RESULT:      -7.6      0.000      0.000
REMARK  Name = CHEMBL101512
REMARK  10 active torsions:
REMARK  status: ('A' for Active; 'I' for Inactive)
REMARK    1  A    between atoms: C5_5  and  O1_15
REMARK    2  A    between atoms: C6_6  and  C7_7
REMARK    3  A    between atoms: O1_15  and  C14_16
REMARK    4  A    between atoms: C14_16  and  C15_17
REMARK    5  A    between atoms: C15_17  and  C16_18
REMARK    6  A    between atoms: C15_17  and  O5_26
REMARK    7  A    between atoms: C16_18  and  C17_19
REMARK    8  A    between atoms: C17_19  and  C18_21
REMARK    9  A    between atoms: C17_19  and  O4_25
REMARK   10  A    between atoms: C18_21  and  C19_22
REMARK                            x       y       z     vdW  Elec       q    Type
REMARK                         _______ _______ _______ _____ _____    ______ ____
ROOT
ATOM      1  C1  <0> A   1     -15.117   9.119  47.333  0.00  0.00    +0.083 A 
ATOM      2  C2  <0> A   1     -15.530  10.434  47.239  0.00  0.00    -0.036 A 
ATOM      3  C3  <0> A   1     -15.063  11.240  46.215  0.00  0.00    +0.071 A 
ATOM      4  C4  <0> A   1     -14.180  10.736  45.277  0.00  0.00    -0.052 A 
ATOM      5  C5  <0> A   1     -13.757   9.419  45.359  0.00  0.00    +0.141 A 
ATOM      6  C6  <0> A   1     -14.226   8.601  46.393  0.00  0.00    -0.068 A 
ATOM      7 Cl1  <0> A   1     -13.602  11.754  43.996  0.00  0.00    -0.034 Cl
ATOM      8 Cl2  <0> A   1     -16.639  11.078  48.409  0.00  0.00    -0.050 Cl
ENDROOT
BRANCH   6   9
ATOM      9  C7  <0> A   1     -13.781   7.195  46.490  0.00  0.00    +0.082 C 
ATOM     10  C8  <0> A   1     -14.598   6.212  46.128  0.00  0.00    -0.127 C 
ATOM     11  C9  <0> A   1     -15.932   6.512  45.480  0.00  0.00    +0.074 C 
ATOM     12  C10 <0> A   1     -16.044   5.688  44.192  0.00  0.00    +0.018 C 
ATOM     13  C11 <0> A   1     -15.818   4.210  44.514  0.00  0.00    +0.006 C 
ATOM     14  C12 <0> A   1     -14.394   4.005  45.034  0.00  0.00    +0.018 C 
ATOM     15  C13 <0> A   1     -14.217   4.765  46.348  0.00  0.00    +0.073 C 
ATOM     16  F1  <0> A   1     -12.541   6.908  46.945  0.00  0.00    -0.131 F 
ENDBRANCH   6   9
BRANCH   5  17
ATOM     17  O1  <0> A   1     -12.890   8.923  44.438  0.00  0.00    -0.307 OA
BRANCH  17  18
ATOM     18  C14 <0> A   1     -13.455   8.280  43.294  0.00  0.00    +0.160 C 
BRANCH  18  19
ATOM     19  C15 <0> A   1     -12.343   7.609  42.484  0.00  0.00    +0.229 C 
BRANCH  19  20
ATOM     20  O5  <0> A   1     -12.525   6.192  42.508  0.00  0.00    -0.530 OA
ATOM     21  H22 <0> A   1     -11.704   5.688  42.421  0.00  0.00    +0.364 HD
ENDBRANCH  19  20
BRANCH  19  22
ATOM     22  C16 <0> A   1     -12.395   8.106  41.037  0.00  0.00    -0.040 C 
BRANCH  22  23
ATOM     23  C17 <0> A   1     -12.838   9.569  41.017  0.00  0.00    +0.235 C 
BRANCH  23  24
ATOM     24  O4  <0> A   1     -11.687  10.415  40.970  0.00  0.00    -0.527 OA
ATOM     25  H21 <0> A   1     -11.187  10.352  40.145  0.00  0.00    +0.351 HD
ENDBRANCH  23  24
BRANCH  23  26
ATOM     26  C18 <0> A   1     -13.707   9.822  39.783  0.00  0.00    -0.100 C 
BRANCH  26  27
ATOM     27  C19 <0> A   1     -13.892  11.305  39.593  0.00  0.00    +0.491 C 
ATOM     28  O2  <0> A   1     -14.698  11.911  40.280  0.00  0.00    -0.680 OA
ATOM     29  O3  <0> A   1     -13.237  11.900  38.755  0.00  0.00    -0.713 OA
ENDBRANCH  26  27
ENDBRANCH  23  26
ENDBRANCH  22  23
ENDBRANCH  19  22
ENDBRANCH  18  19
ENDBRANCH  17  18
ENDBRANCH   5  17
TORSDOF 10
