MODEL 1
REMARK VINA RESULT:      -8.9      0.000      0.000
REMARK  Name = CHEMBL322643
REMARK  13 active torsions:
REMARK  status: ('A' for Active; 'I' for Inactive)
REMARK    1  A    between atoms: C1_1  and  C2_2
REMARK    2  A    between atoms: C2_2  and  C3_3
REMARK    3  A    between atoms: C2_2  and  C4_4
REMARK    4  A    between atoms: C6_6  and  C22_29
REMARK    5  A    between atoms: C7_8  and  C16_22
REMARK    6  A    between atoms: C8_9  and  C9_10
REMARK    7  A    between atoms: C10_11  and  C11_12
REMARK    8  A    between atoms: C11_12  and  C12_13
REMARK    9  A    between atoms: C11_12  and  O4_21
REMARK   10  A    between atoms: C12_13  and  C13_14
REMARK   11  A    between atoms: C13_14  and  C14_16
REMARK   12  A    between atoms: C13_14  and  O3_20
REMARK   13  A    between atoms: C14_16  and  C15_17
REMARK                            x       y       z     vdW  Elec       q    Type
REMARK                         _______ _______ _______ _____ _____    ______ ____
ROOT
ATOM      1  C4  <0> A   1     -15.109   6.364  45.539  0.00  0.00    -0.018 A 
ATOM      2  C5  <0> A   1     -16.187   6.358  46.403  0.00  0.00    -0.019 A 
ATOM      3  C6  <0> A   1     -16.471   7.500  47.152  0.00  0.00    +0.167 A 
ATOM      4  N1  <0> A   1     -15.721   8.589  47.048  0.00  0.00    -0.469 NA
ATOM      5  C7  <0> A   1     -14.679   8.639  46.233  0.00  0.00    +0.184 A 
ATOM      6  C8  <0> A   1     -14.331   7.523  45.451  0.00  0.00    -0.083 A 
ENDROOT
BRANCH   5   7
ATOM      7  C16 <0> A   1     -13.870   9.877  46.149  0.00  0.00    -0.062 A 
ATOM      8  C17 <0> A   1     -14.190  10.860  45.213  0.00  0.00    +0.087 A 
ATOM      9  C18 <0> A   1     -13.434  12.012  45.139  0.00  0.00    -0.017 A 
ATOM     10  C19 <0> A   1     -12.357  12.193  45.992  0.00  0.00    +0.113 A 
ATOM     11  C20 <0> A   1     -12.035  11.218  46.924  0.00  0.00    -0.026 A 
ATOM     12  C21 <0> A   1     -12.788  10.066  47.009  0.00  0.00    +0.082 A 
ATOM     13  F1  <0> A   1     -11.620  13.322  45.916  0.00  0.00    -0.137 F 
ENDBRANCH   5   7
BRANCH   3  14
ATOM     14  C22 <0> A   1     -17.627   7.497  48.080  0.00  0.00    -0.046 A 
ATOM     15  C23 <0> A   1     -18.754   6.729  47.789  0.00  0.00    +0.023 A 
ATOM     16  C24 <0> A   1     -19.828   6.729  48.656  0.00  0.00    +0.002 A 
ATOM     17  C25 <0> A   1     -19.788   7.491  49.811  0.00  0.00    +0.011 A 
ATOM     18  C26 <0> A   1     -18.672   8.254  50.104  0.00  0.00    -0.001 A 
ATOM     19  C27 <0> A   1     -17.590   8.256  49.248  0.00  0.00    +0.054 A 
ENDBRANCH   3  14
BRANCH   1  21
ATOM     20  C1  <0> A   1     -14.119   4.091  45.608  0.00  0.00    +0.033 C 
ATOM     21  C2  <0> A   1     -14.775   5.147  44.715  0.00  0.00    +0.030 C 
ATOM     22  C3  <0> A   1     -16.058   4.575  44.107  0.00  0.00    +0.033 C 
ENDBRANCH   1  21
BRANCH   6  23
ATOM     23  C9  <0> A   1     -13.165   7.576  44.546  0.00  0.00    -0.001 C 
ATOM     24  C10 <0> A   1     -13.341   7.509  43.232  0.00  0.00    -0.031 C 
BRANCH  24  25
ATOM     25  C11 <0> A   1     -12.151   7.564  42.309  0.00  0.00    +0.252 C 
BRANCH  25  26
ATOM     26  O4  <0> A   1     -11.565   6.265  42.210  0.00  0.00    -0.537 OA
ATOM     27  H18 <0> A   1     -12.073   5.569  42.651  0.00  0.00    +0.366 HD
ENDBRANCH  25  26
BRANCH  25  28
ATOM     28  C12 <0> A   1     -12.603   8.027  40.923  0.00  0.00    -0.041 C 
BRANCH  28  29
ATOM     29  C13 <0> A   1     -13.035   9.494  40.990  0.00  0.00    +0.232 C 
BRANCH  29  30
ATOM     30  O3  <0> A   1     -11.879  10.323  41.125  0.00  0.00    -0.528 OA
ATOM     31  H17 <0> A   1     -12.054  11.266  40.999  0.00  0.00    +0.350 HD
ENDBRANCH  29  30
BRANCH  29  32
ATOM     32  C14 <0> A   1     -13.783   9.865  39.709  0.00  0.00    -0.102 C 
BRANCH  32  33
ATOM     33  C15 <0> A   1     -13.884  11.365  39.603  0.00  0.00    +0.491 C 
ATOM     34  O1  <0> A   1     -13.257  11.959  38.742  0.00  0.00    -0.681 OA
ATOM     35  O2  <0> A   1     -14.593  11.984  40.378  0.00  0.00    -0.713 OA
ENDBRANCH  32  33
ENDBRANCH  29  32
ENDBRANCH  28  29
ENDBRANCH  25  28
ENDBRANCH  24  25
ENDBRANCH   6  23
TORSDOF 11
ENDMDL
MODEL 2
REMARK VINA RESULT:      -8.1      1.693      2.053
REMARK  Name = CHEMBL322643
REMARK  13 active torsions:
REMARK  status: ('A' for Active; 'I' for Inactive)
REMARK    1  A    between atoms: C1_1  and  C2_2
REMARK    2  A    between atoms: C2_2  and  C3_3
REMARK    3  A    between atoms: C2_2  and  C4_4
REMARK    4  A    between atoms: C6_6  and  C22_29
REMARK    5  A    between atoms: C7_8  and  C16_22
REMARK    6  A    between atoms: C8_9  and  C9_10
REMARK    7  A    between atoms: C10_11  and  C11_12
REMARK    8  A    between atoms: C11_12  and  C12_13
REMARK    9  A    between atoms: C11_12  and  O4_21
REMARK   10  A    between atoms: C12_13  and  C13_14
REMARK   11  A    between atoms: C13_14  and  C14_16
REMARK   12  A    between atoms: C13_14  and  O3_20
REMARK   13  A    between atoms: C14_16  and  C15_17
REMARK                            x       y       z     vdW  Elec       q    Type
REMARK                         _______ _______ _______ _____ _____    ______ ____
ROOT
ATOM      1  C4  <0> A   1     -15.013   6.383  45.856  0.00  0.00    -0.018 A 
ATOM      2  C5  <0> A   1     -16.128   5.887  46.504  0.00  0.00    -0.019 A 
ATOM      3  C6  <0> A   1     -16.790   6.685  47.437  0.00  0.00    +0.167 A 
ATOM      4  N1  <0> A   1     -16.364   7.910  47.712  0.00  0.00    -0.469 NA
ATOM      5  C7  <0> A   1     -15.300   8.426  47.116  0.00  0.00    +0.184 A 
ATOM      6  C8  <0> A   1     -14.581   7.677  46.167  0.00  0.00    -0.083 A 
ENDROOT
BRANCH   5   7
ATOM      7  C16 <0> A   1     -14.862   9.800  47.454  0.00  0.00    -0.062 A 
ATOM      8  C17 <0> A   1     -13.899  10.004  48.444  0.00  0.00    +0.087 A 
ATOM      9  C18 <0> A   1     -13.493  11.285  48.755  0.00  0.00    -0.017 A 
ATOM     10  C19 <0> A   1     -14.041  12.369  48.087  0.00  0.00    +0.113 A 
ATOM     11  C20 <0> A   1     -14.997  12.171  47.103  0.00  0.00    -0.026 A 
ATOM     12  C21 <0> A   1     -15.405  10.894  46.781  0.00  0.00    +0.082 A 
ATOM     13  F1  <0> A   1     -13.640  13.622  48.395  0.00  0.00    -0.137 F 
ENDBRANCH   5   7
BRANCH   3  14
ATOM     14  C22 <0> A   1     -17.987   6.155  48.134  0.00  0.00    -0.046 A 
ATOM     15  C23 <0> A   1     -19.248   6.678  47.852  0.00  0.00    +0.023 A 
ATOM     16  C24 <0> A   1     -20.359   6.181  48.503  0.00  0.00    +0.002 A 
ATOM     17  C25 <0> A   1     -20.223   5.167  49.434  0.00  0.00    +0.011 A 
ATOM     18  C26 <0> A   1     -18.973   4.645  49.718  0.00  0.00    -0.001 A 
ATOM     19  C27 <0> A   1     -17.857   5.129  49.068  0.00  0.00    +0.054 A 
ENDBRANCH   3  14
BRANCH   1  21
ATOM     20  C1  <0> A   1     -14.136   4.116  45.366  0.00  0.00    +0.033 C 
ATOM     21  C2  <0> A   1     -14.275   5.547  44.843  0.00  0.00    +0.030 C 
ATOM     22  C3  <0> A   1     -15.055   5.536  43.526  0.00  0.00    +0.033 C 
ENDBRANCH   1  21
BRANCH   6  23
ATOM     23  C9  <0> A   1     -13.392   8.249  45.506  0.00  0.00    -0.001 C 
ATOM     24  C10 <0> A   1     -13.511   8.848  44.328  0.00  0.00    -0.031 C 
BRANCH  24  25
ATOM     25  C11 <0> A   1     -12.297   9.432  43.654  0.00  0.00    +0.252 C 
BRANCH  25  26
ATOM     26  O4  <0> A   1     -11.115   8.894  44.250  0.00  0.00    -0.537 OA
ATOM     27  H18 <0> A   1     -11.104   7.928  44.299  0.00  0.00    +0.366 HD
ENDBRANCH  25  26
BRANCH  25  28
ATOM     28  C12 <0> A   1     -12.322   9.081  42.165  0.00  0.00    -0.041 C 
BRANCH  28  29
ATOM     29  C13 <0> A   1     -13.095  10.157  41.400  0.00  0.00    +0.232 C 
BRANCH  29  30
ATOM     30  O3  <0> A   1     -12.627  11.449  41.793  0.00  0.00    -0.528 OA
ATOM     31  H17 <0> A   1     -11.938  11.809  41.219  0.00  0.00    +0.350 HD
ENDBRANCH  29  30
BRANCH  29  32
ATOM     32  C14 <0> A   1     -12.877   9.971  39.897  0.00  0.00    -0.102 C 
BRANCH  32  33
ATOM     33  C15 <0> A   1     -13.112  11.281  39.189  0.00  0.00    +0.491 C 
ATOM     34  O1  <0> A   1     -14.248  11.705  39.054  0.00  0.00    -0.681 OA
ATOM     35  O2  <0> A   1     -12.168  11.916  38.752  0.00  0.00    -0.713 OA
ENDBRANCH  32  33
ENDBRANCH  29  32
ENDBRANCH  28  29
ENDBRANCH  25  28
ENDBRANCH  24  25
ENDBRANCH   6  23
TORSDOF 11
ENDMDL
MODEL 3
REMARK VINA RESULT:      -8.0      3.736      7.639
REMARK  Name = CHEMBL322643
REMARK  13 active torsions:
REMARK  status: ('A' for Active; 'I' for Inactive)
REMARK    1  A    between atoms: C1_1  and  C2_2
REMARK    2  A    between atoms: C2_2  and  C3_3
REMARK    3  A    between atoms: C2_2  and  C4_4
REMARK    4  A    between atoms: C6_6  and  C22_29
REMARK    5  A    between atoms: C7_8  and  C16_22
REMARK    6  A    between atoms: C8_9  and  C9_10
REMARK    7  A    between atoms: C10_11  and  C11_12
REMARK    8  A    between atoms: C11_12  and  C12_13
REMARK    9  A    between atoms: C11_12  and  O4_21
REMARK   10  A    between atoms: C12_13  and  C13_14
REMARK   11  A    between atoms: C13_14  and  C14_16
REMARK   12  A    between atoms: C13_14  and  O3_20
REMARK   13  A    between atoms: C14_16  and  C15_17
REMARK                            x       y       z     vdW  Elec       q    Type
REMARK                         _______ _______ _______ _____ _____    ______ ____
ROOT
ATOM      1  C4  <0> A   1     -14.475   7.059  44.596  0.00  0.00    -0.018 A 
ATOM      2  C5  <0> A   1     -14.141   7.274  43.273  0.00  0.00    -0.019 A 
ATOM      3  C6  <0> A   1     -13.539   8.477  42.905  0.00  0.00    +0.167 A 
ATOM      4  N1  <0> A   1     -13.286   9.417  43.806  0.00  0.00    -0.469 NA
ATOM      5  C7  <0> A   1     -13.589   9.255  45.084  0.00  0.00    +0.184 A 
ATOM      6  C8  <0> A   1     -14.202   8.068  45.526  0.00  0.00    -0.083 A 
ENDROOT
BRANCH   5   7
ATOM      7  C16 <0> A   1     -13.287  10.332  46.054  0.00  0.00    -0.062 A 
ATOM      8  C17 <0> A   1     -12.094  10.310  46.776  0.00  0.00    +0.087 A 
ATOM      9  C18 <0> A   1     -11.816  11.316  47.678  0.00  0.00    -0.017 A 
ATOM     10  C19 <0> A   1     -12.721  12.347  47.869  0.00  0.00    +0.113 A 
ATOM     11  C20 <0> A   1     -13.908  12.374  47.154  0.00  0.00    -0.026 A 
ATOM     12  C21 <0> A   1     -14.192  11.376  46.246  0.00  0.00    +0.082 A 
ATOM     13  F1  <0> A   1     -12.445  13.330  48.753  0.00  0.00    -0.137 F 
ENDBRANCH   5   7
BRANCH   3  14
ATOM     14  C22 <0> A   1     -13.179   8.710  41.486  0.00  0.00    -0.046 A 
ATOM     15  C23 <0> A   1     -13.300   9.984  40.934  0.00  0.00    +0.023 A 
ATOM     16  C24 <0> A   1     -12.963  10.195  39.612  0.00  0.00    +0.002 A 
ATOM     17  C25 <0> A   1     -12.508   9.144  38.835  0.00  0.00    +0.011 A 
ATOM     18  C26 <0> A   1     -12.385   7.878  39.378  0.00  0.00    -0.001 A 
ATOM     19  C27 <0> A   1     -12.713   7.657  40.700  0.00  0.00    +0.054 A 
ENDBRANCH   3  14
BRANCH   1  21
ATOM     20  C1  <0> A   1     -16.443   5.585  44.269  0.00  0.00    +0.033 C 
ATOM     21  C2  <0> A   1     -15.127   5.770  45.028  0.00  0.00    +0.030 C 
ATOM     22  C3  <0> A   1     -14.191   4.599  44.720  0.00  0.00    +0.033 C 
ENDBRANCH   1  21
BRANCH   6  23
ATOM     23  C9  <0> A   1     -14.546   7.889  46.950  0.00  0.00    -0.001 C 
ATOM     24  C10 <0> A   1     -15.726   8.294  47.404  0.00  0.00    -0.031 C 
BRANCH  24  25
ATOM     25  C11 <0> A   1     -16.077   8.110  48.858  0.00  0.00    +0.252 C 
BRANCH  25  26
ATOM     26  O4  <0> A   1     -16.742   9.279  49.339  0.00  0.00    -0.537 OA
ATOM     27  H18 <0> A   1     -17.696   9.284  49.177  0.00  0.00    +0.366 HD
ENDBRANCH  25  26
BRANCH  25  28
ATOM     28  C12 <0> A   1     -16.999   6.899  49.010  0.00  0.00    -0.041 C 
BRANCH  28  29
ATOM     29  C13 <0> A   1     -18.314   7.163  48.272  0.00  0.00    +0.232 C 
BRANCH  29  30
ATOM     30  O3  <0> A   1     -18.396   6.310  47.128  0.00  0.00    -0.528 OA
ATOM     31  H17 <0> A   1     -17.571   5.850  46.920  0.00  0.00    +0.350 HD
ENDBRANCH  29  30
BRANCH  29  32
ATOM     32  C14 <0> A   1     -19.490   6.878  49.207  0.00  0.00    -0.102 C 
BRANCH  32  33
ATOM     33  C15 <0> A   1     -20.063   5.519  48.893  0.00  0.00    +0.491 C 
ATOM     34  O1  <0> A   1     -20.999   5.417  48.116  0.00  0.00    -0.681 OA
ATOM     35  O2  <0> A   1     -19.593   4.524  49.415  0.00  0.00    -0.713 OA
ENDBRANCH  32  33
ENDBRANCH  29  32
ENDBRANCH  28  29
ENDBRANCH  25  28
ENDBRANCH  24  25
ENDBRANCH   6  23
TORSDOF 11
ENDMDL
MODEL 4
REMARK VINA RESULT:      -7.9     16.565     20.410
REMARK  Name = CHEMBL322643
REMARK  13 active torsions:
REMARK  status: ('A' for Active; 'I' for Inactive)
REMARK    1  A    between atoms: C1_1  and  C2_2
REMARK    2  A    between atoms: C2_2  and  C3_3
REMARK    3  A    between atoms: C2_2  and  C4_4
REMARK    4  A    between atoms: C6_6  and  C22_29
REMARK    5  A    between atoms: C7_8  and  C16_22
REMARK    6  A    between atoms: C8_9  and  C9_10
REMARK    7  A    between atoms: C10_11  and  C11_12
REMARK    8  A    between atoms: C11_12  and  C12_13
REMARK    9  A    between atoms: C11_12  and  O4_21
REMARK   10  A    between atoms: C12_13  and  C13_14
REMARK   11  A    between atoms: C13_14  and  C14_16
REMARK   12  A    between atoms: C13_14  and  O3_20
REMARK   13  A    between atoms: C14_16  and  C15_17
REMARK                            x       y       z     vdW  Elec       q    Type
REMARK                         _______ _______ _______ _____ _____    ______ ____
ROOT
ATOM      1  C4  <0> A   1     -24.788  -3.268  50.860  0.00  0.00    -0.018 A 
ATOM      2  C5  <0> A   1     -25.508  -2.095  50.972  0.00  0.00    -0.019 A 
ATOM      3  C6  <0> A   1     -26.902  -2.141  50.946  0.00  0.00    +0.167 A 
ATOM      4  N1  <0> A   1     -27.544  -3.293  50.813  0.00  0.00    -0.469 NA
ATOM      5  C7  <0> A   1     -26.895  -4.442  50.702  0.00  0.00    +0.184 A 
ATOM      6  C8  <0> A   1     -25.489  -4.470  50.716  0.00  0.00    -0.083 A 
ENDROOT
BRANCH   5   7
ATOM      7  C16 <0> A   1     -27.655  -5.705  50.557  0.00  0.00    -0.062 A 
ATOM      8  C17 <0> A   1     -27.815  -6.285  49.298  0.00  0.00    +0.087 A 
ATOM      9  C18 <0> A   1     -28.523  -7.461  49.168  0.00  0.00    -0.017 A 
ATOM     10  C19 <0> A   1     -29.076  -8.067  50.285  0.00  0.00    +0.113 A 
ATOM     11  C20 <0> A   1     -28.920  -7.495  51.537  0.00  0.00    -0.026 A 
ATOM     12  C21 <0> A   1     -28.209  -6.322  51.679  0.00  0.00    +0.082 A 
ATOM     13  F1  <0> A   1     -29.768  -9.219  50.152  0.00  0.00    -0.137 F 
ENDBRANCH   5   7
BRANCH   3  14
ATOM     14  C22 <0> A   1     -27.677  -0.883  51.067  0.00  0.00    -0.046 A 
ATOM     15  C23 <0> A   1     -28.899  -0.876  51.737  0.00  0.00    +0.023 A 
ATOM     16  C24 <0> A   1     -29.617   0.298  51.846  0.00  0.00    +0.002 A 
ATOM     17  C25 <0> A   1     -29.126   1.466  51.292  0.00  0.00    +0.011 A 
ATOM     18  C26 <0> A   1     -27.913   1.466  50.626  0.00  0.00    -0.001 A 
ATOM     19  C27 <0> A   1     -27.184   0.299  50.516  0.00  0.00    +0.054 A 
ENDBRANCH   3  14
BRANCH   1  21
ATOM     20  C1  <0> A   1     -22.777  -1.888  50.413  0.00  0.00    +0.033 C 
ATOM     21  C2  <0> A   1     -23.281  -3.253  50.885  0.00  0.00    +0.030 C 
ATOM     22  C3  <0> A   1     -22.792  -3.513  52.311  0.00  0.00    +0.033 C 
ENDBRANCH   1  21
BRANCH   6  23
ATOM     23  C9  <0> A   1     -24.764  -5.750  50.587  0.00  0.00    -0.001 C 
ATOM     24  C10 <0> A   1     -24.677  -6.572  51.626  0.00  0.00    -0.031 C 
BRANCH  24  25
ATOM     25  C11 <0> A   1     -23.938  -7.878  51.493  0.00  0.00    +0.252 C 
BRANCH  25  26
ATOM     26  O4  <0> A   1     -23.262  -8.169  52.717  0.00  0.00    -0.537 OA
ATOM     27  H18 <0> A   1     -23.514  -7.594  53.453  0.00  0.00    +0.366 HD
ENDBRANCH  25  26
BRANCH  25  28
ATOM     28  C12 <0> A   1     -24.934  -8.997  51.182  0.00  0.00    -0.041 C 
BRANCH  28  29
ATOM     29  C13 <0> A   1     -24.320  -9.957  50.160  0.00  0.00    +0.232 C 
BRANCH  29  30
ATOM     30  O3  <0> A   1     -22.977  -9.558  49.880  0.00  0.00    -0.528 OA
ATOM     31  H17 <0> A   1     -22.319 -10.244  50.055  0.00  0.00    +0.350 HD
ENDBRANCH  29  30
BRANCH  29  32
ATOM     32  C14 <0> A   1     -24.324 -11.377  50.727  0.00  0.00    -0.102 C 
BRANCH  32  33
ATOM     33  C15 <0> A   1     -24.291 -12.371  49.594  0.00  0.00    +0.491 C 
ATOM     34  O1  <0> A   1     -23.443 -12.274  48.723  0.00  0.00    -0.681 OA
ATOM     35  O2  <0> A   1     -25.113 -13.270  49.548  0.00  0.00    -0.713 OA
ENDBRANCH  32  33
ENDBRANCH  29  32
ENDBRANCH  28  29
ENDBRANCH  25  28
ENDBRANCH  24  25
ENDBRANCH   6  23
TORSDOF 11
ENDMDL
MODEL 5
REMARK VINA RESULT:      -7.7     17.423     21.829
REMARK  Name = CHEMBL322643
REMARK  13 active torsions:
REMARK  status: ('A' for Active; 'I' for Inactive)
REMARK    1  A    between atoms: C1_1  and  C2_2
REMARK    2  A    between atoms: C2_2  and  C3_3
REMARK    3  A    between atoms: C2_2  and  C4_4
REMARK    4  A    between atoms: C6_6  and  C22_29
REMARK    5  A    between atoms: C7_8  and  C16_22
REMARK    6  A    between atoms: C8_9  and  C9_10
REMARK    7  A    between atoms: C10_11  and  C11_12
REMARK    8  A    between atoms: C11_12  and  C12_13
REMARK    9  A    between atoms: C11_12  and  O4_21
REMARK   10  A    between atoms: C12_13  and  C13_14
REMARK   11  A    between atoms: C13_14  and  C14_16
REMARK   12  A    between atoms: C13_14  and  O3_20
REMARK   13  A    between atoms: C14_16  and  C15_17
REMARK                            x       y       z     vdW  Elec       q    Type
REMARK                         _______ _______ _______ _____ _____    ______ ____
ROOT
ATOM      1  C4  <0> A   1     -27.551  -4.691  51.739  0.00  0.00    -0.018 A 
ATOM      2  C5  <0> A   1     -26.895  -3.479  51.630  0.00  0.00    -0.019 A 
ATOM      3  C6  <0> A   1     -25.570  -3.454  51.194  0.00  0.00    +0.167 A 
ATOM      4  N1  <0> A   1     -24.932  -4.575  50.886  0.00  0.00    -0.469 NA
ATOM      5  C7  <0> A   1     -25.520  -5.757  50.976  0.00  0.00    +0.184 A 
ATOM      6  C8  <0> A   1     -26.854  -5.859  51.413  0.00  0.00    -0.083 A 
ENDROOT
BRANCH   5   7
ATOM      7  C16 <0> A   1     -24.768  -6.982  50.620  0.00  0.00    -0.062 A 
ATOM      8  C17 <0> A   1     -24.642  -7.364  49.284  0.00  0.00    +0.087 A 
ATOM      9  C18 <0> A   1     -23.940  -8.505  48.958  0.00  0.00    -0.017 A 
ATOM     10  C19 <0> A   1     -23.360  -9.274  49.955  0.00  0.00    +0.113 A 
ATOM     11  C20 <0> A   1     -23.482  -8.899  51.284  0.00  0.00    -0.026 A 
ATOM     12  C21 <0> A   1     -24.178  -7.756  51.620  0.00  0.00    +0.082 A 
ATOM     13  F1  <0> A   1     -22.673 -10.391  49.630  0.00  0.00    -0.137 F 
ENDBRANCH   5   7
BRANCH   3  14
ATOM     14  C22 <0> A   1     -24.865  -2.156  51.075  0.00  0.00    -0.046 A 
ATOM     15  C23 <0> A   1     -23.520  -2.056  51.427  0.00  0.00    +0.023 A 
ATOM     16  C24 <0> A   1     -22.868  -0.845  51.314  0.00  0.00    +0.002 A 
ATOM     17  C25 <0> A   1     -23.547   0.269  50.854  0.00  0.00    +0.011 A 
ATOM     18  C26 <0> A   1     -24.882   0.176  50.502  0.00  0.00    -0.001 A 
ATOM     19  C27 <0> A   1     -25.542  -1.031  50.605  0.00  0.00    +0.054 A 
ENDBRANCH   3  14
BRANCH   1  21
ATOM     20  C1  <0> A   1     -29.213  -3.691  53.285  0.00  0.00    +0.033 C 
ATOM     21  C2  <0> A   1     -28.982  -4.753  52.207  0.00  0.00    +0.030 C 
ATOM     22  C3  <0> A   1     -29.917  -4.491  51.024  0.00  0.00    +0.033 C 
ENDBRANCH   1  21
BRANCH   6  23
ATOM     23  C9  <0> A   1     -27.509  -7.177  51.519  0.00  0.00    -0.001 C 
ATOM     24  C10 <0> A   1     -28.023  -7.753  50.439  0.00  0.00    -0.031 C 
BRANCH  24  25
ATOM     25  C11 <0> A   1     -28.691  -9.099  50.549  0.00  0.00    +0.252 C 
BRANCH  25  26
ATOM     26  O4  <0> A   1     -27.695 -10.120  50.630  0.00  0.00    -0.537 OA
ATOM     27  H18 <0> A   1     -27.676 -10.585  51.478  0.00  0.00    +0.366 HD
ENDBRANCH  25  26
BRANCH  25  28
ATOM     28  C12 <0> A   1     -29.561  -9.134  51.806  0.00  0.00    -0.041 C 
BRANCH  28  29
ATOM     29  C13 <0> A   1     -30.502 -10.339  51.741  0.00  0.00    +0.232 C 
BRANCH  29  30
ATOM     30  O3  <0> A   1     -30.296 -11.038  50.512  0.00  0.00    -0.528 OA
ATOM     31  H17 <0> A   1     -29.559 -10.699  49.986  0.00  0.00    +0.350 HD
ENDBRANCH  29  30
BRANCH  29  32
ATOM     32  C14 <0> A   1     -30.214 -11.276  52.916  0.00  0.00    -0.102 C 
BRANCH  32  33
ATOM     33  C15 <0> A   1     -29.627 -12.564  52.398  0.00  0.00    +0.491 C 
ATOM     34  O1  <0> A   1     -30.337 -13.546  52.260  0.00  0.00    -0.681 OA
ATOM     35  O2  <0> A   1     -28.442 -12.625  52.119  0.00  0.00    -0.713 OA
ENDBRANCH  32  33
ENDBRANCH  29  32
ENDBRANCH  28  29
ENDBRANCH  25  28
ENDBRANCH  24  25
ENDBRANCH   6  23
TORSDOF 11
ENDMDL
MODEL 6
REMARK VINA RESULT:      -7.7      2.725      4.908
REMARK  Name = CHEMBL322643
REMARK  13 active torsions:
REMARK  status: ('A' for Active; 'I' for Inactive)
REMARK    1  A    between atoms: C1_1  and  C2_2
REMARK    2  A    between atoms: C2_2  and  C3_3
REMARK    3  A    between atoms: C2_2  and  C4_4
REMARK    4  A    between atoms: C6_6  and  C22_29
REMARK    5  A    between atoms: C7_8  and  C16_22
REMARK    6  A    between atoms: C8_9  and  C9_10
REMARK    7  A    between atoms: C10_11  and  C11_12
REMARK    8  A    between atoms: C11_12  and  C12_13
REMARK    9  A    between atoms: C11_12  and  O4_21
REMARK   10  A    between atoms: C12_13  and  C13_14
REMARK   11  A    between atoms: C13_14  and  C14_16
REMARK   12  A    between atoms: C13_14  and  O3_20
REMARK   13  A    between atoms: C14_16  and  C15_17
REMARK                            x       y       z     vdW  Elec       q    Type
REMARK                         _______ _______ _______ _____ _____    ______ ____
ROOT
ATOM      1  C4  <0> A   1     -13.328  10.065  46.033  0.00  0.00    -0.018 A 
ATOM      2  C5  <0> A   1     -13.632  10.361  47.347  0.00  0.00    -0.019 A 
ATOM      3  C6  <0> A   1     -14.390   9.459  48.095  0.00  0.00    +0.167 A 
ATOM      4  N1  <0> A   1     -14.823   8.325  47.562  0.00  0.00    -0.469 NA
ATOM      5  C7  <0> A   1     -14.556   8.001  46.306  0.00  0.00    +0.184 A 
ATOM      6  C8  <0> A   1     -13.801   8.864  45.492  0.00  0.00    -0.083 A 
ENDROOT
BRANCH   5   7
ATOM      7  C16 <0> A   1     -15.061   6.723  45.754  0.00  0.00    -0.062 A 
ATOM      8  C17 <0> A   1     -16.297   6.678  45.108  0.00  0.00    +0.087 A 
ATOM      9  C18 <0> A   1     -16.762   5.486  44.594  0.00  0.00    -0.017 A 
ATOM     10  C19 <0> A   1     -16.004   4.332  44.719  0.00  0.00    +0.113 A 
ATOM     11  C20 <0> A   1     -14.776   4.372  45.360  0.00  0.00    -0.026 A 
ATOM     12  C21 <0> A   1     -14.300   5.560  45.872  0.00  0.00    +0.082 A 
ATOM     13  F1  <0> A   1     -16.464   3.167  44.214  0.00  0.00    -0.137 F 
ENDBRANCH   5   7
BRANCH   3  14
ATOM     14  C22 <0> A   1     -14.717   9.774  49.507  0.00  0.00    -0.046 A 
ATOM     15  C23 <0> A   1     -13.696  10.016  50.423  0.00  0.00    +0.023 A 
ATOM     16  C24 <0> A   1     -14.006  10.309  51.736  0.00  0.00    +0.002 A 
ATOM     17  C25 <0> A   1     -15.327  10.361  52.143  0.00  0.00    +0.011 A 
ATOM     18  C26 <0> A   1     -16.345  10.122  51.237  0.00  0.00    -0.001 A 
ATOM     19  C27 <0> A   1     -16.047   9.834  49.920  0.00  0.00    +0.054 A 
ENDBRANCH   3  14
BRANCH   1  21
ATOM     20  C1  <0> A   1     -13.444  12.002  44.488  0.00  0.00    +0.033 C 
ATOM     21  C2  <0> A   1     -12.511  11.017  45.197  0.00  0.00    +0.030 C 
ATOM     22  C3  <0> A   1     -11.546  11.788  46.101  0.00  0.00    +0.033 C 
ENDBRANCH   1  21
BRANCH   6  23
ATOM     23  C9  <0> A   1     -13.508   8.506  44.091  0.00  0.00    -0.001 C 
ATOM     24  C10 <0> A   1     -12.308   8.044  43.761  0.00  0.00    -0.031 C 
BRANCH  24  25
ATOM     25  C11 <0> A   1     -12.009   7.678  42.330  0.00  0.00    +0.252 C 
BRANCH  25  26
ATOM     26  O4  <0> A   1     -11.846   6.263  42.224  0.00  0.00    -0.537 OA
ATOM     27  H18 <0> A   1     -12.531   5.826  41.699  0.00  0.00    +0.366 HD
ENDBRANCH  25  26
BRANCH  25  28
ATOM     28  C12 <0> A   1     -13.167   8.126  41.437  0.00  0.00    -0.041 C 
BRANCH  28  29
ATOM     29  C13 <0> A   1     -12.687   9.231  40.493  0.00  0.00    +0.232 C 
BRANCH  29  30
ATOM     30  O3  <0> A   1     -13.147   8.957  39.168  0.00  0.00    -0.528 OA
ATOM     31  H17 <0> A   1     -13.971   8.451  39.134  0.00  0.00    +0.350 HD
ENDBRANCH  29  30
BRANCH  29  32
ATOM     32  C14 <0> A   1     -13.244  10.578  40.958  0.00  0.00    -0.102 C 
BRANCH  32  33
ATOM     33  C15 <0> A   1     -13.963  11.246  39.815  0.00  0.00    +0.491 C 
ATOM     34  O1  <0> A   1     -15.176  11.158  39.722  0.00  0.00    -0.681 OA
ATOM     35  O2  <0> A   1     -13.332  11.874  38.981  0.00  0.00    -0.713 OA
ENDBRANCH  32  33
ENDBRANCH  29  32
ENDBRANCH  28  29
ENDBRANCH  25  28
ENDBRANCH  24  25
ENDBRANCH   6  23
TORSDOF 11
ENDMDL
MODEL 7
REMARK VINA RESULT:      -7.7      2.462      4.514
REMARK  Name = CHEMBL322643
REMARK  13 active torsions:
REMARK  status: ('A' for Active; 'I' for Inactive)
REMARK    1  A    between atoms: C1_1  and  C2_2
REMARK    2  A    between atoms: C2_2  and  C3_3
REMARK    3  A    between atoms: C2_2  and  C4_4
REMARK    4  A    between atoms: C6_6  and  C22_29
REMARK    5  A    between atoms: C7_8  and  C16_22
REMARK    6  A    between atoms: C8_9  and  C9_10
REMARK    7  A    between atoms: C10_11  and  C11_12
REMARK    8  A    between atoms: C11_12  and  C12_13
REMARK    9  A    between atoms: C11_12  and  O4_21
REMARK   10  A    between atoms: C12_13  and  C13_14
REMARK   11  A    between atoms: C13_14  and  C14_16
REMARK   12  A    between atoms: C13_14  and  O3_20
REMARK   13  A    between atoms: C14_16  and  C15_17
REMARK                            x       y       z     vdW  Elec       q    Type
REMARK                         _______ _______ _______ _____ _____    ______ ____
ROOT
ATOM      1  C4  <0> A   1     -15.648   9.619  47.869  0.00  0.00    -0.018 A 
ATOM      2  C5  <0> A   1     -16.758   9.331  48.640  0.00  0.00    -0.019 A 
ATOM      3  C6  <0> A   1     -17.354   8.074  48.540  0.00  0.00    +0.167 A 
ATOM      4  N1  <0> A   1     -16.873   7.154  47.716  0.00  0.00    -0.469 NA
ATOM      5  C7  <0> A   1     -15.813   7.386  46.959  0.00  0.00    +0.184 A 
ATOM      6  C8  <0> A   1     -15.163   8.632  47.004  0.00  0.00    -0.083 A 
ENDROOT
BRANCH   5   7
ATOM      7  C16 <0> A   1     -15.310   6.327  46.053  0.00  0.00    -0.062 A 
ATOM      8  C17 <0> A   1     -14.464   5.331  46.542  0.00  0.00    +0.087 A 
ATOM      9  C18 <0> A   1     -13.999   4.346  45.695  0.00  0.00    -0.017 A 
ATOM     10  C19 <0> A   1     -14.370   4.346  44.360  0.00  0.00    +0.113 A 
ATOM     11  C20 <0> A   1     -15.210   5.333  43.870  0.00  0.00    -0.026 A 
ATOM     12  C21 <0> A   1     -15.685   6.318  44.710  0.00  0.00    +0.082 A 
ATOM     13  F1  <0> A   1     -13.912   3.380  43.534  0.00  0.00    -0.137 F 
ENDBRANCH   5   7
BRANCH   3  14
ATOM     14  C22 <0> A   1     -18.545   7.763  49.368  0.00  0.00    -0.046 A 
ATOM     15  C23 <0> A   1     -19.305   6.626  49.098  0.00  0.00    +0.023 A 
ATOM     16  C24 <0> A   1     -20.413   6.341  49.871  0.00  0.00    +0.002 A 
ATOM     17  C25 <0> A   1     -20.769   7.182  50.910  0.00  0.00    +0.011 A 
ATOM     18  C26 <0> A   1     -20.018   8.311  51.182  0.00  0.00    -0.001 A 
ATOM     19  C27 <0> A   1     -18.905   8.603  50.420  0.00  0.00    +0.054 A 
ENDBRANCH   3  14
BRANCH   1  21
ATOM     20  C1  <0> A   1     -16.047  12.064  47.986  0.00  0.00    +0.033 C 
ATOM     21  C2  <0> A   1     -14.980  10.967  47.952  0.00  0.00    +0.030 C 
ATOM     22  C3  <0> A   1     -14.134  11.039  49.225  0.00  0.00    +0.033 C 
ENDBRANCH   1  21
BRANCH   6  23
ATOM     23  C9  <0> A   1     -13.984   8.894  46.155  0.00  0.00    -0.001 C 
ATOM     24  C10 <0> A   1     -14.111   9.609  45.044  0.00  0.00    -0.031 C 
BRANCH  24  25
ATOM     25  C11 <0> A   1     -12.907   9.877  44.179  0.00  0.00    +0.252 C 
BRANCH  25  26
ATOM     26  O4  <0> A   1     -11.820   9.055  44.607  0.00  0.00    -0.537 OA
ATOM     27  H18 <0> A   1     -11.055   9.551  44.931  0.00  0.00    +0.366 HD
ENDBRANCH  25  26
BRANCH  25  28
ATOM     28  C12 <0> A   1     -13.246   9.555  42.722  0.00  0.00    -0.041 C 
BRANCH  28  29
ATOM     29  C13 <0> A   1     -12.959  10.778  41.848  0.00  0.00    +0.232 C 
BRANCH  29  30
ATOM     30  O3  <0> A   1     -11.649  10.664  41.287  0.00  0.00    -0.528 OA
ATOM     31  H17 <0> A   1     -11.437  11.353  40.643  0.00  0.00    +0.350 HD
ENDBRANCH  29  30
BRANCH  29  32
ATOM     32  C14 <0> A   1     -13.992  10.855  40.723  0.00  0.00    -0.102 C 
BRANCH  32  33
ATOM     33  C15 <0> A   1     -13.284  11.008  39.401  0.00  0.00    +0.491 C 
ATOM     34  O1  <0> A   1     -13.229  12.102  38.863  0.00  0.00    -0.681 OA
ATOM     35  O2  <0> A   1     -12.769  10.040  38.870  0.00  0.00    -0.713 OA
ENDBRANCH  32  33
ENDBRANCH  29  32
ENDBRANCH  28  29
ENDBRANCH  25  28
ENDBRANCH  24  25
ENDBRANCH   6  23
TORSDOF 11
ENDMDL
MODEL 8
REMARK VINA RESULT:      -7.6     12.449     16.884
REMARK  Name = CHEMBL322643
REMARK  13 active torsions:
REMARK  status: ('A' for Active; 'I' for Inactive)
REMARK    1  A    between atoms: C1_1  and  C2_2
REMARK    2  A    between atoms: C2_2  and  C3_3
REMARK    3  A    between atoms: C2_2  and  C4_4
REMARK    4  A    between atoms: C6_6  and  C22_29
REMARK    5  A    between atoms: C7_8  and  C16_22
REMARK    6  A    between atoms: C8_9  and  C9_10
REMARK    7  A    between atoms: C10_11  and  C11_12
REMARK    8  A    between atoms: C11_12  and  C12_13
REMARK    9  A    between atoms: C11_12  and  O4_21
REMARK   10  A    between atoms: C12_13  and  C13_14
REMARK   11  A    between atoms: C13_14  and  C14_16
REMARK   12  A    between atoms: C13_14  and  O3_20
REMARK   13  A    between atoms: C14_16  and  C15_17
REMARK                            x       y       z     vdW  Elec       q    Type
REMARK                         _______ _______ _______ _____ _____    ______ ____
ROOT
ATOM      1  C4  <0> A   1     -25.080  -0.018  51.485  0.00  0.00    -0.018 A 
ATOM      2  C5  <0> A   1     -24.515   1.215  51.222  0.00  0.00    -0.019 A 
ATOM      3  C6  <0> A   1     -23.183   1.446  51.570  0.00  0.00    +0.167 A 
ATOM      4  N1  <0> A   1     -22.455   0.501  52.149  0.00  0.00    -0.469 NA
ATOM      5  C7  <0> A   1     -22.956  -0.694  52.419  0.00  0.00    +0.184 A 
ATOM      6  C8  <0> A   1     -24.292  -0.996  52.101  0.00  0.00    -0.083 A 
ENDROOT
BRANCH   5   7
ATOM      7  C16 <0> A   1     -22.105  -1.719  53.067  0.00  0.00    -0.062 A 
ATOM      8  C17 <0> A   1     -21.349  -2.595  52.288  0.00  0.00    +0.087 A 
ATOM      9  C18 <0> A   1     -20.557  -3.548  52.895  0.00  0.00    -0.017 A 
ATOM     10  C19 <0> A   1     -20.512  -3.636  54.277  0.00  0.00    +0.113 A 
ATOM     11  C20 <0> A   1     -21.261  -2.767  55.055  0.00  0.00    -0.026 A 
ATOM     12  C21 <0> A   1     -22.052  -1.808  54.458  0.00  0.00    +0.082 A 
ATOM     13  F1  <0> A   1     -19.736  -4.570  54.868  0.00  0.00    -0.137 F 
ENDBRANCH   5   7
BRANCH   3  14
ATOM     14  C22 <0> A   1     -22.574   2.768  51.289  0.00  0.00    -0.046 A 
ATOM     15  C23 <0> A   1     -22.822   3.847  52.136  0.00  0.00    +0.023 A 
ATOM     16  C24 <0> A   1     -22.252   5.075  51.869  0.00  0.00    +0.002 A 
ATOM     17  C25 <0> A   1     -21.437   5.238  50.764  0.00  0.00    +0.011 A 
ATOM     18  C26 <0> A   1     -21.186   4.170  49.920  0.00  0.00    -0.001 A 
ATOM     19  C27 <0> A   1     -21.746   2.936  50.180  0.00  0.00    +0.054 A 
ENDBRANCH   3  14
BRANCH   1  21
ATOM     20  C1  <0> A   1     -27.352   0.965  51.329  0.00  0.00    +0.033 C 
ATOM     21  C2  <0> A   1     -26.516  -0.300  51.122  0.00  0.00    +0.030 C 
ATOM     22  C3  <0> A   1     -26.596  -0.731  49.656  0.00  0.00    +0.033 C 
ENDBRANCH   1  21
BRANCH   6  23
ATOM     23  C9  <0> A   1     -24.853  -2.327  52.407  0.00  0.00    -0.001 C 
ATOM     24  C10 <0> A   1     -24.850  -3.278  51.481  0.00  0.00    -0.031 C 
BRANCH  24  25
ATOM     25  C11 <0> A   1     -25.422  -4.636  51.795  0.00  0.00    +0.252 C 
BRANCH  25  26
ATOM     26  O4  <0> A   1     -26.780  -4.694  51.355  0.00  0.00    -0.537 OA
ATOM     27  H18 <0> A   1     -27.046  -5.559  51.012  0.00  0.00    +0.366 HD
ENDBRANCH  25  26
BRANCH  25  28
ATOM     28  C12 <0> A   1     -24.606  -5.711  51.074  0.00  0.00    -0.041 C 
BRANCH  28  29
ATOM     29  C13 <0> A   1     -25.553  -6.686  50.371  0.00  0.00    +0.232 C 
BRANCH  29  30
ATOM     30  O3  <0> A   1     -25.802  -6.230  49.040  0.00  0.00    -0.528 OA
ATOM     31  H17 <0> A   1     -26.700  -5.899  48.899  0.00  0.00    +0.350 HD
ENDBRANCH  29  30
BRANCH  29  32
ATOM     32  C14 <0> A   1     -24.913  -8.074  50.324  0.00  0.00    -0.102 C 
BRANCH  32  33
ATOM     33  C15 <0> A   1     -24.521  -8.399  48.905  0.00  0.00    +0.491 C 
ATOM     34  O1  <0> A   1     -25.200  -9.167  48.245  0.00  0.00    -0.681 OA
ATOM     35  O2  <0> A   1     -23.524  -7.894  48.418  0.00  0.00    -0.713 OA
ENDBRANCH  32  33
ENDBRANCH  29  32
ENDBRANCH  28  29
ENDBRANCH  25  28
ENDBRANCH  24  25
ENDBRANCH   6  23
TORSDOF 11
ENDMDL
MODEL 9
REMARK VINA RESULT:      -7.6     15.128     18.692
REMARK  Name = CHEMBL322643
REMARK  13 active torsions:
REMARK  status: ('A' for Active; 'I' for Inactive)
REMARK    1  A    between atoms: C1_1  and  C2_2
REMARK    2  A    between atoms: C2_2  and  C3_3
REMARK    3  A    between atoms: C2_2  and  C4_4
REMARK    4  A    between atoms: C6_6  and  C22_29
REMARK    5  A    between atoms: C7_8  and  C16_22
REMARK    6  A    between atoms: C8_9  and  C9_10
REMARK    7  A    between atoms: C10_11  and  C11_12
REMARK    8  A    between atoms: C11_12  and  C12_13
REMARK    9  A    between atoms: C11_12  and  O4_21
REMARK   10  A    between atoms: C12_13  and  C13_14
REMARK   11  A    between atoms: C13_14  and  C14_16
REMARK   12  A    between atoms: C13_14  and  O3_20
REMARK   13  A    between atoms: C14_16  and  C15_17
REMARK                            x       y       z     vdW  Elec       q    Type
REMARK                         _______ _______ _______ _____ _____    ______ ____
ROOT
ATOM      1  C4  <0> A   1     -27.284  -4.829  52.172  0.00  0.00    -0.018 A 
ATOM      2  C5  <0> A   1     -26.615  -5.968  51.768  0.00  0.00    -0.019 A 
ATOM      3  C6  <0> A   1     -25.317  -5.858  51.268  0.00  0.00    +0.167 A 
ATOM      4  N1  <0> A   1     -24.719  -4.678  51.174  0.00  0.00    -0.469 NA
ATOM      5  C7  <0> A   1     -25.323  -3.562  51.549  0.00  0.00    +0.184 A 
ATOM      6  C8  <0> A   1     -26.633  -3.596  52.059  0.00  0.00    -0.083 A 
ENDROOT
BRANCH   5   7
ATOM      7  C16 <0> A   1     -24.615  -2.266  51.427  0.00  0.00    -0.062 A 
ATOM      8  C17 <0> A   1     -23.724  -1.858  52.419  0.00  0.00    +0.087 A 
ATOM      9  C18 <0> A   1     -23.067  -0.651  52.300  0.00  0.00    -0.017 A 
ATOM     10  C19 <0> A   1     -23.292   0.157  51.197  0.00  0.00    +0.113 A 
ATOM     11  C20 <0> A   1     -24.177  -0.244  50.208  0.00  0.00    -0.026 A 
ATOM     12  C21 <0> A   1     -24.834  -1.451  50.315  0.00  0.00    +0.082 A 
ATOM     13  F1  <0> A   1     -22.646   1.338  51.085  0.00  0.00    -0.137 F 
ENDBRANCH   5   7
BRANCH   3  14
ATOM     14  C22 <0> A   1     -24.596  -7.079  50.834  0.00  0.00    -0.046 A 
ATOM     15  C23 <0> A   1     -24.478  -7.376  49.478  0.00  0.00    +0.023 A 
ATOM     16  C24 <0> A   1     -23.805  -8.513  49.079  0.00  0.00    +0.002 A 
ATOM     17  C25 <0> A   1     -23.250  -9.359  50.023  0.00  0.00    +0.011 A 
ATOM     18  C26 <0> A   1     -23.364  -9.069  51.371  0.00  0.00    -0.001 A 
ATOM     19  C27 <0> A   1     -24.028  -7.931  51.781  0.00  0.00    +0.054 A 
ENDBRANCH   3  14
BRANCH   1  21
ATOM     20  C1  <0> A   1     -29.664  -5.182  51.570  0.00  0.00    +0.033 C 
ATOM     21  C2  <0> A   1     -28.687  -4.913  52.717  0.00  0.00    +0.030 C 
ATOM     22  C3  <0> A   1     -28.771  -6.050  53.737  0.00  0.00    +0.033 C 
ENDBRANCH   1  21
BRANCH   6  23
ATOM     23  C9  <0> A   1     -27.310  -2.351  52.472  0.00  0.00    -0.001 C 
ATOM     24  C10 <0> A   1     -28.142  -1.739  51.638  0.00  0.00    -0.031 C 
BRANCH  24  25
ATOM     25  C11 <0> A   1     -28.833  -0.468  52.060  0.00  0.00    +0.252 C 
BRANCH  25  26
ATOM     26  O4  <0> A   1     -28.533  -0.196  53.430  0.00  0.00    -0.537 OA
ATOM     27  H18 <0> A   1     -28.665  -0.951  54.020  0.00  0.00    +0.366 HD
ENDBRANCH  25  26
BRANCH  25  28
ATOM     28  C12 <0> A   1     -28.342   0.691  51.190  0.00  0.00    -0.041 C 
BRANCH  28  29
ATOM     29  C13 <0> A   1     -29.343   1.845  51.266  0.00  0.00    +0.232 C 
BRANCH  29  30
ATOM     30  O3  <0> A   1     -30.424   1.481  52.128  0.00  0.00    -0.528 OA
ATOM     31  H17 <0> A   1     -30.637   2.148  52.795  0.00  0.00    +0.350 HD
ENDBRANCH  29  30
BRANCH  29  32
ATOM     32  C14 <0> A   1     -28.646   3.089  51.820  0.00  0.00    -0.102 C 
BRANCH  32  33
ATOM     33  C15 <0> A   1     -29.085   3.320  53.243  0.00  0.00    +0.491 C 
ATOM     34  O1  <0> A   1     -29.936   4.158  53.491  0.00  0.00    -0.681 OA
ATOM     35  O2  <0> A   1     -28.588   2.669  54.147  0.00  0.00    -0.713 OA
ENDBRANCH  32  33
ENDBRANCH  29  32
ENDBRANCH  28  29
ENDBRANCH  25  28
ENDBRANCH  24  25
ENDBRANCH   6  23
TORSDOF 11
ENDMDL
MODEL 10
REMARK VINA RESULT:      -7.6     15.120     18.899
REMARK  Name = CHEMBL322643
REMARK  13 active torsions:
REMARK  status: ('A' for Active; 'I' for Inactive)
REMARK    1  A    between atoms: C1_1  and  C2_2
REMARK    2  A    between atoms: C2_2  and  C3_3
REMARK    3  A    between atoms: C2_2  and  C4_4
REMARK    4  A    between atoms: C6_6  and  C22_29
REMARK    5  A    between atoms: C7_8  and  C16_22
REMARK    6  A    between atoms: C8_9  and  C9_10
REMARK    7  A    between atoms: C10_11  and  C11_12
REMARK    8  A    between atoms: C11_12  and  C12_13
REMARK    9  A    between atoms: C11_12  and  O4_21
REMARK   10  A    between atoms: C12_13  and  C13_14
REMARK   11  A    between atoms: C13_14  and  C14_16
REMARK   12  A    between atoms: C13_14  and  O3_20
REMARK   13  A    between atoms: C14_16  and  C15_17
REMARK                            x       y       z     vdW  Elec       q    Type
REMARK                         _______ _______ _______ _____ _____    ______ ____
ROOT
ATOM      1  C4  <0> A   1     -27.616  -5.176  52.221  0.00  0.00    -0.018 A 
ATOM      2  C5  <0> A   1     -26.833  -6.251  51.848  0.00  0.00    -0.019 A 
ATOM      3  C6  <0> A   1     -25.548  -6.025  51.353  0.00  0.00    +0.167 A 
ATOM      4  N1  <0> A   1     -25.069  -4.794  51.236  0.00  0.00    -0.469 NA
ATOM      5  C7  <0> A   1     -25.784  -3.734  51.581  0.00  0.00    +0.184 A 
ATOM      6  C8  <0> A   1     -27.089  -3.887  52.083  0.00  0.00    -0.083 A 
ENDROOT
BRANCH   5   7
ATOM      7  C16 <0> A   1     -25.207  -2.378  51.432  0.00  0.00    -0.062 A 
ATOM      8  C17 <0> A   1     -25.368  -1.675  50.238  0.00  0.00    +0.087 A 
ATOM      9  C18 <0> A   1     -24.830  -0.412  50.105  0.00  0.00    -0.017 A 
ATOM     10  C19 <0> A   1     -24.129   0.158  51.155  0.00  0.00    +0.113 A 
ATOM     11  C20 <0> A   1     -23.966  -0.536  52.344  0.00  0.00    -0.026 A 
ATOM     12  C21 <0> A   1     -24.505  -1.797  52.488  0.00  0.00    +0.082 A 
ATOM     13  F1  <0> A   1     -23.603   1.396  51.020  0.00  0.00    -0.137 F 
ENDBRANCH   5   7
BRANCH   3  14
ATOM     14  C22 <0> A   1     -24.706  -7.177  50.953  0.00  0.00    -0.046 A 
ATOM     15  C23 <0> A   1     -24.150  -8.008  51.924  0.00  0.00    +0.023 A 
ATOM     16  C24 <0> A   1     -23.366  -9.079  51.546  0.00  0.00    +0.002 A 
ATOM     17  C25 <0> A   1     -23.131  -9.329  50.205  0.00  0.00    +0.011 A 
ATOM     18  C26 <0> A   1     -23.681  -8.508  49.237  0.00  0.00    -0.001 A 
ATOM     19  C27 <0> A   1     -24.471  -7.437  49.603  0.00  0.00    +0.054 A 
ENDBRANCH   3  14
BRANCH   1  21
ATOM     20  C1  <0> A   1     -29.896  -5.972  51.659  0.00  0.00    +0.033 C 
ATOM     21  C2  <0> A   1     -29.008  -5.386  52.758  0.00  0.00    +0.030 C 
ATOM     22  C3  <0> A   1     -28.957  -6.353  53.943  0.00  0.00    +0.033 C 
ENDBRANCH   1  21
BRANCH   6  23
ATOM     23  C9  <0> A   1     -27.889  -2.706  52.462  0.00  0.00    -0.001 C 
ATOM     24  C10 <0> A   1     -28.800  -2.225  51.626  0.00  0.00    -0.031 C 
BRANCH  24  25
ATOM     25  C11 <0> A   1     -29.617  -1.019  52.014  0.00  0.00    +0.252 C 
BRANCH  25  26
ATOM     26  O4  <0> A   1     -30.997  -1.381  52.084  0.00  0.00    -0.537 OA
ATOM     27  H18 <0> A   1     -31.601  -0.691  51.777  0.00  0.00    +0.366 HD
ENDBRANCH  25  26
BRANCH  25  28
ATOM     28  C12 <0> A   1     -29.154  -0.509  53.379  0.00  0.00    -0.041 C 
BRANCH  28  29
ATOM     29  C13 <0> A   1     -28.538   0.883  53.222  0.00  0.00    +0.232 C 
BRANCH  29  30
ATOM     30  O3  <0> A   1     -27.137   0.757  52.969  0.00  0.00    -0.528 OA
ATOM     31  H17 <0> A   1     -26.914   0.656  52.033  0.00  0.00    +0.350 HD
ENDBRANCH  29  30
BRANCH  29  32
ATOM     32  C14 <0> A   1     -29.205   1.607  52.051  0.00  0.00    -0.102 C 
BRANCH  32  33
ATOM     33  C15 <0> A   1     -28.147   2.107  51.101  0.00  0.00    +0.491 C 
ATOM     34  O1  <0> A   1     -27.632   3.198  51.282  0.00  0.00    -0.681 OA
ATOM     35  O2  <0> A   1     -27.807   1.421  50.152  0.00  0.00    -0.713 OA
ENDBRANCH  32  33
ENDBRANCH  29  32
ENDBRANCH  28  29
ENDBRANCH  25  28
ENDBRANCH  24  25
ENDBRANCH   6  23
TORSDOF 11
ENDMDL
