REMARK VINA RESULT:      -7.3      8.747     12.538
REMARK  Name = CHEMBL84252
REMARK  13 active torsions:
REMARK  status: ('A' for Active; 'I' for Inactive)
REMARK    1  A    between atoms: C1_1  and  C2_2
REMARK    2  A    between atoms: C2_2  and  C3_3
REMARK    3  A    between atoms: C3_3  and  C4_4
REMARK    4  A    between atoms: C3_3  and  C5_5
REMARK    5  A    between atoms: C3_3  and  C6_6
REMARK    6  A    between atoms: C6_6  and  O2_8
REMARK    7  A    between atoms: O2_8  and  C7_9
REMARK    8  A    between atoms: C9_12  and  C25_37
REMARK    9  A    between atoms: C13_19  and  C18_26
REMARK   10  A    between atoms: C14_21  and  C17_25
REMARK   11  A    between atoms: C18_26  and  C19_27
REMARK   12  A    between atoms: C19_27  and  C20_28
REMARK   13  A    between atoms: C22_30  and  O6_36
REMARK                            x       y       z     vdW  Elec       q    Type
REMARK                         _______ _______ _______ _____ _____    ______ ____
ROOT
ATOM      1  C7  <0> A   1      -4.477   4.740  46.568  0.00  0.00    +0.184 C 
ATOM      2  C8  <0> A   1      -2.997   4.415  46.306  0.00  0.00    +0.028 C 
ATOM      3  C9  <0> A   1      -2.854   3.782  44.920  0.00  0.00    -0.030 C 
ATOM      4  C10 <0> A   1      -3.764   2.575  44.857  0.00  0.00    +0.366 C 
ATOM      5  O3  <0> A   1      -3.339   1.501  44.502  0.00  0.00    -0.443 OA
ATOM      6  C11 <0> A   1      -5.211   2.752  45.250  0.00  0.00    -0.020 C 
ATOM      7  C12 <0> A   1      -5.280   3.452  46.619  0.00  0.00    +0.023 C 
ATOM      8  C13 <0> A   1      -6.738   3.598  47.004  0.00  0.00    -0.002 C 
ATOM      9  C14 <0> A   1      -7.592   4.317  45.975  0.00  0.00    -0.015 C 
ATOM     10  C15 <0> A   1      -7.390   3.767  44.569  0.00  0.00    +0.023 C 
ATOM     11  C16 <0> A   1      -5.913   3.635  44.216  0.00  0.00    +0.028 C 
ATOM     12  C17 <0> A   1      -7.385   5.827  46.013  0.00  0.00    +0.016 C 
ATOM     13  C25 <0> A   1      -1.405   3.346  44.698  0.00  0.00    +0.050 C 
ENDROOT
BRANCH   1  14
ATOM     14  O2  <0> A   1      -4.542   5.463  47.798  0.00  0.00    -0.331 OA
BRANCH  14  15
ATOM     15  C6  <0> A   1      -4.019   6.698  47.807  0.00  0.00    +0.471 C 
ATOM     16  O1  <0> A   1      -4.312   7.486  46.938  0.00  0.00    -0.505 OA
BRANCH  15  17
ATOM     17  C3  <0> A   1      -3.064   7.105  48.901  0.00  0.00    -0.056 C 
ATOM     18  C4  <0> A   1      -1.802   6.245  48.821  0.00  0.00    +0.057 C 
ATOM     19  C5  <0> A   1      -3.733   6.904  50.262  0.00  0.00    +0.077 C 
BRANCH  17  21
ATOM     20  C1  <0> A   1      -2.194   9.138  50.063  0.00  0.00    +0.023 C 
ATOM     21  C2  <0> A   1      -2.690   8.578  48.729  0.00  0.00    +0.034 C 
ENDBRANCH  17  21
ENDBRANCH  15  17
ENDBRANCH  14  15
ENDBRANCH   1  14
BRANCH   8  22
ATOM     22  C18 <0> A   1      -6.921   4.220  48.386  0.00  0.00    +0.038 C 
BRANCH  22  23
ATOM     23  C19 <0> A   1      -7.802   3.307  49.243  0.00  0.00    +0.045 C 
BRANCH  23  24
ATOM     24  C20 <0> A   1      -7.062   2.951  50.533  0.00  0.00    +0.195 C 
ATOM     25  C21 <0> A   1      -6.336   4.190  51.066  0.00  0.00    +0.037 C 
ATOM     26  C22 <0> A   1      -5.563   3.820  52.335  0.00  0.00    +0.182 C 
ATOM     27  C23 <0> A   1      -4.551   2.718  51.995  0.00  0.00    +0.016 C 
ATOM     28  C24 <0> A   1      -5.287   1.599  51.290  0.00  0.00    +0.495 C 
ATOM     29  O4  <0> A   1      -5.147   0.450  51.636  0.00  0.00    -0.447 OA
ATOM     30  O5  <0> A   1      -6.103   1.921  50.265  0.00  0.00    -0.361 OA
BRANCH  26  31
ATOM     31  O6  <0> A   1      -6.472   3.347  53.330  0.00  0.00    -0.563 OA
ATOM     32  H37 <0> A   1      -6.071   3.214  54.199  0.00  0.00    +0.386 HD
ENDBRANCH  26  31
ENDBRANCH  23  24
ENDBRANCH  22  23
ENDBRANCH   8  22
TORSDOF 8
