REMARK VINA RESULT:      -7.9     11.981     17.978
REMARK  Name = CHEMBL253357
REMARK  15 active torsions:
REMARK  status: ('A' for Active; 'I' for Inactive)
REMARK    1  A    between atoms: C1_1  and  C2_2
REMARK    2  A    between atoms: C2_2  and  C3_3
REMARK    3  A    between atoms: C2_2  and  C4_4
REMARK    4  A    between atoms: C5_5  and  C25_30
REMARK    5  A    between atoms: N1_6  and  C19_23
REMARK    6  A    between atoms: C6_8  and  C7_9
REMARK    7  A    between atoms: C11_15  and  C13_17
REMARK    8  A    between atoms: C25_30  and  C26_31
REMARK    9  A    between atoms: C26_31  and  C27_32
REMARK   10  A    between atoms: C27_32  and  C28_34
REMARK   11  A    between atoms: C27_32  and  O5_42
REMARK   12  A    between atoms: C28_34  and  C29_35
REMARK   13  A    between atoms: C29_35  and  C30_37
REMARK   14  A    between atoms: C29_35  and  O4_41
REMARK   15  A    between atoms: C30_37  and  C31_38
REMARK                            x       y       z     vdW  Elec       q    Type
REMARK                         _______ _______ _______ _____ _____    ______ ____
ROOT
ATOM      1  C4  <0> A   1     -26.152  -3.855  51.829  0.00  0.00    -0.148 C 
ATOM      2  C5  <0> A   1     -26.104  -5.204  51.923  0.00  0.00    +0.037 C 
ATOM      3  N1  <0> A   1     -25.044  -5.619  51.181  0.00  0.00    -0.241 N 
ATOM      4  N2  <0> A   1     -24.455  -4.609  50.648  0.00  0.00    -0.258 NA
ATOM      5  C6  <0> A   1     -25.072  -3.493  50.988  0.00  0.00    +0.011 C 
ENDROOT
BRANCH   5   6
ATOM      6  C7  <0> A   1     -24.703  -2.126  50.574  0.00  0.00    +0.618 C 
ATOM      7  O1  <0> A   1     -25.345  -1.559  49.711  0.00  0.00    -0.519 OA
ATOM      8  N3  <0> A   1     -23.656  -1.504  51.152  0.00  0.00    -0.602 N 
ATOM      9  C8  <0> A   1     -22.800  -2.217  52.110  0.00  0.00    +0.267 C 
ATOM     10  C9  <0> A   1     -22.721  -1.401  53.404  0.00  0.00    +0.014 C 
ATOM     11  C10 <0> A   1     -22.254   0.020  53.078  0.00  0.00    +0.027 C 
ATOM     12  C11 <0> A   1     -23.265   0.690  52.145  0.00  0.00    +0.022 C 
ATOM     13  C12 <0> A   1     -23.346  -0.105  50.832  0.00  0.00    +0.292 C 
BRANCH  12  14
ATOM     14  C13 <0> A   1     -22.820   2.100  51.850  0.00  0.00    -0.075 A 
ATOM     15  C14 <0> A   1     -21.919   2.342  50.830  0.00  0.00    +0.008 A 
ATOM     16  C15 <0> A   1     -21.511   3.635  50.561  0.00  0.00    +0.004 A 
ATOM     17  C16 <0> A   1     -22.005   4.685  51.311  0.00  0.00    -0.003 A 
ATOM     18  C17 <0> A   1     -22.907   4.443  52.331  0.00  0.00    +0.003 A 
ATOM     19  C18 <0> A   1     -23.318   3.151  52.598  0.00  0.00    +0.008 A 
ENDBRANCH  12  14
ENDBRANCH   5   6
BRANCH   3  20
ATOM     20  C19 <0> A   1     -24.651  -6.954  51.020  0.00  0.00    +0.121 A 
ATOM     21  C20 <0> A   1     -24.944  -7.628  49.841  0.00  0.00    +0.067 A 
ATOM     22  C21 <0> A   1     -24.556  -8.944  49.684  0.00  0.00    +0.020 A 
ATOM     23  C22 <0> A   1     -23.874  -9.591  50.701  0.00  0.00    +0.111 A 
ATOM     24  C23 <0> A   1     -23.580  -8.921  51.877  0.00  0.00    +0.008 A 
ATOM     25  C24 <0> A   1     -23.961  -7.603  52.035  0.00  0.00    +0.071 A 
ATOM     26  F1  <0> A   1     -23.494 -10.878  50.546  0.00  0.00    -0.131 F 
ENDBRANCH   3  20
BRANCH   1  28
ATOM     27  C1  <0> A   1     -26.416  -1.746  53.107  0.00  0.00    +0.030 C 
ATOM     28  C2  <0> A   1     -27.151  -2.931  52.477  0.00  0.00    +0.062 C 
ATOM     29  C3  <0> A   1     -28.132  -2.419  51.421  0.00  0.00    +0.024 C 
ENDBRANCH   1  28
BRANCH   2  30
ATOM     30  C25 <0> A   1     -27.047  -6.081  52.705  0.00  0.00    +0.128 C 
BRANCH  30  31
ATOM     31  C26 <0> A   1     -28.385  -6.176  51.969  0.00  0.00    -0.008 C 
BRANCH  31  32
ATOM     32  C27 <0> A   1     -28.409  -7.447  51.118  0.00  0.00    +0.215 C 
BRANCH  32  33
ATOM     33  O5  <0> A   1     -29.367  -8.362  51.654  0.00  0.00    -0.540 OA
ATOM     34  H37 <0> A   1     -30.013  -8.679  51.007  0.00  0.00    +0.363 HD
ENDBRANCH  32  33
BRANCH  32  35
ATOM     35  C28 <0> A   1     -28.793  -7.091  49.680  0.00  0.00    -0.052 C 
BRANCH  35  36
ATOM     36  C29 <0> A   1     -28.344  -5.662  49.371  0.00  0.00    +0.231 C 
BRANCH  36  37
ATOM     37  O4  <0> A   1     -27.171  -5.696  48.556  0.00  0.00    -0.528 OA
ATOM     38  H36 <0> A   1     -26.697  -6.539  48.586  0.00  0.00    +0.350 HD
ENDBRANCH  36  37
BRANCH  36  39
ATOM     39  C30 <0> A   1     -29.461  -4.925  48.627  0.00  0.00    -0.103 C 
BRANCH  39  40
ATOM     40  C31 <0> A   1     -28.856  -3.930  47.672  0.00  0.00    +0.491 C 
ATOM     41  O2  <0> A   1     -29.097  -4.005  46.479  0.00  0.00    -0.681 OA
ATOM     42  O3  <0> A   1     -28.126  -3.047  48.091  0.00  0.00    -0.713 OA
ENDBRANCH  39  40
ENDBRANCH  36  39
ENDBRANCH  35  36
ENDBRANCH  32  35
ENDBRANCH  31  32
ENDBRANCH  30  31
ENDBRANCH   2  30
TORSDOF 13
