REMARK VINA RESULT:      -7.6      2.562      4.530
REMARK  Name = CHEMBL102168
REMARK  15 active torsions:
REMARK  status: ('A' for Active; 'I' for Inactive)
REMARK    1  A    between atoms: C1_1  and  C2_2
REMARK    2  A    between atoms: C2_2  and  C3_3
REMARK    3  A    between atoms: C2_2  and  C4_4
REMARK    4  A    between atoms: C6_6  and  S1_29
REMARK    5  A    between atoms: C8_8  and  C16_22
REMARK    6  A    between atoms: C9_9  and  O1_10
REMARK    7  A    between atoms: O1_10  and  C10_11
REMARK    8  A    between atoms: C10_11  and  C11_12
REMARK    9  A    between atoms: C11_12  and  C12_13
REMARK   10  A    between atoms: C11_12  and  O5_21
REMARK   11  A    between atoms: C12_13  and  C13_14
REMARK   12  A    between atoms: C13_14  and  C14_16
REMARK   13  A    between atoms: C13_14  and  O4_20
REMARK   14  A    between atoms: C14_16  and  C15_17
REMARK   15  A    between atoms: S1_29  and  C22_30
REMARK                            x       y       z     vdW  Elec       q    Type
REMARK                         _______ _______ _______ _____ _____    ______ ____
ROOT
ATOM      1  C4  <0> A   1     -15.907  10.302  47.723  0.00  0.00    -0.097 A 
ATOM      2  C5  <0> A   1     -16.616  10.055  48.884  0.00  0.00    +0.091 A 
ATOM      3  C6  <0> A   1     -16.901   8.749  49.265  0.00  0.00    -0.151 A 
ATOM      4  C7  <0> A   1     -16.474   7.687  48.481  0.00  0.00    +0.095 A 
ATOM      5  C8  <0> A   1     -15.760   7.932  47.311  0.00  0.00    -0.070 A 
ATOM      6  C9  <0> A   1     -15.481   9.249  46.931  0.00  0.00    +0.147 A 
ENDROOT
BRANCH   5   7
ATOM      7  C16 <0> A   1     -15.301   6.801  46.468  0.00  0.00    -0.063 A 
ATOM      8  C17 <0> A   1     -16.090   6.352  45.411  0.00  0.00    +0.083 A 
ATOM      9  C18 <0> A   1     -15.659   5.300  44.630  0.00  0.00    -0.012 A 
ATOM     10  C19 <0> A   1     -14.443   4.690  44.895  0.00  0.00    +0.107 A 
ATOM     11  C20 <0> A   1     -13.656   5.132  45.946  0.00  0.00    -0.018 A 
ATOM     12  C21 <0> A   1     -14.077   6.188  46.730  0.00  0.00    +0.055 A 
ATOM     13  F1  <0> A   1     -14.026   3.659  44.128  0.00  0.00    -0.137 F 
ENDBRANCH   5   7
BRANCH   1  15
ATOM     14  C1  <0> A   1     -16.825  12.600  47.579  0.00  0.00    +0.031 C 
ATOM     15  C2  <0> A   1     -15.602  11.721  47.316  0.00  0.00    +0.035 C 
ATOM     16  C3  <0> A   1     -14.415  12.240  48.130  0.00  0.00    +0.028 C 
ENDBRANCH   1  15
BRANCH   6  17
ATOM     17  O1  <0> A   1     -14.789   9.494  45.787  0.00  0.00    -0.317 OA
BRANCH  17  18
ATOM     18  C10 <0> A   1     -13.382   9.715  45.915  0.00  0.00    +0.156 C 
BRANCH  18  19
ATOM     19  C11 <0> A   1     -12.911  10.653  44.803  0.00  0.00    +0.226 C 
BRANCH  19  20
ATOM     20  O5  <0> A   1     -11.494  10.542  44.655  0.00  0.00    -0.530 OA
ATOM     21  H19 <0> A   1     -11.130   9.702  44.964  0.00  0.00    +0.363 HD
ENDBRANCH  19  20
BRANCH  19  22
ATOM     22  C12 <0> A   1     -13.592  10.269  43.487  0.00  0.00    -0.042 C 
BRANCH  22  23
ATOM     23  C13 <0> A   1     -13.232  11.291  42.408  0.00  0.00    +0.235 C 
BRANCH  23  24
ATOM     24  O4  <0> A   1     -12.056  10.862  41.718  0.00  0.00    -0.526 OA
ATOM     25  H18 <0> A   1     -11.281  11.419  41.877  0.00  0.00    +0.350 HD
ENDBRANCH  23  24
BRANCH  23  26
ATOM     26  C14 <0> A   1     -14.389  11.414  41.415  0.00  0.00    -0.101 C 
BRANCH  26  27
ATOM     27  C15 <0> A   1     -13.934  10.960  40.053  0.00  0.00    +0.491 C 
ATOM     28  O2  <0> A   1     -13.677  11.784  39.190  0.00  0.00    -0.680 OA
ATOM     29  O3  <0> A   1     -13.823   9.771  39.812  0.00  0.00    -0.712 OA
ENDBRANCH  26  27
ENDBRANCH  23  26
ENDBRANCH  22  23
ENDBRANCH  19  22
ENDBRANCH  18  19
ENDBRANCH  17  18
ENDBRANCH   6  17
BRANCH   3  30
ATOM     30  S1  <0> A   1     -17.804   8.442  50.746  0.00  0.00    +0.004 S 
BRANCH  30  31
ATOM     31  C22 <0> A   1     -18.646   6.927  50.426  0.00  0.00    -0.110 A 
ATOM     32  C23 <0> A   1     -18.204   5.749  51.015  0.00  0.00    +0.067 A 
ATOM     33  C24 <0> A   1     -18.866   4.563  50.761  0.00  0.00    +0.004 A 
ATOM     34  C25 <0> A   1     -19.968   4.549  49.924  0.00  0.00    +0.093 A 
ATOM     35  C26 <0> A   1     -20.411   5.722  49.338  0.00  0.00    +0.005 A 
ATOM     36  C27 <0> A   1     -19.756   6.912  49.592  0.00  0.00    +0.040 A 
ATOM     37  F2  <0> A   1     -20.614   3.387  49.679  0.00  0.00    -0.139 F 
ENDBRANCH  30  31
ENDBRANCH   3  30
TORSDOF 13
