REMARK VINA RESULT:      -9.1     15.847     19.291
REMARK  Name = CHEMBL332812
REMARK  11 active torsions:
REMARK  status: ('A' for Active; 'I' for Inactive)
REMARK    1  A    between atoms: C6_6  and  C11_11
REMARK    2  A    between atoms: C11_11  and  C12_12
REMARK    3  A    between atoms: N2_19  and  C26_34
REMARK    4  A    between atoms: C18_20  and  C19_21
REMARK    5  A    between atoms: C20_22  and  C21_23
REMARK    6  A    between atoms: C21_23  and  C22_25
REMARK    7  A    between atoms: C21_23  and  O4_33
REMARK    8  A    between atoms: C22_25  and  C23_26
REMARK    9  A    between atoms: C23_26  and  C24_28
REMARK   10  A    between atoms: C23_26  and  O3_32
REMARK   11  A    between atoms: C24_28  and  C25_29
REMARK                            x       y       z     vdW  Elec       q    Type
REMARK                         _______ _______ _______ _____ _____    ______ ____
ROOT
ATOM      1  C12 <0> A   1     -24.771  -1.505  51.073  0.00  0.00    +0.092 C 
ATOM      2  C13 <0> A   1     -23.289  -1.827  50.849  0.00  0.00    +0.030 C 
ATOM      3  C14 <0> A   1     -22.887  -3.031  51.703  0.00  0.00    +0.016 C 
ATOM      4  C15 <0> A   1     -23.513  -4.307  51.126  0.00  0.00    +0.104 C 
ATOM      5  C16 <0> A   1     -24.987  -4.055  50.918  0.00  0.00    -0.211 C 
ATOM      6  C17 <0> A   1     -25.564  -2.779  50.895  0.00  0.00    +0.089 C 
ATOM      7  N1  <0> A   1     -26.846  -2.905  50.700  0.00  0.00    -0.263 NA
ATOM      8  N2  <0> A   1     -27.153  -4.269  50.587  0.00  0.00    -0.330 N 
ATOM      9  C18 <0> A   1     -25.987  -4.973  50.724  0.00  0.00    +0.124 C 
ENDROOT
BRANCH   8  10
ATOM     10  C26 <0> A   1     -28.426  -4.814  50.372  0.00  0.00    +0.149 A 
ATOM     11  C27 <0> A   1     -28.918  -4.945  49.079  0.00  0.00    +0.048 A 
ATOM     12  C28 <0> A   1     -30.171  -5.483  48.870  0.00  0.00    +0.017 A 
ATOM     13  C29 <0> A   1     -30.940  -5.891  49.948  0.00  0.00    +0.097 A 
ATOM     14  C30 <0> A   1     -30.452  -5.761  51.237  0.00  0.00    +0.007 A 
ATOM     15  C31 <0> A   1     -29.196  -5.229  51.451  0.00  0.00    +0.056 A 
ATOM     16  F1  <0> A   1     -32.167  -6.417  49.740  0.00  0.00    -0.135 F 
ENDBRANCH   8  10
BRANCH   9  17
ATOM     17  C19 <0> A   1     -25.834  -6.437  50.673  0.00  0.00    +0.027 C 
ATOM     18  C20 <0> A   1     -25.787  -7.060  49.500  0.00  0.00    -0.028 C 
BRANCH  18  19
ATOM     19  C21 <0> A   1     -25.632  -8.557  49.448  0.00  0.00    +0.254 C 
BRANCH  19  20
ATOM     20  O4  <0> A   1     -26.074  -9.039  48.177  0.00  0.00    -0.536 OA
ATOM     21  H26 <0> A   1     -27.005  -8.856  47.990  0.00  0.00    +0.368 HD
ENDBRANCH  19  20
BRANCH  19  22
ATOM     22  C22 <0> A   1     -24.160  -8.925  49.649  0.00  0.00    -0.040 C 
BRANCH  22  23
ATOM     23  C23 <0> A   1     -24.063 -10.310  50.290  0.00  0.00    +0.232 C 
BRANCH  23  24
ATOM     24  O3  <0> A   1     -25.355 -10.715  50.749  0.00  0.00    -0.528 OA
ATOM     25  H25 <0> A   1     -25.772 -11.395  50.204  0.00  0.00    +0.351 HD
ENDBRANCH  23  24
BRANCH  23  26
ATOM     26  C24 <0> A   1     -23.552 -11.316  49.257  0.00  0.00    -0.102 C 
BRANCH  26  27
ATOM     27  C25 <0> A   1     -24.679 -12.229  48.844  0.00  0.00    +0.491 C 
ATOM     28  O1  <0> A   1     -25.389 -11.932  47.899  0.00  0.00    -0.681 OA
ATOM     29  O2  <0> A   1     -24.881 -13.263  49.458  0.00  0.00    -0.713 OA
ENDBRANCH  26  27
ENDBRANCH  23  26
ENDBRANCH  22  23
ENDBRANCH  19  22
ENDBRANCH  18  19
ENDBRANCH   9  17
BRANCH   1  30
ATOM     30  C11 <0> A   1     -25.233  -0.463  50.052  0.00  0.00    +0.081 C 
BRANCH  30  36
ATOM     31  C1  <0> A   1     -29.550   3.599  52.615  0.00  0.00    -0.002 A 
ATOM     32  C2  <0> A   1     -30.218   2.622  51.877  0.00  0.00    -0.004 A 
ATOM     33  C3  <0> A   1     -29.531   1.641  51.233  0.00  0.00    +0.017 A 
ATOM     34  C4  <0> A   1     -28.127   1.607  51.309  0.00  0.00    -0.055 A 
ATOM     35  C5  <0> A   1     -27.385   0.609  50.656  0.00  0.00    +0.015 A 
ATOM     36  C6  <0> A   1     -26.027   0.609  50.752  0.00  0.00    -0.073 A 
ATOM     37  C7  <0> A   1     -25.359   1.585  51.490  0.00  0.00    +0.066 A 
ATOM     38  C8  <0> A   1     -26.046   2.568  52.135  0.00  0.00    +0.001 A 
ATOM     39  C9  <0> A   1     -27.449   2.601  52.058  0.00  0.00    -0.047 A 
ATOM     40  C10 <0> A   1     -28.193   3.599  52.711  0.00  0.00    +0.015 A 
ENDBRANCH  30  36
ENDBRANCH   1  30
TORSDOF 11
