REMARK VINA RESULT:      -8.0     14.848     16.821
REMARK  Name = CHEMBL430951
REMARK  6 active torsions:
REMARK  status: ('A' for Active; 'I' for Inactive)
REMARK    1  A    between atoms: C6_6  and  C7_7
REMARK    2  A    between atoms: C7_7  and  O1_8
REMARK    3  A    between atoms: O1_8  and  C8_9
REMARK    4  A    between atoms: C13_14  and  C14_15
REMARK    5  A    between atoms: C15_16  and  C16_17
REMARK    6  A    between atoms: C18_19  and  O4_25
REMARK                            x       y       z     vdW  Elec       q    Type
REMARK                         _______ _______ _______ _____ _____    ______ ____
ROOT
ATOM      1  C8  <0> A   1     -12.899   8.296  42.385  0.00  0.00    +0.169 A 
ATOM      2  C9  <0> A   1     -12.584   7.928  41.087  0.00  0.00    -0.051 A 
ATOM      3  C10 <0> A   1     -12.831   8.797  40.040  0.00  0.00    +0.016 A 
ATOM      4  C11 <0> A   1     -13.394  10.039  40.280  0.00  0.00    +0.012 A 
ATOM      5  C12 <0> A   1     -13.714  10.420  41.568  0.00  0.00    +0.016 A 
ATOM      6  C13 <0> A   1     -13.473   9.548  42.631  0.00  0.00    -0.076 A 
ATOM      7 Cl1  <0> A   1     -14.418  11.979  41.864  0.00  0.00    -0.037 Cl
ATOM      8 Cl2  <0> A   1     -12.433   8.328  38.416  0.00  0.00    -0.048 Cl
ENDROOT
BRANCH   6   9
ATOM      9  C14 <0> A   1     -13.819   9.948  44.011  0.00  0.00    +0.056 C 
ATOM     10  C15 <0> A   1     -12.904  10.514  44.786  0.00  0.00    -0.010 C 
BRANCH  10  11
ATOM     11  C16 <0> A   1     -13.258  10.922  46.194  0.00  0.00    +0.243 C 
ATOM     12  C17 <0> A   1     -14.779  10.897  46.365  0.00  0.00    +0.051 C 
ATOM     13  C18 <0> A   1     -15.137  11.352  47.785  0.00  0.00    +0.186 C 
ATOM     14  C19 <0> A   1     -14.600  12.773  48.000  0.00  0.00    +0.023 C 
ATOM     15  C20 <0> A   1     -13.135  12.789  47.625  0.00  0.00    +0.498 C 
ATOM     16  O2  <0> A   1     -12.310  13.273  48.363  0.00  0.00    -0.451 OA
ATOM     17  O3  <0> A   1     -12.775  12.246  46.443  0.00  0.00    -0.367 OA
BRANCH  13  18
ATOM     18  O4  <0> A   1     -14.545  10.464  48.735  0.00  0.00    -0.564 OA
ATOM     19  H17 <0> A   1     -14.232  10.902  49.539  0.00  0.00    +0.387 HD
ENDBRANCH  13  18
ENDBRANCH  10  11
ENDBRANCH   6   9
BRANCH   1  20
ATOM     20  O1  <0> A   1     -12.656   7.442  43.414  0.00  0.00    -0.290 OA
BRANCH  20  21
ATOM     21  C7  <0> A   1     -13.339   6.188  43.390  0.00  0.00    +0.256 C 
BRANCH  21  27
ATOM     22  C1  <0> A   1     -15.743   5.705  43.889  0.00  0.00    +0.074 A 
ATOM     23  C2  <0> A   1     -16.847   5.765  44.718  0.00  0.00    -0.016 A 
ATOM     24  C3  <0> A   1     -16.748   6.373  45.959  0.00  0.00    +0.113 A 
ATOM     25  C4  <0> A   1     -15.544   6.922  46.365  0.00  0.00    -0.017 A 
ATOM     26  C5  <0> A   1     -14.442   6.861  45.534  0.00  0.00    +0.073 A 
ATOM     27  C6  <0> A   1     -14.542   6.253  44.296  0.00  0.00    -0.111 A 
ATOM     28  F1  <0> A   1     -17.827   6.433  46.771  0.00  0.00    -0.136 F 
ENDBRANCH  21  27
ENDBRANCH  20  21
ENDBRANCH   1  20
TORSDOF 6
