REMARK VINA RESULT:      -7.5      4.212      7.406
REMARK  Name = CHEMBL488821
REMARK  16 active torsions:
REMARK  status: ('A' for Active; 'I' for Inactive)
REMARK    1  A    between atoms: C1_1  and  C2_2
REMARK    2  A    between atoms: C4_5  and  C6_8
REMARK    3  A    between atoms: C6_8  and  N3_9
REMARK    4  A    between atoms: C7_10  and  C8_12
REMARK    5  A    between atoms: C9_13  and  C26_38
REMARK    6  A    between atoms: C10_14  and  C20_31
REMARK    7  A    between atoms: C11_15  and  C13_18
REMARK    8  A    between atoms: N4_16  and  C12_17
REMARK    9  A    between atoms: C13_18  and  C14_19
REMARK   10  A    between atoms: C14_19  and  C15_20
REMARK   11  A    between atoms: C15_20  and  C16_22
REMARK   12  A    between atoms: C15_20  and  O5_30
REMARK   13  A    between atoms: C16_22  and  C17_23
REMARK   14  A    between atoms: C17_23  and  C18_25
REMARK   15  A    between atoms: C17_23  and  O4_29
REMARK   16  A    between atoms: C18_25  and  C19_26
REMARK                            x       y       z     vdW  Elec       q    Type
REMARK                         _______ _______ _______ _____ _____    ______ ____
ROOT
ATOM      1  C8  <0> A   1     -11.214   7.395  47.443  0.00  0.00    -0.035 C 
ATOM      2  C9  <0> A   1     -12.357   8.032  47.913  0.00  0.00    -0.055 C 
ATOM      3  C10 <0> A   1     -12.710   9.002  46.940  0.00  0.00    -0.121 C 
ATOM      4  C11 <0> A   1     -11.793   8.926  45.934  0.00  0.00    +0.073 C 
ATOM      5  N4  <0> A   1     -10.887   7.965  46.234  0.00  0.00    -0.411 N 
ATOM      6  C12 <0> A   1      -9.742   7.589  45.400  0.00  0.00    +0.326 C 
ENDROOT
BRANCH   3   7
ATOM      7  C20 <0> A   1     -13.866   9.930  47.007  0.00  0.00    -0.011 A 
ATOM      8  C21 <0> A   1     -13.669  11.270  47.332  0.00  0.00    +0.053 A 
ATOM      9  C22 <0> A   1     -14.747  12.129  47.393  0.00  0.00    -0.013 A 
ATOM     10  C23 <0> A   1     -16.024  11.660  47.130  0.00  0.00    +0.096 A 
ATOM     11  C24 <0> A   1     -16.225  10.329  46.805  0.00  0.00    -0.020 A 
ATOM     12  C25 <0> A   1     -15.152   9.463  46.737  0.00  0.00    +0.055 A 
ATOM     13  F1  <0> A   1     -17.078  12.505  47.191  0.00  0.00    -0.142 F 
ENDBRANCH   3   7
BRANCH   2  14
ATOM     14  C26 <0> A   1     -13.066   7.752  49.181  0.00  0.00    -0.011 A 
ATOM     15  C27 <0> A   1     -14.091   6.806  49.217  0.00  0.00    +0.028 A 
ATOM     16  C28 <0> A   1     -14.748   6.549  50.402  0.00  0.00    +0.004 A 
ATOM     17  C29 <0> A   1     -14.393   7.227  51.555  0.00  0.00    -0.001 A 
ATOM     18  C30 <0> A   1     -13.378   8.167  51.526  0.00  0.00    -0.000 A 
ATOM     19  C31 <0> A   1     -12.709   8.428  50.348  0.00  0.00    +0.007 A 
ENDBRANCH   2  14
BRANCH   1  21
ATOM     20  N3  <0> A   1     -10.226   5.169  47.459  0.00  0.00    -0.716 N 
ATOM     21  C7  <0> A   1     -10.487   6.317  48.115  0.00  0.00    +0.602 C 
ATOM     22  O1  <0> A   1     -10.115   6.459  49.266  0.00  0.00    -0.514 OA
ATOM     23  H10 <0> A   1     -10.587   5.025  46.570  0.00  0.00    +0.404 HD
BRANCH  20  24
ATOM     24  C6  <0> A   1      -9.398   4.137  48.089  0.00  0.00    +0.363 C 
BRANCH  24  29
ATOM     25  C1  <0> A   1      -4.965   3.002  44.710  0.00  0.00    +0.146 C 
ATOM     26  C2  <0> A   1      -6.140   3.316  45.600  0.00  0.00    +0.088 A 
ATOM     27  C3  <0> A   1      -6.716   2.316  46.364  0.00  0.00    +0.226 A 
ATOM     28  N1  <0> A   1      -7.745   2.592  47.146  0.00  0.00    -0.418 NA
ATOM     29  C4  <0> A   1      -8.225   3.822  47.198  0.00  0.00    +0.046 A 
ATOM     30  C5  <0> A   1      -7.648   4.822  46.435  0.00  0.00    +0.252 A 
ATOM     31  N2  <0> A   1      -6.616   4.547  45.656  0.00  0.00    -0.438 NA
ENDBRANCH  24  29
ENDBRANCH  20  24
ENDBRANCH   1  21
BRANCH   4  32
ATOM     32  C13 <0> A   1     -11.786   9.779  44.693  0.00  0.00    +0.120 C 
BRANCH  32  33
ATOM     33  C14 <0> A   1     -12.784   9.214  43.680  0.00  0.00    -0.009 C 
BRANCH  33  34
ATOM     34  C15 <0> A   1     -12.094   8.150  42.823  0.00  0.00    +0.213 C 
BRANCH  34  35
ATOM     35  O5  <0> A   1     -12.486   6.851  43.270  0.00  0.00    -0.542 OA
ATOM     36  H23 <0> A   1     -13.163   6.860  43.959  0.00  0.00    +0.363 HD
ENDBRANCH  34  35
BRANCH  34  37
ATOM     37  C16 <0> A   1     -12.502   8.331  41.360  0.00  0.00    -0.051 C 
BRANCH  37  38
ATOM     38  C17 <0> A   1     -12.822   9.805  41.098  0.00  0.00    +0.230 C 
BRANCH  38  39
ATOM     39  O4  <0> A   1     -11.611  10.511  40.816  0.00  0.00    -0.528 OA
ATOM     40  H22 <0> A   1     -10.835  10.161  41.274  0.00  0.00    +0.349 HD
ENDBRANCH  38  39
BRANCH  38  41
ATOM     41  C18 <0> A   1     -13.769   9.917  39.901  0.00  0.00    -0.103 C 
BRANCH  41  42
ATOM     42  C19 <0> A   1     -13.997  11.370  39.575  0.00  0.00    +0.490 C 
ATOM     43  O2  <0> A   1     -14.829  12.010  40.196  0.00  0.00    -0.681 OA
ATOM     44  O3  <0> A   1     -13.351  11.905  38.691  0.00  0.00    -0.713 OA
ENDBRANCH  41  42
ENDBRANCH  38  41
ENDBRANCH  37  38
ENDBRANCH  34  37
ENDBRANCH  33  34
ENDBRANCH  32  33
ENDBRANCH   4  32
TORSDOF 14
