REMARK VINA RESULT:      -8.0      0.000      0.000
REMARK  Name = CHEMBL60218
REMARK  7 active torsions:
REMARK  status: ('A' for Active; 'I' for Inactive)
REMARK    1  A    between atoms: C1_1  and  N1_2
REMARK    2  A    between atoms: C2_3  and  C3_7
REMARK    3  A    between atoms: C3_7  and  C17_23
REMARK    4  A    between atoms: C4_8  and  C5_9
REMARK    5  A    between atoms: C4_8  and  C11_16
REMARK    6  A    between atoms: C18_24  and  C19_25
REMARK    7  A    between atoms: C21_27  and  O3_33
REMARK                            x       y       z     vdW  Elec       q    Type
REMARK                         _______ _______ _______ _____ _____    ______ ____
ROOT
ATOM      1  C3  <0> A   1     -26.313  -2.583  51.706  0.00  0.00    -0.025 C 
ATOM      2  C4  <0> A   1     -27.508  -2.168  51.144  0.00  0.00    +0.038 C 
ENDROOT
BRANCH   2   3
ATOM      3  C5  <0> A   1     -27.945  -0.766  51.290  0.00  0.00    -0.087 A 
ATOM      4  C6  <0> A   1     -27.516   0.203  50.378  0.00  0.00    +0.077 A 
ATOM      5  C7  <0> A   1     -27.928   1.510  50.521  0.00  0.00    -0.009 A 
ATOM      6  C8  <0> A   1     -28.766   1.867  51.567  0.00  0.00    +0.113 A 
ATOM      7  C9  <0> A   1     -29.193   0.910  52.476  0.00  0.00    -0.012 A 
ATOM      8  C10 <0> A   1     -28.793  -0.402  52.339  0.00  0.00    +0.070 A 
ATOM      9  F1  <0> A   1     -29.165   3.150  51.702  0.00  0.00    -0.134 F 
ENDBRANCH   2   3
BRANCH   2  10
ATOM     10  C11 <0> A   1     -28.346  -3.128  50.399  0.00  0.00    -0.071 A 
ATOM     11  C12 <0> A   1     -29.387  -3.800  51.045  0.00  0.00    +0.066 A 
ATOM     12  C13 <0> A   1     -30.166  -4.695  50.344  0.00  0.00    -0.010 A 
ATOM     13  C14 <0> A   1     -29.918  -4.931  49.000  0.00  0.00    +0.113 A 
ATOM     14  C15 <0> A   1     -28.886  -4.268  48.354  0.00  0.00    -0.008 A 
ATOM     15  C16 <0> A   1     -28.104  -3.365  49.042  0.00  0.00    +0.077 A 
ATOM     16  F2  <0> A   1     -30.684  -5.811  48.319  0.00  0.00    -0.135 F 
ENDBRANCH   2  10
BRANCH   1  19
ATOM     17  C1  <0> A   1     -24.009  -0.801  50.551  0.00  0.00    +0.384 C 
ATOM     18  N1  <0> A   1     -24.475  -0.852  51.938  0.00  0.00    -0.370 N 
ATOM     19  C2  <0> A   1     -25.477  -1.625  52.450  0.00  0.00    +0.289 C 
ATOM     20  N2  <0> A   1     -25.554  -1.349  53.737  0.00  0.00    -0.312 NA
ATOM     21  N3  <0> A   1     -24.678  -0.468  54.061  0.00  0.00    -0.039 NA
ATOM     22  N4  <0> A   1     -23.983  -0.119  53.033  0.00  0.00    -0.076 NA
ENDBRANCH   1  19
BRANCH   1  23
ATOM     23  C17 <0> A   1     -25.878  -3.980  51.561  0.00  0.00    +0.060 C 
ATOM     24  C18 <0> A   1     -24.985  -4.307  50.630  0.00  0.00    -0.013 C 
BRANCH  24  25
ATOM     25  C19 <0> A   1     -24.448  -5.713  50.561  0.00  0.00    +0.247 C 
ATOM     26  C20 <0> A   1     -25.369  -6.569  49.688  0.00  0.00    +0.049 C 
ATOM     27  C21 <0> A   1     -24.842  -8.007  49.653  0.00  0.00    +0.187 C 
ATOM     28  C22 <0> A   1     -24.806  -8.556  51.086  0.00  0.00    +0.025 C 
ATOM     29  C23 <0> A   1     -24.052  -7.572  51.953  0.00  0.00    +0.497 C 
ATOM     30  O1  <0> A   1     -23.169  -7.943  52.689  0.00  0.00    -0.446 OA
ATOM     31  O2  <0> A   1     -24.394  -6.270  51.879  0.00  0.00    -0.368 OA
BRANCH  27  32
ATOM     32  O3  <0> A   1     -23.525  -8.022  49.099  0.00  0.00    -0.563 OA
ATOM     33  H20 <0> A   1     -23.431  -8.595  48.325  0.00  0.00    +0.388 HD
ENDBRANCH  27  32
ENDBRANCH  24  25
ENDBRANCH   1  23
TORSDOF 6
