REMARK VINA RESULT:      -7.5      3.245      4.698
REMARK  Name = CHEMBL60218
REMARK  7 active torsions:
REMARK  status: ('A' for Active; 'I' for Inactive)
REMARK    1  A    between atoms: C1_1  and  N1_2
REMARK    2  A    between atoms: C2_3  and  C3_7
REMARK    3  A    between atoms: C3_7  and  C17_23
REMARK    4  A    between atoms: C4_8  and  C5_9
REMARK    5  A    between atoms: C4_8  and  C11_16
REMARK    6  A    between atoms: C18_24  and  C19_25
REMARK    7  A    between atoms: C21_27  and  O3_33
REMARK                            x       y       z     vdW  Elec       q    Type
REMARK                         _______ _______ _______ _____ _____    ______ ____
ROOT
ATOM      1  C3  <0> A   1     -27.621  -4.002  51.161  0.00  0.00    -0.025 C 
ATOM      2  C4  <0> A   1     -27.334  -2.726  51.616  0.00  0.00    +0.038 C 
ENDROOT
BRANCH   2   3
ATOM      3  C5  <0> A   1     -28.403  -1.893  52.199  0.00  0.00    -0.087 A 
ATOM      4  C6  <0> A   1     -29.054  -0.936  51.415  0.00  0.00    +0.077 A 
ATOM      5  C7  <0> A   1     -30.052  -0.161  51.966  0.00  0.00    -0.009 A 
ATOM      6  C8  <0> A   1     -30.410  -0.328  53.295  0.00  0.00    +0.113 A 
ATOM      7  C9  <0> A   1     -29.767  -1.275  54.077  0.00  0.00    -0.012 A 
ATOM      8  C10 <0> A   1     -28.773  -2.061  53.536  0.00  0.00    +0.070 A 
ATOM      9  F1  <0> A   1     -31.388   0.435  53.830  0.00  0.00    -0.134 F 
ENDBRANCH   2   3
BRANCH   2  10
ATOM     10  C11 <0> A   1     -25.959  -2.200  51.516  0.00  0.00    -0.071 A 
ATOM     11  C12 <0> A   1     -25.518  -1.610  50.328  0.00  0.00    +0.066 A 
ATOM     12  C13 <0> A   1     -24.232  -1.121  50.241  0.00  0.00    -0.010 A 
ATOM     13  C14 <0> A   1     -23.376  -1.213  51.328  0.00  0.00    +0.113 A 
ATOM     14  C15 <0> A   1     -23.808  -1.798  52.509  0.00  0.00    -0.008 A 
ATOM     15  C16 <0> A   1     -25.093  -2.285  52.611  0.00  0.00    +0.077 A 
ATOM     16  F2  <0> A   1     -22.117  -0.732  51.236  0.00  0.00    -0.135 F 
ENDBRANCH   2  10
BRANCH   1  19
ATOM     17  C1  <0> A   1     -28.786  -5.808  53.441  0.00  0.00    +0.384 C 
ATOM     18  N1  <0> A   1     -29.493  -5.314  52.257  0.00  0.00    -0.370 N 
ATOM     19  C2  <0> A   1     -28.994  -4.528  51.260  0.00  0.00    +0.289 C 
ATOM     20  N2  <0> A   1     -29.976  -4.328  50.402  0.00  0.00    -0.312 NA
ATOM     21  N3  <0> A   1     -31.042  -4.930  50.791  0.00  0.00    -0.039 NA
ATOM     22  N4  <0> A   1     -30.832  -5.551  51.900  0.00  0.00    -0.076 NA
ENDBRANCH   1  19
BRANCH   1  23
ATOM     23  C17 <0> A   1     -26.556  -4.833  50.579  0.00  0.00    +0.060 C 
ATOM     24  C18 <0> A   1     -25.874  -5.677  51.348  0.00  0.00    -0.013 C 
BRANCH  24  25
ATOM     25  C19 <0> A   1     -24.869  -6.615  50.731  0.00  0.00    +0.247 C 
ATOM     26  C20 <0> A   1     -25.481  -7.278  49.494  0.00  0.00    +0.049 C 
ATOM     27  C21 <0> A   1     -24.471  -8.261  48.894  0.00  0.00    +0.187 C 
ATOM     28  C22 <0> A   1     -24.125  -9.321  49.947  0.00  0.00    +0.025 C 
ATOM     29  C23 <0> A   1     -23.715  -8.611  51.219  0.00  0.00    +0.497 C 
ATOM     30  O1  <0> A   1     -22.703  -8.917  51.802  0.00  0.00    -0.446 OA
ATOM     31  O2  <0> A   1     -24.513  -7.626  51.681  0.00  0.00    -0.368 OA
BRANCH  27  32
ATOM     32  O3  <0> A   1     -23.288  -7.558  48.511  0.00  0.00    -0.563 OA
ATOM     33  H20 <0> A   1     -23.241  -6.654  48.851  0.00  0.00    +0.388 HD
ENDBRANCH  27  32
ENDBRANCH  24  25
ENDBRANCH   1  23
TORSDOF 6
