REMARK VINA RESULT:      -8.1      3.967      8.103
REMARK  Name = CHEMBL155610
REMARK  8 active torsions:
REMARK  status: ('A' for Active; 'I' for Inactive)
REMARK    1  A    between atoms: C1_1  and  C2_2
REMARK    2  A    between atoms: C2_2  and  C3_3
REMARK    3  A    between atoms: C2_2  and  C4_4
REMARK    4  A    between atoms: C5_5  and  C20_24
REMARK    5  A    between atoms: C6_6  and  C14_17
REMARK    6  A    between atoms: C7_8  and  C8_10
REMARK    7  A    between atoms: C21_25  and  C22_26
REMARK    8  A    between atoms: C24_28  and  O3_34
REMARK                            x       y       z     vdW  Elec       q    Type
REMARK                         _______ _______ _______ _____ _____    ______ ____
ROOT
ATOM      1  C4  <0> A   1     -27.821  -4.047  51.518  0.00  0.00    +0.211 A 
ATOM      2  C5  <0> A   1     -26.427  -4.019  51.638  0.00  0.00    -0.164 A 
ATOM      3  C6  <0> A   1     -25.793  -2.765  51.762  0.00  0.00    +0.245 A 
ATOM      4  N1  <0> A   1     -26.542  -1.667  51.760  0.00  0.00    -0.507 NA
ATOM      5  C7  <0> A   1     -27.859  -1.745  51.644  0.00  0.00    +0.375 A 
ATOM      6  N2  <0> A   1     -28.488  -2.908  51.520  0.00  0.00    -0.507 NA
ENDROOT
BRANCH   5   7
ATOM      7  C8  <0> A   1     -28.655  -0.495  51.645  0.00  0.00    -0.063 A 
ATOM      8  C9  <0> A   1     -29.991  -0.517  52.049  0.00  0.00    +0.109 A 
ATOM      9  C10 <0> A   1     -30.728   0.649  52.049  0.00  0.00    -0.022 A 
ATOM     10  C11 <0> A   1     -30.144   1.840  51.649  0.00  0.00    +0.123 A 
ATOM     11  C12 <0> A   1     -28.818   1.867  51.247  0.00  0.00    -0.022 A 
ATOM     12  C13 <0> A   1     -28.071   0.708  51.250  0.00  0.00    +0.108 A 
ATOM     13  F1  <0> A   1     -30.871   2.979  51.651  0.00  0.00    -0.134 F 
ENDBRANCH   5   7
BRANCH   3  14
ATOM     14  C14 <0> A   1     -24.321  -2.674  51.893  0.00  0.00    -0.079 A 
ATOM     15  C15 <0> A   1     -23.501  -2.977  50.807  0.00  0.00    +0.089 A 
ATOM     16  C16 <0> A   1     -22.131  -2.890  50.933  0.00  0.00    -0.001 A 
ATOM     17  C17 <0> A   1     -21.569  -2.502  52.139  0.00  0.00    +0.121 A 
ATOM     18  C18 <0> A   1     -22.379  -2.201  53.222  0.00  0.00    -0.021 A 
ATOM     19  C19 <0> A   1     -23.750  -2.279  53.103  0.00  0.00    +0.094 A 
ATOM     20  F2  <0> A   1     -20.225  -2.419  52.259  0.00  0.00    -0.135 F 
ENDBRANCH   3  14
BRANCH   1  22
ATOM     21  C1  <0> A   1     -29.172  -5.738  52.728  0.00  0.00    +0.046 C 
ATOM     22  C2  <0> A   1     -28.550  -5.359  51.382  0.00  0.00    +0.045 C 
ATOM     23  C3  <0> A   1     -29.652  -5.223  50.330  0.00  0.00    +0.047 C 
ENDBRANCH   1  22
BRANCH   2  24
ATOM     24  C20 <0> A   1     -25.641  -5.268  51.635  0.00  0.00    +0.048 C 
ATOM     25  C21 <0> A   1     -25.446  -5.928  50.500  0.00  0.00    +0.002 C 
BRANCH  25  26
ATOM     26  C22 <0> A   1     -24.643  -7.203  50.498  0.00  0.00    +0.230 C 
ATOM     27  C23 <0> A   1     -23.941  -7.368  51.848  0.00  0.00    +0.043 C 
ATOM     28  C24 <0> A   1     -23.160  -8.686  51.857  0.00  0.00    +0.179 C 
ATOM     29  C25 <0> A   1     -24.139  -9.845  51.621  0.00  0.00    +0.021 C 
ATOM     30  C26 <0> A   1     -24.949  -9.536  50.381  0.00  0.00    +0.492 C 
ATOM     31  O1  <0> A   1     -25.083 -10.359  49.507  0.00  0.00    -0.444 OA
ATOM     32  O2  <0> A   1     -25.516  -8.317  50.279  0.00  0.00    -0.358 OA
BRANCH  28  33
ATOM     33  O3  <0> A   1     -22.514  -8.851  53.121  0.00  0.00    -0.555 OA
ATOM     34  H24 <0> A   1     -23.029  -9.361  53.762  0.00  0.00    +0.387 HD
ENDBRANCH  28  33
ENDBRANCH  25  26
ENDBRANCH   2  24
TORSDOF 6
