REMARK  Name = CHEMBL503128
REMARK  17 active torsions:
REMARK  status: ('A' for Active; 'I' for Inactive)
REMARK    1  A    between atoms: C1_1  and  C2_2
REMARK    2  A    between atoms: C2_2  and  C3_3
REMARK    3  A    between atoms: C2_2  and  C4_4
REMARK    4  A    between atoms: C5_5  and  C20_29
REMARK    5  A    between atoms: C6_7  and  C14_22
REMARK    6  A    between atoms: N2_8  and  C7_9
REMARK    7  A    between atoms: C7_9  and  C8_10
REMARK    8  A    between atoms: C8_10  and  C9_11
REMARK    9  A    between atoms: C9_11  and  C10_13
REMARK   10  A    between atoms: C9_11  and  O4_21
REMARK   11  A    between atoms: C10_13  and  C11_14
REMARK   12  A    between atoms: C11_14  and  C12_16
REMARK   13  A    between atoms: C11_14  and  O3_20
REMARK   14  A    between atoms: C12_16  and  C13_17
REMARK   15  A    between atoms: N3_31  and  C21_32
REMARK   16  A    between atoms: C21_32  and  C22_33
REMARK   17  A    between atoms: C25_36  and  C28_39
REMARK                            x       y       z     vdW  Elec       q    Type
REMARK                         _______ _______ _______ _____ _____    ______ ____
ROOT
ATOM      1  C4  <0> A   1      -1.569  -0.849   0.089  0.00  0.00    +0.092 C 
ATOM      2  C5  <0> A   1      -2.708  -0.665   0.819  0.00  0.00    -0.064 C 
ATOM      3  N1  <0> A   1      -3.730  -1.232   0.145  0.00  0.00    -0.446 NA
ATOM      4  C6  <0> A   1      -3.271  -1.755  -0.966  0.00  0.00    +0.246 C 
ATOM      5  N2  <0> A   1      -1.924  -1.529  -1.034  0.00  0.00    -0.436 N 
ENDROOT
BRANCH   4   6
ATOM      6  C14 <0> A   1      -4.077  -2.468  -1.981  0.00  0.00    -0.023 A 
ATOM      7  C15 <0> A   1      -3.450  -3.259  -2.944  0.00  0.00    +0.046 A 
ATOM      8  C16 <0> A   1      -4.206  -3.922  -3.888  0.00  0.00    -0.001 A 
ATOM      9  C17 <0> A   1      -5.587  -3.804  -3.880  0.00  0.00    +0.109 A 
ATOM     10  C18 <0> A   1      -6.215  -3.019  -2.926  0.00  0.00    -0.010 A 
ATOM     11  C19 <0> A   1      -5.468  -2.356  -1.975  0.00  0.00    +0.094 A 
ATOM     12  F1  <0> A   1      -6.324  -4.455  -4.807  0.00  0.00    -0.136 F 
ENDBRANCH   4   6
BRANCH   2  13
ATOM     13  C20 <0> A   1      -2.804   0.030   2.115  0.00  0.00    +0.610 C 
ATOM     14  O5  <0> A   1      -1.795   0.411   2.677  0.00  0.00    -0.540 OA
ATOM     15  N3  <0> A   1      -4.010   0.242   2.679  0.00  0.00    -0.715 N 
ATOM     16  H24 <0> A   1      -4.814  -0.063   2.231  0.00  0.00    +0.410 HD
BRANCH  15  17
ATOM     17  C21 <0> A   1      -4.105   0.932   3.967  0.00  0.00    +0.318 C 
BRANCH  17  18
ATOM     18  C22 <0> A   1      -5.552   1.041   4.373  0.00  0.00    -0.106 A 
ATOM     19  C23 <0> A   1      -6.296   2.140   3.984  0.00  0.00    +0.032 A 
ATOM     20  C24 <0> A   1      -7.622   2.244   4.353  0.00  0.00    +0.015 A 
ATOM     21  C25 <0> A   1      -8.211   1.240   5.119  0.00  0.00    -0.038 A 
ATOM     22  C26 <0> A   1      -7.456   0.135   5.508  0.00  0.00    +0.015 A 
ATOM     23  C27 <0> A   1      -6.133   0.038   5.129  0.00  0.00    +0.033 A 
BRANCH  21  24
ATOM     24  C28 <0> A   1      -9.636   1.347   5.519  0.00  0.00    -0.047 A 
ATOM     25  C29 <0> A   1     -10.392   2.449   5.126  0.00  0.00    +0.016 A 
ATOM     26  C30 <0> A   1     -11.717   2.543   5.501  0.00  0.00    +0.006 A 
ATOM     27  C31 <0> A   1     -12.294   1.546   6.266  0.00  0.00    +0.004 A 
ATOM     28  C32 <0> A   1     -11.548   0.449   6.659  0.00  0.00    +0.007 A 
ATOM     29  C33 <0> A   1     -10.224   0.342   6.285  0.00  0.00    +0.016 A 
ENDBRANCH  21  24
ENDBRANCH  17  18
ENDBRANCH  15  17
ENDBRANCH   2  13
BRANCH   1  31
ATOM     30  C1  <0> A   1       0.775  -1.574   0.446  0.00  0.00    +0.032 C 
ATOM     31  C2  <0> A   1      -0.184  -0.382   0.454  0.00  0.00    +0.086 C 
ATOM     32  C3  <0> A   1       0.288   0.659  -0.563  0.00  0.00    +0.034 C 
ENDBRANCH   1  31
BRANCH   5  33
ATOM     33  C7  <0> A   1      -1.028  -1.944  -2.116  0.00  0.00    +0.304 C 
BRANCH  33  34
ATOM     34  C8  <0> A   1      -0.537  -3.369  -1.852  0.00  0.00    -0.015 C 
BRANCH  34  35
ATOM     35  C9  <0> A   1       0.411  -3.797  -2.974  0.00  0.00    +0.219 C 
BRANCH  35  36
ATOM     36  O4  <0> A   1       1.584  -2.981  -2.945  0.00  0.00    -0.538 OA
ATOM     37  H19 <0> A   1       2.079  -3.035  -2.116  0.00  0.00    +0.367 HD
ENDBRANCH  35  36
BRANCH  35  38
ATOM     38  C10 <0> A   1       0.804  -5.263  -2.778  0.00  0.00    -0.046 C 
BRANCH  38  39
ATOM     39  C11 <0> A   1       1.650  -5.727  -3.966  0.00  0.00    +0.232 C 
BRANCH  39  40
ATOM     40  O3  <0> A   1       2.883  -5.004  -3.983  0.00  0.00    -0.527 OA
ATOM     41  H18 <0> A   1       3.419  -5.121  -3.187  0.00  0.00    +0.351 HD
ENDBRANCH  39  40
BRANCH  39  42
ATOM     42  C12 <0> A   1       1.939  -7.224  -3.832  0.00  0.00    -0.102 C 
BRANCH  42  43
ATOM     43  C13 <0> A   1       2.667  -7.707  -5.060  0.00  0.00    +0.490 C 
ATOM     44  O1  <0> A   1       2.930  -6.926  -5.959  0.00  0.00    -0.681 OA
ATOM     45  O2  <0> A   1       2.992  -8.878  -5.155  0.00  0.00    -0.712 OA
ENDBRANCH  42  43
ENDBRANCH  39  42
ENDBRANCH  38  39
ENDBRANCH  35  38
ENDBRANCH  34  35
ENDBRANCH  33  34
ENDBRANCH   5  33
TORSDOF 15
