REMARK VINA RESULT:      -7.6      0.849      1.034
REMARK  Name = CHEMBL101512
REMARK  10 active torsions:
REMARK  status: ('A' for Active; 'I' for Inactive)
REMARK    1  A    between atoms: C5_5  and  O1_15
REMARK    2  A    between atoms: C6_6  and  C7_7
REMARK    3  A    between atoms: O1_15  and  C14_16
REMARK    4  A    between atoms: C14_16  and  C15_17
REMARK    5  A    between atoms: C15_17  and  C16_18
REMARK    6  A    between atoms: C15_17  and  O5_26
REMARK    7  A    between atoms: C16_18  and  C17_19
REMARK    8  A    between atoms: C17_19  and  C18_21
REMARK    9  A    between atoms: C17_19  and  O4_25
REMARK   10  A    between atoms: C18_21  and  C19_22
REMARK                            x       y       z     vdW  Elec       q    Type
REMARK                         _______ _______ _______ _____ _____    ______ ____
ROOT
ATOM      1  C1  <0> A   1     -14.821   9.096  47.044  0.00  0.00    +0.083 A 
ATOM      2  C2  <0> A   1     -15.221  10.415  46.960  0.00  0.00    -0.036 A 
ATOM      3  C3  <0> A   1     -14.808  11.203  45.898  0.00  0.00    +0.071 A 
ATOM      4  C4  <0> A   1     -13.993  10.674  44.912  0.00  0.00    -0.052 A 
ATOM      5  C5  <0> A   1     -13.585   9.352  44.984  0.00  0.00    +0.141 A 
ATOM      6  C6  <0> A   1     -13.999   8.553  46.056  0.00  0.00    -0.068 A 
ATOM      7 Cl1  <0> A   1     -13.483  11.669  43.584  0.00  0.00    -0.034 Cl
ATOM      8 Cl2  <0> A   1     -16.243  11.089  48.189  0.00  0.00    -0.050 Cl
ENDROOT
BRANCH   6   9
ATOM      9  C7  <0> A   1     -13.568   7.142  46.142  0.00  0.00    +0.082 C 
ATOM     10  C8  <0> A   1     -14.432   6.166  45.885  0.00  0.00    -0.127 C 
ATOM     11  C9  <0> A   1     -15.818   6.476  45.363  0.00  0.00    +0.074 C 
ATOM     12  C10 <0> A   1     -16.069   5.626  44.112  0.00  0.00    +0.018 C 
ATOM     13  C11 <0> A   1     -15.835   4.151  44.445  0.00  0.00    +0.006 C 
ATOM     14  C12 <0> A   1     -14.371   3.932  44.828  0.00  0.00    +0.018 C 
ATOM     15  C13 <0> A   1     -14.054   4.718  46.100  0.00  0.00    +0.073 C 
ATOM     16  F1  <0> A   1     -12.294   6.844  46.481  0.00  0.00    -0.131 F 
ENDBRANCH   6   9
BRANCH   5  17
ATOM     17  O1  <0> A   1     -12.785   8.832  44.016  0.00  0.00    -0.307 OA
BRANCH  17  18
ATOM     18  C14 <0> A   1     -13.431   8.239  42.889  0.00  0.00    +0.160 C 
BRANCH  18  19
ATOM     19  C15 <0> A   1     -12.384   7.877  41.832  0.00  0.00    +0.229 C 
BRANCH  19  20
ATOM     20  O5  <0> A   1     -11.933   6.539  42.048  0.00  0.00    -0.530 OA
ATOM     21  H22 <0> A   1     -11.027   6.376  41.750  0.00  0.00    +0.364 HD
ENDBRANCH  19  20
BRANCH  19  22
ATOM     22  C16 <0> A   1     -13.006   7.987  40.439  0.00  0.00    -0.040 C 
BRANCH  22  23
ATOM     23  C17 <0> A   1     -12.336   9.126  39.669  0.00  0.00    +0.235 C 
BRANCH  23  24
ATOM     24  O4  <0> A   1     -12.790   9.119  38.315  0.00  0.00    -0.527 OA
ATOM     25  H21 <0> A   1     -12.150   8.756  37.688  0.00  0.00    +0.351 HD
ENDBRANCH  23  24
BRANCH  23  26
ATOM     26  C18 <0> A   1     -12.696  10.463  40.321  0.00  0.00    -0.100 C 
BRANCH  26  27
ATOM     27  C19 <0> A   1     -13.135  11.437  39.258  0.00  0.00    +0.491 C 
ATOM     28  O2  <0> A   1     -12.303  12.083  38.643  0.00  0.00    -0.680 OA
ATOM     29  O3  <0> A   1     -14.321  11.580  39.013  0.00  0.00    -0.713 OA
ENDBRANCH  26  27
ENDBRANCH  23  26
ENDBRANCH  22  23
ENDBRANCH  19  22
ENDBRANCH  18  19
ENDBRANCH  17  18
ENDBRANCH   5  17
TORSDOF 10
