REMARK VINA RESULT:      -8.0      0.000      0.000
REMARK  Name = CHEMBL358623
REMARK  15 active torsions:
REMARK  status: ('A' for Active; 'I' for Inactive)
REMARK    1  A    between atoms: C1_1  and  C2_2
REMARK    2  A    between atoms: C2_2  and  C3_3
REMARK    3  A    between atoms: C2_2  and  C4_4
REMARK    4  A    between atoms: C5_5  and  C18_20
REMARK    5  A    between atoms: C6_6  and  C12_13
REMARK    6  A    between atoms: C7_7  and  C8_9
REMARK    7  A    between atoms: C9_10  and  C10_11
REMARK    8  A    between atoms: C9_10  and  C11_12
REMARK    9  A    between atoms: C19_21  and  C20_22
REMARK   10  A    between atoms: C20_22  and  C21_24
REMARK   11  A    between atoms: C20_22  and  O4_32
REMARK   12  A    between atoms: C21_24  and  C22_25
REMARK   13  A    between atoms: C22_25  and  C23_27
REMARK   14  A    between atoms: C22_25  and  O3_31
REMARK   15  A    between atoms: C23_27  and  C24_28
REMARK                            x       y       z     vdW  Elec       q    Type
REMARK                         _______ _______ _______ _____ _____    ______ ____
ROOT
ATOM      1  C4  <0> A   1     -15.077   6.389  45.390  0.00  0.00    -0.153 C 
ATOM      2  C5  <0> A   1     -14.314   7.515  45.260  0.00  0.00    -0.071 C 
ATOM      3  C6  <0> A   1     -14.628   8.643  46.101  0.00  0.00    -0.072 C 
ATOM      4  C7  <0> A   1     -15.689   8.498  46.986  0.00  0.00    -0.108 C 
ATOM      5  S1  <0> A   1     -16.249   6.837  46.657  0.00  0.00    +0.076 S 
ENDROOT
BRANCH   3   6
ATOM      6  C12 <0> A   1     -13.852   9.901  46.026  0.00  0.00    -0.030 A 
ATOM      7  C13 <0> A   1     -12.764  10.105  46.874  0.00  0.00    +0.064 A 
ATOM      8  C14 <0> A   1     -12.045  11.279  46.800  0.00  0.00    -0.013 A 
ATOM      9  C15 <0> A   1     -12.402  12.256  45.884  0.00  0.00    +0.099 A 
ATOM     10  C16 <0> A   1     -13.482  12.059  45.039  0.00  0.00    -0.016 A 
ATOM     11  C17 <0> A   1     -14.205  10.886  45.101  0.00  0.00    +0.049 A 
ATOM     12  F1  <0> A   1     -11.694  13.405  45.815  0.00  0.00    -0.140 F 
ENDBRANCH   3   6
BRANCH   4  13
ATOM     13  C8  <0> A   1     -16.222   9.471  47.947  0.00  0.00    +0.043 C 
ATOM     14  C9  <0> A   1     -15.775   9.482  49.202  0.00  0.00    -0.109 C 
ATOM     15  C10 <0> A   1     -14.723   8.493  49.634  0.00  0.00    +0.096 C 
ATOM     16  C11 <0> A   1     -16.323  10.481  50.188  0.00  0.00    +0.090 C 
ENDBRANCH   4  13
BRANCH   1  18
ATOM     17  C1  <0> A   1     -14.164   4.085  45.480  0.00  0.00    +0.032 C 
ATOM     18  C2  <0> A   1     -14.961   5.086  44.641  0.00  0.00    +0.081 C 
ATOM     19  C3  <0> A   1     -16.359   4.527  44.370  0.00  0.00    +0.033 C 
ENDBRANCH   1  18
BRANCH   2  20
ATOM     20  C18 <0> A   1     -13.203   7.574  44.289  0.00  0.00    +0.014 C 
ATOM     21  C19 <0> A   1     -13.459   7.548  42.987  0.00  0.00    -0.046 C 
BRANCH  21  22
ATOM     22  C20 <0> A   1     -12.325   7.609  41.996  0.00  0.00    +0.249 C 
BRANCH  22  23
ATOM     23  O4  <0> A   1     -11.587   6.386  42.040  0.00  0.00    -0.538 OA
ATOM     24  H28 <0> A   1     -11.772   5.789  41.302  0.00  0.00    +0.364 HD
ENDBRANCH  22  23
BRANCH  22  25
ATOM     25  C21 <0> A   1     -12.890   7.815  40.588  0.00  0.00    -0.042 C 
BRANCH  25  26
ATOM     26  C22 <0> A   1     -12.277   9.075  39.973  0.00  0.00    +0.230 C 
BRANCH  26  27
ATOM     27  O3  <0> A   1     -12.436   9.037  38.554  0.00  0.00    -0.528 OA
ATOM     28  H27 <0> A   1     -11.612   9.161  38.062  0.00  0.00    +0.350 HD
ENDBRANCH  26  27
BRANCH  26  29
ATOM     29  C23 <0> A   1     -12.985  10.311  40.533  0.00  0.00    -0.102 C 
BRANCH  29  30
ATOM     30  C24 <0> A   1     -13.300  11.262  39.407  0.00  0.00    +0.491 C 
ATOM     31  O1  <0> A   1     -12.410  11.920  38.897  0.00  0.00    -0.681 OA
ATOM     32  O2  <0> A   1     -14.446  11.373  39.006  0.00  0.00    -0.713 OA
ENDBRANCH  29  30
ENDBRANCH  26  29
ENDBRANCH  25  26
ENDBRANCH  22  25
ENDBRANCH  21  22
ENDBRANCH   2  20
TORSDOF 11
