REMARK  Name = CHEMBL50566
REMARK  8 active torsions:
REMARK  status: ('A' for Active; 'I' for Inactive)
REMARK    1  A    between atoms: C1_1  and  C2_2
REMARK    2  A    between atoms: C4_4  and  C22_27
REMARK    3  A    between atoms: C5_5  and  C15_16
REMARK    4  A    between atoms: C6_6  and  C8_8
REMARK    5  A    between atoms: C12_12  and  C14_14
REMARK    6  A    between atoms: C15_16  and  C16_17
REMARK    7  A    between atoms: C16_17  and  C17_18
REMARK    8  A    between atoms: C19_20  and  O3_26
REMARK                            x       y       z     vdW  Elec       q    Type
REMARK                         _______ _______ _______ _____ _____    ______ ____
ROOT
ATOM      1  C1  <0> A   1      -0.540   1.448   0.000  0.00  0.00    +0.089 C 
ATOM      2  C2  <0> A   1      -0.248  -0.030  -0.003  0.00  0.00    -0.083 A 
ATOM      3  C3  <0> A   1       0.008  -0.681  -1.197  0.00  0.00    +0.007 A 
ATOM      4  C4  <0> A   1       0.277  -2.038  -1.207  0.00  0.00    -0.074 A 
ATOM      5  C5  <0> A   1       0.291  -2.750  -0.025  0.00  0.00    -0.072 A 
ATOM      6  C6  <0> A   1       0.034  -2.100   1.181  0.00  0.00    -0.041 A 
ATOM      7  C7  <0> A   1      -0.231  -0.732   1.186  0.00  0.00    +0.014 A 
ATOM      8  C22 <0> A   1       0.554  -2.740  -2.511  0.00  0.00    +0.091 C 
ENDROOT
BRANCH   6   9
ATOM      9  C8  <0> A   1       0.048  -2.860   2.455  0.00  0.00    -0.047 A 
ATOM     10  C9  <0> A   1       0.896  -2.473   3.490  0.00  0.00    +0.049 A 
ATOM     11  C10 <0> A   1       0.906  -3.183   4.673  0.00  0.00    -0.009 A 
ATOM     12  C11 <0> A   1       0.074  -4.280   4.832  0.00  0.00    +0.097 A 
ATOM     13  C12 <0> A   1      -0.771  -4.668   3.805  0.00  0.00    -0.114 A 
ATOM     14  C13 <0> A   1      -0.791  -3.960   2.621  0.00  0.00    +0.055 A 
ATOM     15  C14 <0> A   1      -1.673  -5.862   3.983  0.00  0.00    +0.104 C 
ATOM     16  F1  <0> A   1       0.086  -4.973   5.992  0.00  0.00    -0.137 F 
ENDBRANCH   6   9
BRANCH   5  17
ATOM     17  C15 <0> A   1       0.584  -4.228  -0.037  0.00  0.00    +0.073 C 
BRANCH  17  18
ATOM     18  C16 <0> A   1       2.098  -4.449  -0.022  0.00  0.00    +0.059 C 
BRANCH  18  19
ATOM     19  C17 <0> A   1       2.394  -5.950  -0.035  0.00  0.00    +0.196 C 
ATOM     20  C18 <0> A   1       3.903  -6.174   0.100  0.00  0.00    +0.040 C 
ATOM     21  C19 <0> A   1       4.200  -7.676   0.045  0.00  0.00    +0.184 C 
ATOM     22  C20 <0> A   1       3.699  -8.232  -1.294  0.00  0.00    +0.021 C 
ATOM     23  C21 <0> A   1       2.256  -7.812  -1.471  0.00  0.00    +0.496 C 
ATOM     24  O1  <0> A   1       1.409  -8.616  -1.784  0.00  0.00    -0.453 OA
ATOM     25  O2  <0> A   1       1.942  -6.516  -1.270  0.00  0.00    -0.367 OA
BRANCH  21  26
ATOM     26  O3  <0> A   1       3.531  -8.336   1.121  0.00  0.00    -0.563 OA
ATOM     27  H22 <0> A   1       3.676  -9.291   1.147  0.00  0.00    +0.386 HD
ENDBRANCH  21  26
ENDBRANCH  18  19
ENDBRANCH  17  18
ENDBRANCH   5  17
TORSDOF 5
