REMARK VINA RESULT:      -7.6      1.890      2.149
REMARK  Name = CHEMBL102168
REMARK  15 active torsions:
REMARK  status: ('A' for Active; 'I' for Inactive)
REMARK    1  A    between atoms: C1_1  and  C2_2
REMARK    2  A    between atoms: C2_2  and  C3_3
REMARK    3  A    between atoms: C2_2  and  C4_4
REMARK    4  A    between atoms: C6_6  and  S1_29
REMARK    5  A    between atoms: C8_8  and  C16_22
REMARK    6  A    between atoms: C9_9  and  O1_10
REMARK    7  A    between atoms: O1_10  and  C10_11
REMARK    8  A    between atoms: C10_11  and  C11_12
REMARK    9  A    between atoms: C11_12  and  C12_13
REMARK   10  A    between atoms: C11_12  and  O5_21
REMARK   11  A    between atoms: C12_13  and  C13_14
REMARK   12  A    between atoms: C13_14  and  C14_16
REMARK   13  A    between atoms: C13_14  and  O4_20
REMARK   14  A    between atoms: C14_16  and  C15_17
REMARK   15  A    between atoms: S1_29  and  C22_30
REMARK                            x       y       z     vdW  Elec       q    Type
REMARK                         _______ _______ _______ _____ _____    ______ ____
ROOT
ATOM      1  C4  <0> A   1     -15.270   6.682  45.766  0.00  0.00    -0.097 A 
ATOM      2  C5  <0> A   1     -16.513   6.330  46.258  0.00  0.00    +0.091 A 
ATOM      3  C6  <0> A   1     -17.203   7.195  47.098  0.00  0.00    -0.151 A 
ATOM      4  C7  <0> A   1     -16.647   8.417  47.447  0.00  0.00    +0.095 A 
ATOM      5  C8  <0> A   1     -15.395   8.775  46.953  0.00  0.00    -0.070 A 
ATOM      6  C9  <0> A   1     -14.704   7.897  46.113  0.00  0.00    +0.147 A 
ENDROOT
BRANCH   5   7
ATOM      7  C16 <0> A   1     -14.795  10.080  47.323  0.00  0.00    -0.063 A 
ATOM      8  C17 <0> A   1     -13.850  10.151  48.344  0.00  0.00    +0.083 A 
ATOM      9  C18 <0> A   1     -13.294  11.367  48.684  0.00  0.00    -0.012 A 
ATOM     10  C19 <0> A   1     -13.675  12.517  48.011  0.00  0.00    +0.107 A 
ATOM     11  C20 <0> A   1     -14.614  12.452  46.995  0.00  0.00    -0.018 A 
ATOM     12  C21 <0> A   1     -15.172  11.238  46.646  0.00  0.00    +0.055 A 
ATOM     13  F1  <0> A   1     -13.128  13.706  48.348  0.00  0.00    -0.137 F 
ENDBRANCH   5   7
BRANCH   1  15
ATOM     14  C1  <0> A   1     -14.647   4.312  45.393  0.00  0.00    +0.031 C 
ATOM     15  C2  <0> A   1     -14.527   5.739  44.855  0.00  0.00    +0.035 C 
ATOM     16  C3  <0> A   1     -15.129   5.807  43.450  0.00  0.00    +0.028 C 
ENDBRANCH   1  15
BRANCH   6  17
ATOM     17  O1  <0> A   1     -13.479   8.240  45.632  0.00  0.00    -0.317 OA
BRANCH  17  18
ATOM     18  C10 <0> A   1     -13.443   8.938  44.385  0.00  0.00    +0.156 C 
BRANCH  18  19
ATOM     19  C11 <0> A   1     -12.096   8.696  43.704  0.00  0.00    +0.226 C 
BRANCH  19  20
ATOM     20  O5  <0> A   1     -11.557   7.447  44.144  0.00  0.00    -0.530 OA
ATOM     21  H19 <0> A   1     -11.942   6.676  43.705  0.00  0.00    +0.363 HD
ENDBRANCH  19  20
BRANCH  19  22
ATOM     22  C12 <0> A   1     -12.290   8.660  42.186  0.00  0.00    -0.042 C 
BRANCH  22  23
ATOM     23  C13 <0> A   1     -13.045   9.912  41.738  0.00  0.00    +0.235 C 
BRANCH  23  24
ATOM     24  O4  <0> A   1     -12.234  11.066  41.970  0.00  0.00    -0.526 OA
ATOM     25  H18 <0> A   1     -12.115  11.626  41.189  0.00  0.00    +0.350 HD
ENDBRANCH  23  24
BRANCH  23  26
ATOM     26  C14 <0> A   1     -13.369   9.807  40.247  0.00  0.00    -0.101 C 
BRANCH  26  27
ATOM     27  C15 <0> A   1     -13.444  11.188  39.650  0.00  0.00    +0.491 C 
ATOM     28  O2  <0> A   1     -12.517  11.613  38.979  0.00  0.00    -0.680 OA
ATOM     29  O3  <0> A   1     -14.428  11.882  39.837  0.00  0.00    -0.712 OA
ENDBRANCH  26  27
ENDBRANCH  23  26
ENDBRANCH  22  23
ENDBRANCH  19  22
ENDBRANCH  18  19
ENDBRANCH  17  18
ENDBRANCH   6  17
BRANCH   3  30
ATOM     30  S1  <0> A   1     -18.787   6.740  47.720  0.00  0.00    +0.004 S 
BRANCH  30  31
ATOM     31  C22 <0> A   1     -18.431   5.944  49.252  0.00  0.00    -0.110 A 
ATOM     32  C23 <0> A   1     -18.631   4.576  49.388  0.00  0.00    +0.067 A 
ATOM     33  C24 <0> A   1     -18.351   3.955  50.590  0.00  0.00    +0.004 A 
ATOM     34  C25 <0> A   1     -17.871   4.695  51.658  0.00  0.00    +0.093 A 
ATOM     35  C26 <0> A   1     -17.671   6.058  51.524  0.00  0.00    +0.005 A 
ATOM     36  C27 <0> A   1     -17.944   6.683  50.323  0.00  0.00    +0.040 A 
ATOM     37  F2  <0> A   1     -17.598   4.085  52.832  0.00  0.00    -0.139 F 
ENDBRANCH  30  31
ENDBRANCH   3  30
TORSDOF 13
