REMARK VINA RESULT:      -8.0     14.278     17.719
REMARK  Name = CHEMBL124769
REMARK  12 active torsions:
REMARK  status: ('A' for Active; 'I' for Inactive)
REMARK    1  A    between atoms: C4_4  and  C7_7
REMARK    2  A    between atoms: C8_8  and  C9_9
REMARK    3  A    between atoms: C9_9  and  C10_10
REMARK    4  A    between atoms: N2_17  and  C24_32
REMARK    5  A    between atoms: C16_18  and  C17_19
REMARK    6  A    between atoms: C18_20  and  C19_21
REMARK    7  A    between atoms: C19_21  and  C20_23
REMARK    8  A    between atoms: C19_21  and  O4_31
REMARK    9  A    between atoms: C20_23  and  C21_24
REMARK   10  A    between atoms: C21_24  and  C22_26
REMARK   11  A    between atoms: C21_24  and  O3_30
REMARK   12  A    between atoms: C22_26  and  C23_27
REMARK                            x       y       z     vdW  Elec       q    Type
REMARK                         _______ _______ _______ _____ _____    ______ ____
ROOT
ATOM      1  C10 <0> A   1     -13.358   6.310  45.070  0.00  0.00    +0.091 C 
ATOM      2  C11 <0> A   1     -14.063   5.830  43.795  0.00  0.00    +0.030 C 
ATOM      3  C12 <0> A   1     -15.236   4.920  44.165  0.00  0.00    +0.017 C 
ATOM      4  C13 <0> A   1     -16.365   5.756  44.781  0.00  0.00    +0.105 C 
ATOM      5  C14 <0> A   1     -15.774   6.615  45.871  0.00  0.00    -0.212 C 
ATOM      6  C15 <0> A   1     -14.403   6.869  46.006  0.00  0.00    +0.096 C 
ATOM      7  N1  <0> A   1     -14.222   7.639  47.043  0.00  0.00    -0.279 NA
ATOM      8  N2  <0> A   1     -15.469   7.918  47.620  0.00  0.00    -0.328 N 
ATOM      9  C16 <0> A   1     -16.427   7.275  46.880  0.00  0.00    +0.127 C 
ENDROOT
BRANCH   8  10
ATOM     10  C24 <0> A   1     -15.696   8.712  48.751  0.00  0.00    +0.148 A 
ATOM     11  C25 <0> A   1     -15.653   8.145  50.018  0.00  0.00    +0.049 A 
ATOM     12  C26 <0> A   1     -15.878   8.929  51.133  0.00  0.00    +0.018 A 
ATOM     13  C27 <0> A   1     -16.147  10.279  50.988  0.00  0.00    +0.098 A 
ATOM     14  C28 <0> A   1     -16.191  10.846  49.725  0.00  0.00    +0.008 A 
ATOM     15  C29 <0> A   1     -15.962  10.068  48.608  0.00  0.00    +0.054 A 
ATOM     16  F1  <0> A   1     -16.366  11.045  52.079  0.00  0.00    -0.134 F 
ENDBRANCH   8  10
BRANCH   9  17
ATOM     17  C17 <0> A   1     -17.879   7.289  47.123  0.00  0.00    +0.027 C 
ATOM     18  C18 <0> A   1     -18.406   6.489  48.044  0.00  0.00    -0.027 C 
BRANCH  18  19
ATOM     19  C19 <0> A   1     -19.892   6.505  48.293  0.00  0.00    +0.255 C 
BRANCH  19  20
ATOM     20  O4  <0> A   1     -20.582   6.631  47.048  0.00  0.00    -0.536 OA
ATOM     21  H26 <0> A   1     -20.027   6.943  46.321  0.00  0.00    +0.368 HD
ENDBRANCH  19  20
BRANCH  19  22
ATOM     22  C20 <0> A   1     -20.307   5.200  48.976  0.00  0.00    -0.040 C 
BRANCH  22  23
ATOM     23  C21 <0> A   1     -19.331   4.885  50.112  0.00  0.00    +0.232 C 
BRANCH  23  24
ATOM     24  O3  <0> A   1     -19.924   5.242  51.363  0.00  0.00    -0.528 OA
ATOM     25  H25 <0> A   1     -19.345   5.757  51.940  0.00  0.00    +0.351 HD
ENDBRANCH  23  24
BRANCH  23  26
ATOM     26  C22 <0> A   1     -19.010   3.390  50.108  0.00  0.00    -0.101 C 
BRANCH  26  27
ATOM     27  C23 <0> A   1     -19.817   2.699  51.177  0.00  0.00    +0.491 C 
ATOM     28  O1  <0> A   1     -20.978   2.393  50.961  0.00  0.00    -0.681 OA
ATOM     29  O2  <0> A   1     -19.311   2.446  52.256  0.00  0.00    -0.712 OA
ENDBRANCH  26  27
ENDBRANCH  23  26
ENDBRANCH  22  23
ENDBRANCH  19  22
ENDBRANCH  18  19
ENDBRANCH   9  17
BRANCH   1  30
ATOM     30  C9  <0> A   1     -12.344   7.400  44.720  0.00  0.00    +0.069 C 
BRANCH  30  32
ATOM     31  C7  <0> A   1     -13.030   9.326  43.360  0.00  0.00    -0.024 C 
ATOM     32  C8  <0> A   1     -12.724   8.038  43.407  0.00  0.00    +0.004 C 
BRANCH  31  36
ATOM     33  C1  <0> A   1     -14.100  11.121  39.662  0.00  0.00    -0.006 A 
ATOM     34  C2  <0> A   1     -14.624  11.614  40.844  0.00  0.00    +0.001 A 
ATOM     35  C3  <0> A   1     -14.281  11.035  42.049  0.00  0.00    +0.006 A 
ATOM     36  C4  <0> A   1     -13.403   9.951  42.073  0.00  0.00    -0.048 A 
ATOM     37  C5  <0> A   1     -12.878   9.458  40.878  0.00  0.00    +0.010 A 
ATOM     38  C6  <0> A   1     -13.229  10.046  39.680  0.00  0.00    +0.004 A 
ENDBRANCH  31  36
ENDBRANCH  30  32
ENDBRANCH   1  30
TORSDOF 12
