REMARK VINA RESULT:      -8.2      5.129      7.983
REMARK  Name = CHEMBL468862
REMARK  13 active torsions:
REMARK  status: ('A' for Active; 'I' for Inactive)
REMARK    1  A    between atoms: C1_1  and  C2_2
REMARK    2  A    between atoms: C2_2  and  C3_3
REMARK    3  A    between atoms: C2_2  and  C4_4
REMARK    4  A    between atoms: C5_5  and  C22_29
REMARK    5  A    between atoms: C6_6  and  C16_22
REMARK    6  A    between atoms: C9_13  and  C10_16
REMARK    7  A    between atoms: C23_30  and  C24_31
REMARK    8  A    between atoms: C24_31  and  C25_33
REMARK    9  A    between atoms: C24_31  and  O4_41
REMARK   10  A    between atoms: C25_33  and  C26_34
REMARK   11  A    between atoms: C26_34  and  C27_36
REMARK   12  A    between atoms: C26_34  and  O3_40
REMARK   13  A    between atoms: C27_36  and  C28_37
REMARK                            x       y       z     vdW  Elec       q    Type
REMARK                         _______ _______ _______ _____ _____    ______ ____
ROOT
ATOM      1  C4  <0> A   1     -13.082   9.859  48.220  0.00  0.00    +0.232 A 
ATOM      2  C5  <0> A   1     -13.041   9.474  46.877  0.00  0.00    -0.176 A 
ATOM      3  C6  <0> A   1     -12.272   8.343  46.533  0.00  0.00    +0.261 A 
ATOM      4  N1  <0> A   1     -11.622   7.692  47.495  0.00  0.00    -0.504 NA
ATOM      5  C7  <0> A   1     -11.695   8.097  48.753  0.00  0.00    +0.553 A 
ATOM      6  N2  <0> A   1     -12.402   9.159  49.110  0.00  0.00    -0.545 NA
ATOM      7  N3  <0> A   1     -11.003   7.392  49.724  0.00  0.00    -0.590 N 
ATOM      8  C8  <0> A   1     -10.246   6.274  49.371  0.00  0.00    +0.489 C 
ATOM      9  N4  <0> A   1      -9.587   5.588  50.279  0.00  0.00    -0.546 NA
ATOM     10  C9  <0> A   1      -8.889   4.538  49.870  0.00  0.00    +0.116 C 
ATOM     11  S1  <0> A   1      -9.173   4.533  48.213  0.00  0.00    +0.290 S 
ATOM     12  N5  <0> A   1     -10.176   5.873  48.119  0.00  0.00    -0.436 NA
ATOM     13  H10 <0> A   1     -11.046   7.676  50.651  0.00  0.00    +0.438 HD
ENDROOT
BRANCH   3  14
ATOM     14  C16 <0> A   1     -12.190   7.886  45.126  0.00  0.00    -0.071 A 
ATOM     15  C17 <0> A   1     -13.259   7.201  44.550  0.00  0.00    +0.096 A 
ATOM     16  C18 <0> A   1     -13.179   6.779  43.240  0.00  0.00    -0.016 A 
ATOM     17  C19 <0> A   1     -12.037   7.034  42.495  0.00  0.00    +0.120 A 
ATOM     18  C20 <0> A   1     -10.972   7.714  43.065  0.00  0.00    -0.027 A 
ATOM     19  C21 <0> A   1     -11.045   8.145  44.372  0.00  0.00    +0.099 A 
ATOM     20  F1  <0> A   1     -11.963   6.619  41.212  0.00  0.00    -0.136 F 
ENDBRANCH   3  14
BRANCH  10  21
ATOM     21  C10 <0> A   1      -8.068   3.605  50.671  0.00  0.00    -0.031 A 
ATOM     22  C11 <0> A   1      -8.422   3.312  51.988  0.00  0.00    +0.073 A 
ATOM     23  C12 <0> A   1      -7.651   2.440  52.728  0.00  0.00    +0.008 A 
ATOM     24  C13 <0> A   1      -6.528   1.858  52.168  0.00  0.00    +0.036 A 
ATOM     25  C14 <0> A   1      -6.171   2.144  50.863  0.00  0.00    +0.015 A 
ATOM     26  C15 <0> A   1      -6.937   3.010  50.110  0.00  0.00    +0.047 A 
ENDBRANCH  10  21
BRANCH   1  28
ATOM     27  C1  <0> A   1     -14.632  10.741  49.943  0.00  0.00    +0.043 C 
ATOM     28  C2  <0> A   1     -13.887  11.060  48.645  0.00  0.00    +0.052 C 
ATOM     29  C3  <0> A   1     -12.950  12.248  48.872  0.00  0.00    +0.044 C 
ENDBRANCH   1  28
BRANCH   2  30
ATOM     30  C22 <0> A   1     -13.780  10.230  45.847  0.00  0.00    +0.012 C 
ATOM     31  C23 <0> A   1     -13.143  11.111  45.086  0.00  0.00    -0.035 C 
BRANCH  31  32
ATOM     32  C24 <0> A   1     -13.898  11.883  44.035  0.00  0.00    +0.253 C 
BRANCH  32  33
ATOM     33  O4  <0> A   1     -13.136  13.026  43.642  0.00  0.00    -0.537 OA
ATOM     34  H27 <0> A   1     -12.854  13.584  44.381  0.00  0.00    +0.366 HD
ENDBRANCH  32  33
BRANCH  32  35
ATOM     35  C25 <0> A   1     -14.137  10.988  42.818  0.00  0.00    -0.041 C 
BRANCH  35  36
ATOM     36  C26 <0> A   1     -13.262  11.461  41.657  0.00  0.00    +0.232 C 
BRANCH  36  37
ATOM     37  O3  <0> A   1     -12.006  10.780  41.698  0.00  0.00    -0.528 OA
ATOM     38  H26 <0> A   1     -12.077   9.820  41.603  0.00  0.00    +0.350 HD
ENDBRANCH  36  37
BRANCH  36  39
ATOM     39  C27 <0> A   1     -13.963  11.156  40.331  0.00  0.00    -0.102 C 
BRANCH  39  40
ATOM     40  C28 <0> A   1     -12.939  11.065  39.230  0.00  0.00    +0.490 C 
ATOM     41  O1  <0> A   1     -12.409  12.078  38.805  0.00  0.00    -0.681 OA
ATOM     42  O2  <0> A   1     -12.639   9.979  38.764  0.00  0.00    -0.713 OA
ENDBRANCH  39  40
ENDBRANCH  36  39
ENDBRANCH  35  36
ENDBRANCH  32  35
ENDBRANCH  31  32
ENDBRANCH   2  30
TORSDOF 11
