REMARK VINA RESULT:      -7.9     16.565     20.410
REMARK  Name = CHEMBL322643
REMARK  13 active torsions:
REMARK  status: ('A' for Active; 'I' for Inactive)
REMARK    1  A    between atoms: C1_1  and  C2_2
REMARK    2  A    between atoms: C2_2  and  C3_3
REMARK    3  A    between atoms: C2_2  and  C4_4
REMARK    4  A    between atoms: C6_6  and  C22_29
REMARK    5  A    between atoms: C7_8  and  C16_22
REMARK    6  A    between atoms: C8_9  and  C9_10
REMARK    7  A    between atoms: C10_11  and  C11_12
REMARK    8  A    between atoms: C11_12  and  C12_13
REMARK    9  A    between atoms: C11_12  and  O4_21
REMARK   10  A    between atoms: C12_13  and  C13_14
REMARK   11  A    between atoms: C13_14  and  C14_16
REMARK   12  A    between atoms: C13_14  and  O3_20
REMARK   13  A    between atoms: C14_16  and  C15_17
REMARK                            x       y       z     vdW  Elec       q    Type
REMARK                         _______ _______ _______ _____ _____    ______ ____
ROOT
ATOM      1  C4  <0> A   1     -24.788  -3.268  50.860  0.00  0.00    -0.018 A 
ATOM      2  C5  <0> A   1     -25.508  -2.095  50.972  0.00  0.00    -0.019 A 
ATOM      3  C6  <0> A   1     -26.902  -2.141  50.946  0.00  0.00    +0.167 A 
ATOM      4  N1  <0> A   1     -27.544  -3.293  50.813  0.00  0.00    -0.469 NA
ATOM      5  C7  <0> A   1     -26.895  -4.442  50.702  0.00  0.00    +0.184 A 
ATOM      6  C8  <0> A   1     -25.489  -4.470  50.716  0.00  0.00    -0.083 A 
ENDROOT
BRANCH   5   7
ATOM      7  C16 <0> A   1     -27.655  -5.705  50.557  0.00  0.00    -0.062 A 
ATOM      8  C17 <0> A   1     -27.815  -6.285  49.298  0.00  0.00    +0.087 A 
ATOM      9  C18 <0> A   1     -28.523  -7.461  49.168  0.00  0.00    -0.017 A 
ATOM     10  C19 <0> A   1     -29.076  -8.067  50.285  0.00  0.00    +0.113 A 
ATOM     11  C20 <0> A   1     -28.920  -7.495  51.537  0.00  0.00    -0.026 A 
ATOM     12  C21 <0> A   1     -28.209  -6.322  51.679  0.00  0.00    +0.082 A 
ATOM     13  F1  <0> A   1     -29.768  -9.219  50.152  0.00  0.00    -0.137 F 
ENDBRANCH   5   7
BRANCH   3  14
ATOM     14  C22 <0> A   1     -27.677  -0.883  51.067  0.00  0.00    -0.046 A 
ATOM     15  C23 <0> A   1     -28.899  -0.876  51.737  0.00  0.00    +0.023 A 
ATOM     16  C24 <0> A   1     -29.617   0.298  51.846  0.00  0.00    +0.002 A 
ATOM     17  C25 <0> A   1     -29.126   1.466  51.292  0.00  0.00    +0.011 A 
ATOM     18  C26 <0> A   1     -27.913   1.466  50.626  0.00  0.00    -0.001 A 
ATOM     19  C27 <0> A   1     -27.184   0.299  50.516  0.00  0.00    +0.054 A 
ENDBRANCH   3  14
BRANCH   1  21
ATOM     20  C1  <0> A   1     -22.777  -1.888  50.413  0.00  0.00    +0.033 C 
ATOM     21  C2  <0> A   1     -23.281  -3.253  50.885  0.00  0.00    +0.030 C 
ATOM     22  C3  <0> A   1     -22.792  -3.513  52.311  0.00  0.00    +0.033 C 
ENDBRANCH   1  21
BRANCH   6  23
ATOM     23  C9  <0> A   1     -24.764  -5.750  50.587  0.00  0.00    -0.001 C 
ATOM     24  C10 <0> A   1     -24.677  -6.572  51.626  0.00  0.00    -0.031 C 
BRANCH  24  25
ATOM     25  C11 <0> A   1     -23.938  -7.878  51.493  0.00  0.00    +0.252 C 
BRANCH  25  26
ATOM     26  O4  <0> A   1     -23.262  -8.169  52.717  0.00  0.00    -0.537 OA
ATOM     27  H18 <0> A   1     -23.514  -7.594  53.453  0.00  0.00    +0.366 HD
ENDBRANCH  25  26
BRANCH  25  28
ATOM     28  C12 <0> A   1     -24.934  -8.997  51.182  0.00  0.00    -0.041 C 
BRANCH  28  29
ATOM     29  C13 <0> A   1     -24.320  -9.957  50.160  0.00  0.00    +0.232 C 
BRANCH  29  30
ATOM     30  O3  <0> A   1     -22.977  -9.558  49.880  0.00  0.00    -0.528 OA
ATOM     31  H17 <0> A   1     -22.319 -10.244  50.055  0.00  0.00    +0.350 HD
ENDBRANCH  29  30
BRANCH  29  32
ATOM     32  C14 <0> A   1     -24.324 -11.377  50.727  0.00  0.00    -0.102 C 
BRANCH  32  33
ATOM     33  C15 <0> A   1     -24.291 -12.371  49.594  0.00  0.00    +0.491 C 
ATOM     34  O1  <0> A   1     -23.443 -12.274  48.723  0.00  0.00    -0.681 OA
ATOM     35  O2  <0> A   1     -25.113 -13.270  49.548  0.00  0.00    -0.713 OA
ENDBRANCH  32  33
ENDBRANCH  29  32
ENDBRANCH  28  29
ENDBRANCH  25  28
ENDBRANCH  24  25
ENDBRANCH   6  23
TORSDOF 11
