REMARK VINA RESULT:      -7.1     20.068     23.100
REMARK  Name = CHEMBL350272
REMARK  4 active torsions:
REMARK  status: ('A' for Active; 'I' for Inactive)
REMARK    1  A    between atoms: C7_8  and  C11_14
REMARK    2  A    between atoms: C11_14  and  C12_15
REMARK    3  A    between atoms: C12_15  and  C13_16
REMARK    4  A    between atoms: C15_18  and  O3_24
REMARK                            x       y       z     vdW  Elec       q    Type
REMARK                         _______ _______ _______ _____ _____    ______ ____
ROOT
ATOM      1  C1  <0> A   1     -23.668  -2.106  52.564  0.00  0.00    +0.042 A 
ATOM      2  C2  <0> A   1     -25.025  -2.155  52.661  0.00  0.00    +0.057 A 
ATOM      3  C3  <0> A   1     -25.726  -3.223  52.079  0.00  0.00    -0.043 A 
ATOM      4  C4  <0> A   1     -25.007  -4.237  51.396  0.00  0.00    -0.021 A 
ATOM      5  C5  <0> A   1     -23.607  -4.154  51.316  0.00  0.00    +0.059 A 
ATOM      6  C6  <0> A   1     -22.960  -3.102  51.893  0.00  0.00    -0.022 A 
ATOM      7 Cl1  <0> A   1     -21.230  -3.002  51.791  0.00  0.00    -0.058 Cl
ATOM      8  C7  <0> A   1     -25.710  -5.305  50.812  0.00  0.00    -0.046 A 
ATOM      9  C8  <0> A   1     -27.068  -5.353  50.909  0.00  0.00    -0.024 A 
ATOM     10  C9  <0> A   1     -27.775  -4.357  51.581  0.00  0.00    +0.056 A 
ATOM     11  C10 <0> A   1     -27.128  -3.306  52.159  0.00  0.00    -0.015 A 
ATOM     12 Cl2  <0> A   1     -28.029  -2.077  52.990  0.00  0.00    -0.044 Cl
ATOM     13 Cl3  <0> A   1     -27.929  -6.675  50.186  0.00  0.00    -0.047 Cl
ENDROOT
BRANCH   8  14
ATOM     14  C11 <0> A   1     -24.963  -6.393  50.082  0.00  0.00    +0.090 C 
BRANCH  14  15
ATOM     15  C12 <0> A   1     -24.624  -7.521  51.057  0.00  0.00    +0.065 C 
BRANCH  15  16
ATOM     16  C13 <0> A   1     -25.047  -8.862  50.451  0.00  0.00    +0.200 C 
ATOM     17  C14 <0> A   1     -23.856  -9.825  50.462  0.00  0.00    +0.043 C 
ATOM     18  C15 <0> A   1     -24.272 -11.151  49.817  0.00  0.00    +0.185 C 
ATOM     19  C16 <0> A   1     -24.725 -10.882  48.376  0.00  0.00    +0.022 C 
ATOM     20  C17 <0> A   1     -25.761  -9.781  48.403  0.00  0.00    +0.497 C 
ATOM     21  O1  <0> A   1     -26.810  -9.899  47.815  0.00  0.00    -0.451 OA
ATOM     22  O2  <0> A   1     -25.481  -8.661  49.102  0.00  0.00    -0.369 OA
BRANCH  18  23
ATOM     23  O3  <0> A   1     -25.346 -11.730  50.560  0.00  0.00    -0.564 OA
ATOM     24  H15 <0> A   1     -25.147 -11.871  51.496  0.00  0.00    +0.387 HD
ENDBRANCH  18  23
ENDBRANCH  15  16
ENDBRANCH  14  15
ENDBRANCH   8  14
TORSDOF 4
