REMARK VINA RESULT:      -7.9     14.928     17.580
REMARK  Name = CHEMBL340848
REMARK  10 active torsions:
REMARK  status: ('A' for Active; 'I' for Inactive)
REMARK    1  A    between atoms: C1_1  and  C2_2
REMARK    2  A    between atoms: C2_2  and  C3_3
REMARK    3  A    between atoms: C2_2  and  C4_4
REMARK    4  A    between atoms: C5_5  and  C20_23
REMARK    5  A    between atoms: C6_6  and  C14_16
REMARK    6  A    between atoms: N1_7  and  C7_9
REMARK    7  A    between atoms: C7_9  and  C8_10
REMARK    8  A    between atoms: C20_23  and  C21_24
REMARK    9  A    between atoms: C21_24  and  C22_25
REMARK   10  A    between atoms: C24_28  and  O3_34
REMARK                            x       y       z     vdW  Elec       q    Type
REMARK                         _______ _______ _______ _____ _____    ______ ____
ROOT
ATOM      1  C4  <0> A   1     -27.665  -4.161  50.372  0.00  0.00    +0.088 C 
ATOM      2  C5  <0> A   1     -26.507  -4.072  51.146  0.00  0.00    -0.208 C 
ATOM      3  C6  <0> A   1     -25.972  -2.829  50.959  0.00  0.00    +0.125 C 
ATOM      4  N1  <0> A   1     -26.784  -2.166  50.088  0.00  0.00    -0.359 N 
ATOM      5  N2  <0> A   1     -27.829  -3.029  49.737  0.00  0.00    -0.275 NA
ENDROOT
BRANCH   3   6
ATOM      6  C14 <0> A   1     -24.740  -2.301  51.586  0.00  0.00    -0.040 A 
ATOM      7  C15 <0> A   1     -24.755  -1.887  52.918  0.00  0.00    +0.082 A 
ATOM      8  C16 <0> A   1     -23.604  -1.396  53.497  0.00  0.00    -0.005 A 
ATOM      9  C17 <0> A   1     -22.434  -1.313  52.759  0.00  0.00    +0.109 A 
ATOM     10  C18 <0> A   1     -22.414  -1.724  51.435  0.00  0.00    -0.011 A 
ATOM     11  C19 <0> A   1     -23.559  -2.222  50.848  0.00  0.00    +0.053 A 
ATOM     12  F1  <0> A   1     -21.309  -0.831  53.332  0.00  0.00    -0.136 F 
ENDBRANCH   3   6
BRANCH   1  14
ATOM     13  C1  <0> A   1     -29.989  -4.905  49.935  0.00  0.00    +0.032 C 
ATOM     14  C2  <0> A   1     -28.570  -5.362  50.279  0.00  0.00    +0.073 C 
ATOM     15  C3  <0> A   1     -28.058  -6.302  49.187  0.00  0.00    +0.033 C 
ENDBRANCH   1  14
BRANCH   4  16
ATOM     16  C7  <0> A   1     -26.592  -0.797  49.601  0.00  0.00    +0.377 C 
BRANCH  16  17
ATOM     17  C8  <0> A   1     -26.986   0.179  50.681  0.00  0.00    -0.117 A 
ATOM     18  C9  <0> A   1     -28.254   0.129  51.229  0.00  0.00    +0.037 A 
ATOM     19  C10 <0> A   1     -28.614   1.025  52.218  0.00  0.00    +0.002 A 
ATOM     20  C11 <0> A   1     -27.708   1.969  52.660  0.00  0.00    +0.016 A 
ATOM     21  C12 <0> A   1     -26.440   2.018  52.112  0.00  0.00    +0.002 A 
ATOM     22  C13 <0> A   1     -26.077   1.121  51.125  0.00  0.00    +0.023 A 
ENDBRANCH  16  17
ENDBRANCH   4  16
BRANCH   2  23
ATOM     23  C20 <0> A   1     -25.947  -5.156  52.032  0.00  0.00    +0.107 C 
BRANCH  23  24
ATOM     24  C21 <0> A   1     -24.609  -5.635  51.466  0.00  0.00    +0.054 C 
BRANCH  24  25
ATOM     25  C22 <0> A   1     -24.692  -7.133  51.163  0.00  0.00    +0.196 C 
ATOM     26  C23 <0> A   1     -24.529  -7.359  49.658  0.00  0.00    +0.039 C 
ATOM     27  C24 <0> A   1     -24.570  -8.862  49.362  0.00  0.00    +0.183 C 
ATOM     28  C25 <0> A   1     -23.432  -9.550  50.129  0.00  0.00    +0.019 C 
ATOM     29  C26 <0> A   1     -23.520  -9.134  51.581  0.00  0.00    +0.496 C 
ATOM     30  O1  <0> A   1     -23.478  -9.956  52.466  0.00  0.00    -0.454 OA
ATOM     31  O2  <0> A   1     -23.646  -7.820  51.861  0.00  0.00    -0.365 OA
BRANCH  27  32
ATOM     32  O3  <0> A   1     -25.826  -9.398  49.783  0.00  0.00    -0.563 OA
ATOM     33  H29 <0> A   1     -26.592  -8.968  49.378  0.00  0.00    +0.386 HD
ENDBRANCH  27  32
ENDBRANCH  24  25
ENDBRANCH  23  24
ENDBRANCH   2  23
TORSDOF 8
