REMARK VINA RESULT:      -7.8      2.156      3.006
REMARK  Name = CHEMBL333258
REMARK  7 active torsions:
REMARK  status: ('A' for Active; 'I' for Inactive)
REMARK    1  A    between atoms: C1_1  and  C2_2
REMARK    2  A    between atoms: C2_2  and  C3_3
REMARK    3  A    between atoms: C2_2  and  C4_4
REMARK    4  A    between atoms: C5_5  and  C19_22
REMARK    5  A    between atoms: C6_6  and  C13_15
REMARK    6  A    between atoms: C20_23  and  C21_24
REMARK    7  A    between atoms: C23_27  and  O3_33
REMARK                            x       y       z     vdW  Elec       q    Type
REMARK                         _______ _______ _______ _____ _____    ______ ____
ROOT
ATOM      1  C4  <0> A   1     -27.009  -3.571  51.021  0.00  0.00    +0.189 A 
ATOM      2  C5  <0> A   1     -25.659  -3.678  51.390  0.00  0.00    -0.092 A 
ATOM      3  C6  <0> A   1     -24.917  -2.513  51.623  0.00  0.00    +0.028 A 
ATOM      4  C7  <0> A   1     -25.579  -1.268  51.473  0.00  0.00    -0.083 A 
ATOM      5  C8  <0> A   1     -24.908  -0.057  51.688  0.00  0.00    +0.057 A 
ATOM      6  C9  <0> A   1     -25.577   1.121  51.533  0.00  0.00    -0.031 A 
ATOM      7  C10 <0> A   1     -26.921   1.134  51.165  0.00  0.00    +0.049 A 
ATOM      8  C11 <0> A   1     -27.601  -0.024  50.949  0.00  0.00    +0.071 A 
ATOM      9  C12 <0> A   1     -26.945  -1.258  51.097  0.00  0.00    +0.137 A 
ATOM     10  N1  <0> A   1     -27.594  -2.409  50.883  0.00  0.00    -0.462 NA
ATOM     11 Cl1  <0> A   1     -24.744   2.621  51.800  0.00  0.00    -0.060 Cl
ENDROOT
BRANCH   3  12
ATOM     12  C13 <0> A   1     -23.492  -2.578  52.014  0.00  0.00    -0.067 A 
ATOM     13  C14 <0> A   1     -23.117  -2.332  53.336  0.00  0.00    +0.073 A 
ATOM     14  C15 <0> A   1     -21.788  -2.394  53.695  0.00  0.00    -0.011 A 
ATOM     15  C16 <0> A   1     -20.824  -2.700  52.746  0.00  0.00    +0.110 A 
ATOM     16  C17 <0> A   1     -21.191  -2.944  51.432  0.00  0.00    -0.009 A 
ATOM     17  C18 <0> A   1     -22.519  -2.890  51.063  0.00  0.00    +0.067 A 
ATOM     18  F1  <0> A   1     -19.522  -2.759  53.103  0.00  0.00    -0.136 F 
ENDBRANCH   3  12
BRANCH   1  20
ATOM     19  C1  <0> A   1     -28.783  -5.050  51.925  0.00  0.00    +0.042 C 
ATOM     20  C2  <0> A   1     -27.803  -4.828  50.770  0.00  0.00    +0.037 C 
ATOM     21  C3  <0> A   1     -28.582  -4.686  49.460  0.00  0.00    +0.041 C 
ENDBRANCH   1  20
BRANCH   2  22
ATOM     22  C19 <0> A   1     -25.027  -5.005  51.530  0.00  0.00    +0.056 C 
ATOM     23  C20 <0> A   1     -24.792  -5.745  50.454  0.00  0.00    -0.014 C 
BRANCH  23  24
ATOM     24  C21 <0> A   1     -24.147  -7.099  50.597  0.00  0.00    +0.243 C 
ATOM     25  C22 <0> A   1     -25.142  -8.186  50.179  0.00  0.00    +0.051 C 
ATOM     26  C23 <0> A   1     -24.497  -9.564  50.366  0.00  0.00    +0.186 C 
ATOM     27  C24 <0> A   1     -24.112  -9.735  51.840  0.00  0.00    +0.023 C 
ATOM     28  C25 <0> A   1     -23.293  -8.534  52.260  0.00  0.00    +0.497 C 
ATOM     29  O1  <0> A   1     -22.244  -8.669  52.845  0.00  0.00    -0.449 OA
ATOM     30  O2  <0> A   1     -23.766  -7.306  51.962  0.00  0.00    -0.368 OA
BRANCH  26  31
ATOM     31  O3  <0> A   1     -23.330  -9.660  49.549  0.00  0.00    -0.564 OA
ATOM     32  H23 <0> A   1     -23.084 -10.567  49.320  0.00  0.00    +0.388 HD
ENDBRANCH  26  31
ENDBRANCH  23  24
ENDBRANCH   2  22
TORSDOF 5
