REMARK VINA RESULT:      -7.8      0.761      1.240
REMARK  Name = CHEMBL122219
REMARK  13 active torsions:
REMARK  status: ('A' for Active; 'I' for Inactive)
REMARK    1  A    between atoms: C1_1  and  C2_2
REMARK    2  A    between atoms: C2_2  and  O1_3
REMARK    3  A    between atoms: O1_3  and  C3_4
REMARK    4  A    between atoms: C3_4  and  C4_6
REMARK    5  A    between atoms: C5_7  and  C24_33
REMARK    6  A    between atoms: C6_8  and  C21_30
REMARK    7  A    between atoms: N1_9  and  C14_18
REMARK    8  A    between atoms: C7_10  and  C8_11
REMARK    9  A    between atoms: C14_18  and  C15_19
REMARK   10  A    between atoms: C15_19  and  C16_20
REMARK   11  A    between atoms: C18_23  and  O5_29
REMARK   12  A    between atoms: C21_30  and  C22_31
REMARK   13  A    between atoms: C21_30  and  C23_32
REMARK                            x       y       z     vdW  Elec       q    Type
REMARK                         _______ _______ _______ _____ _____    ______ ____
ROOT
ATOM      1  C4  <0> A   1     -15.543   8.966  47.172  0.00  0.00    -0.167 C 
ATOM      2  C5  <0> A   1     -16.010   7.591  46.921  0.00  0.00    -0.087 C 
ATOM      3  C6  <0> A   1     -15.200   7.081  45.958  0.00  0.00    +0.068 C 
ATOM      4  N1  <0> A   1     -14.283   8.020  45.597  0.00  0.00    -0.419 N 
ATOM      5  C7  <0> A   1     -14.470   9.165  46.309  0.00  0.00    +0.114 C 
ENDROOT
BRANCH   5   6
ATOM      6  C8  <0> A   1     -13.673  10.401  46.188  0.00  0.00    -0.043 A 
ATOM      7  C9  <0> A   1     -14.028  11.376  45.251  0.00  0.00    +0.056 A 
ATOM      8  C10 <0> A   1     -13.280  12.529  45.143  0.00  0.00    -0.006 A 
ATOM      9  C11 <0> A   1     -12.178  12.723  45.962  0.00  0.00    +0.110 A 
ATOM     10  C12 <0> A   1     -11.822  11.760  46.892  0.00  0.00    -0.004 A 
ATOM     11  C13 <0> A   1     -12.565  10.606  47.014  0.00  0.00    +0.073 A 
ATOM     12  F1  <0> A   1     -11.450  13.855  45.851  0.00  0.00    -0.135 F 
ENDBRANCH   5   6
BRANCH   2  13
ATOM     13  C24 <0> A   1     -17.140   6.902  47.590  0.00  0.00    -0.017 A 
ATOM     14  C25 <0> A   1     -18.447   7.122  47.157  0.00  0.00    +0.020 A 
ATOM     15  C26 <0> A   1     -19.495   6.478  47.783  0.00  0.00    +0.003 A 
ATOM     16  C27 <0> A   1     -19.250   5.616  48.837  0.00  0.00    +0.003 A 
ATOM     17  C28 <0> A   1     -17.955   5.394  49.270  0.00  0.00    +0.003 A 
ATOM     18  C29 <0> A   1     -16.899   6.027  48.648  0.00  0.00    +0.020 A 
ENDBRANCH   2  13
BRANCH   3  19
ATOM     19  C21 <0> A   1     -15.304   5.693  45.379  0.00  0.00    +0.069 C 
ATOM     20  C22 <0> A   1     -15.171   4.661  46.500  0.00  0.00    +0.031 C 
ATOM     21  C23 <0> A   1     -16.662   5.528  44.693  0.00  0.00    +0.033 C 
ENDBRANCH   3  19
BRANCH   1  22
ATOM     22  C3  <0> A   1     -16.101   9.928  48.128  0.00  0.00    +0.552 C 
ATOM     23  O2  <0> A   1     -16.496  11.011  47.741  0.00  0.00    -0.499 OA
BRANCH  22  24
ATOM     24  O1  <0> A   1     -16.175   9.611  49.437  0.00  0.00    -0.343 OA
BRANCH  24  26
ATOM     25  C1  <0> A   1     -17.494   8.644  51.217  0.00  0.00    +0.061 C 
ATOM     26  C2  <0> A   1     -17.474   9.611  50.032  0.00  0.00    +0.194 C 
ENDBRANCH  24  26
ENDBRANCH  22  24
ENDBRANCH   1  22
BRANCH   4  27
ATOM     27  C14 <0> A   1     -13.242   7.826  44.584  0.00  0.00    +0.296 C 
BRANCH  27  28
ATOM     28  C15 <0> A   1     -13.897   7.582  43.223  0.00  0.00    +0.052 C 
BRANCH  28  29
ATOM     29  C16 <0> A   1     -13.186   8.418  42.157  0.00  0.00    +0.204 C 
ATOM     30  C17 <0> A   1     -13.676   9.867  42.233  0.00  0.00    +0.046 C 
ATOM     31  C18 <0> A   1     -12.991  10.692  41.139  0.00  0.00    +0.187 C 
ATOM     32  C19 <0> A   1     -13.334  10.086  39.773  0.00  0.00    +0.024 C 
ATOM     33  C20 <0> A   1     -13.015   8.608  39.815  0.00  0.00    +0.498 C 
ATOM     34  O3  <0> A   1     -12.366   8.086  38.940  0.00  0.00    -0.449 OA
ATOM     35  O4  <0> A   1     -13.475   7.888  40.860  0.00  0.00    -0.370 OA
BRANCH  31  36
ATOM     36  O5  <0> A   1     -11.576  10.667  41.335  0.00  0.00    -0.564 OA
ATOM     37  H20 <0> A   1     -11.247   9.847  41.729  0.00  0.00    +0.388 HD
ENDBRANCH  31  36
ENDBRANCH  28  29
ENDBRANCH  27  28
ENDBRANCH   4  27
TORSDOF 10
