REMARK VINA RESULT:      -7.2     16.886     19.977
REMARK  Name = CHEMBL445123
REMARK  15 active torsions:
REMARK  status: ('A' for Active; 'I' for Inactive)
REMARK    1  A    between atoms: C1_1  and  C2_2
REMARK    2  A    between atoms: C2_2  and  C3_3
REMARK    3  A    between atoms: C2_2  and  C4_4
REMARK    4  A    between atoms: C6_6  and  C22_30
REMARK    5  A    between atoms: C7_7  and  C16_23
REMARK    6  A    between atoms: N1_8  and  C8_9
REMARK    7  A    between atoms: C9_10  and  C10_11
REMARK    8  A    between atoms: C10_11  and  C11_13
REMARK    9  A    between atoms: C10_11  and  O4_22
REMARK   10  A    between atoms: C11_13  and  C12_14
REMARK   11  A    between atoms: C12_14  and  C13_16
REMARK   12  A    between atoms: C12_14  and  O3_21
REMARK   13  A    between atoms: C13_16  and  C14_17
REMARK   14  A    between atoms: C14_17  and  O2_19
REMARK   15  A    between atoms: O2_19  and  C15_20
REMARK                            x       y       z     vdW  Elec       q    Type
REMARK                         _______ _______ _______ _____ _____    ______ ____
ROOT
ATOM      1  C4  <0> A   1     -27.406  -5.559  50.930  0.00  0.00    +0.082 C 
ATOM      2  C5  <0> A   1     -28.070  -4.395  50.773  0.00  0.00    -0.144 C 
ATOM      3  C6  <0> A   1     -27.153  -3.342  51.005  0.00  0.00    -0.077 C 
ATOM      4  C7  <0> A   1     -25.933  -3.928  51.301  0.00  0.00    +0.073 C 
ATOM      5  N1  <0> A   1     -26.106  -5.289  51.255  0.00  0.00    -0.383 N 
ATOM      6 Br1  <0> A   1     -29.897  -4.205  50.325  0.00  0.00    -0.015 Br
ENDROOT
BRANCH   4   7
ATOM      7  C16 <0> A   1     -24.678  -3.219  51.614  0.00  0.00    -0.035 A 
ATOM      8  C17 <0> A   1     -24.574  -2.456  52.780  0.00  0.00    +0.063 A 
ATOM      9  C18 <0> A   1     -23.398  -1.796  53.067  0.00  0.00    -0.011 A 
ATOM     10  C19 <0> A   1     -22.319  -1.887  52.201  0.00  0.00    +0.109 A 
ATOM     11  C20 <0> A   1     -22.416  -2.642  51.042  0.00  0.00    -0.010 A 
ATOM     12  C21 <0> A   1     -23.584  -3.312  50.748  0.00  0.00    +0.069 A 
ATOM     13  F1  <0> A   1     -21.169  -1.238  52.488  0.00  0.00    -0.136 F 
ENDBRANCH   4   7
BRANCH   3  14
ATOM     14  C22 <0> A   1     -27.442  -1.890  50.941  0.00  0.00    -0.021 A 
ATOM     15  C23 <0> A   1     -26.849  -1.102  49.955  0.00  0.00    +0.054 A 
ATOM     16  C24 <0> A   1     -27.122   0.249  49.900  0.00  0.00    -0.015 A 
ATOM     17  C25 <0> A   1     -27.982   0.823  50.822  0.00  0.00    +0.101 A 
ATOM     18  C26 <0> A   1     -28.572   0.044  51.804  0.00  0.00    -0.014 A 
ATOM     19  C27 <0> A   1     -28.311  -1.309  51.864  0.00  0.00    +0.065 A 
ATOM     20  F2  <0> A   1     -28.245   2.147  50.765  0.00  0.00    -0.139 F 
ENDBRANCH   3  14
BRANCH   1  22
ATOM     21  C1  <0> A   1     -29.175  -7.092  51.746  0.00  0.00    +0.040 C 
ATOM     22  C2  <0> A   1     -28.004  -6.934  50.776  0.00  0.00    +0.051 C 
ATOM     23  C3  <0> A   1     -28.502  -7.116  49.341  0.00  0.00    +0.040 C 
ENDBRANCH   1  22
BRANCH   5  24
ATOM     24  C8  <0> A   1     -25.118  -6.241  51.499  0.00  0.00    +0.201 C 
ATOM     25  C9  <0> A   1     -24.719  -7.042  50.530  0.00  0.00    -0.048 C 
BRANCH  25  26
ATOM     26  C10 <0> A   1     -23.650  -8.071  50.794  0.00  0.00    +0.268 C 
BRANCH  26  27
ATOM     27  O4  <0> A   1     -24.122  -9.010  51.763  0.00  0.00    -0.538 OA
ATOM     28  H20 <0> A   1     -24.017  -9.934  51.498  0.00  0.00    +0.371 HD
ENDBRANCH  26  27
BRANCH  26  29
ATOM     29  C11 <0> A   1     -23.316  -8.804  49.494  0.00  0.00    -0.014 C 
BRANCH  29  30
ATOM     30  C12 <0> A   1     -24.426  -8.560  48.471  0.00  0.00    +0.233 C 
BRANCH  30  31
ATOM     31  O3  <0> A   1     -23.882  -7.903  47.324  0.00  0.00    -0.530 OA
ATOM     32  H19 <0> A   1     -24.549  -7.564  46.712  0.00  0.00    +0.366 HD
ENDBRANCH  30  31
BRANCH  30  33
ATOM     33  C13 <0> A   1     -25.036  -9.898  48.050  0.00  0.00    +0.073 C 
BRANCH  33  34
ATOM     34  C14 <0> A   1     -25.596 -10.599  49.261  0.00  0.00    +0.456 C 
ATOM     35  O1  <0> A   1     -26.467 -10.076  49.913  0.00  0.00    -0.486 OA
BRANCH  34  36
ATOM     36  O2  <0> A   1     -25.125 -11.805  49.616  0.00  0.00    -0.359 OA
ATOM     37  C15 <0> A   1     -24.132 -12.388  48.769  0.00  0.00    +0.258 C 
ENDBRANCH  34  36
ENDBRANCH  33  34
ENDBRANCH  30  33
ENDBRANCH  29  30
ENDBRANCH  26  29
ENDBRANCH  25  26
ENDBRANCH   5  24
TORSDOF 12
