REMARK  Name = CHEMBL122674
REMARK  12 active torsions:
REMARK  status: ('A' for Active; 'I' for Inactive)
REMARK    1  A    between atoms: C4_4  and  C7_7
REMARK    2  A    between atoms: C10_10  and  C13_13
REMARK    3  A    between atoms: C13_13  and  C14_14
REMARK    4  A    between atoms: N2_21  and  C28_36
REMARK    5  A    between atoms: C20_22  and  C21_23
REMARK    6  A    between atoms: C22_24  and  C23_25
REMARK    7  A    between atoms: C23_25  and  C24_27
REMARK    8  A    between atoms: C23_25  and  O4_35
REMARK    9  A    between atoms: C24_27  and  C25_28
REMARK   10  A    between atoms: C25_28  and  C26_30
REMARK   11  A    between atoms: C25_28  and  O3_34
REMARK   12  A    between atoms: C26_30  and  C27_31
REMARK                            x       y       z     vdW  Elec       q    Type
REMARK                         _______ _______ _______ _____ _____    ______ ____
ROOT
ATOM      1  C14 <0> A   1       7.891  -3.030   1.352  0.00  0.00    +0.092 C 
ATOM      2  C15 <0> A   1       9.274  -3.691   1.343  0.00  0.00    +0.029 C 
ATOM      3  C16 <0> A   1       9.629  -4.169   2.752  0.00  0.00    +0.016 C 
ATOM      4  C17 <0> A   1       8.768  -5.385   3.117  0.00  0.00    +0.104 C 
ATOM      5  C18 <0> A   1       7.326  -5.044   2.834  0.00  0.00    -0.211 C 
ATOM      6  C19 <0> A   1       6.923  -3.969   2.031  0.00  0.00    +0.089 C 
ATOM      7  N1  <0> A   1       5.620  -3.946   1.990  0.00  0.00    -0.263 NA
ATOM      8  N2  <0> A   1       5.125  -5.006   2.763  0.00  0.00    -0.330 N 
ATOM      9  C20 <0> A   1       6.197  -5.681   3.282  0.00  0.00    +0.124 C 
ENDROOT
BRANCH   8  10
ATOM     10  C28 <0> A   1       3.775  -5.318   2.969  0.00  0.00    +0.150 A 
ATOM     11  C29 <0> A   1       3.378  -6.643   3.089  0.00  0.00    +0.047 A 
ATOM     12  C30 <0> A   1       2.046  -6.949   3.292  0.00  0.00    +0.017 A 
ATOM     13  C31 <0> A   1       1.107  -5.934   3.376  0.00  0.00    +0.097 A 
ATOM     14  C32 <0> A   1       1.501  -4.612   3.255  0.00  0.00    +0.007 A 
ATOM     15  C33 <0> A   1       2.832  -4.302   3.058  0.00  0.00    +0.056 A 
ATOM     16  F1  <0> A   1      -0.195  -6.235   3.574  0.00  0.00    -0.135 F 
ENDBRANCH   8  10
BRANCH   9  17
ATOM     17  C21 <0> A   1       6.149  -6.866   4.156  0.00  0.00    +0.027 C 
ATOM     18  C22 <0> A   1       5.373  -6.864   5.235  0.00  0.00    -0.028 C 
BRANCH  18  19
ATOM     19  C23 <0> A   1       5.323  -8.076   6.129  0.00  0.00    +0.254 C 
BRANCH  19  20
ATOM     20  O4  <0> A   1       6.274  -9.042   5.676  0.00  0.00    -0.536 OA
ATOM     21  H28 <0> A   1       7.188  -8.724   5.676  0.00  0.00    +0.368 HD
ENDBRANCH  19  20
BRANCH  19  22
ATOM     22  C24 <0> A   1       5.658  -7.665   7.564  0.00  0.00    -0.040 C 
BRANCH  22  23
ATOM     23  C25 <0> A   1       5.486  -8.870   8.492  0.00  0.00    +0.232 C 
BRANCH  23  24
ATOM     24  O3  <0> A   1       6.444  -9.873   8.153  0.00  0.00    -0.528 OA
ATOM     25  H27 <0> A   1       7.363  -9.582   8.231  0.00  0.00    +0.351 HD
ENDBRANCH  23  24
BRANCH  23  26
ATOM     26  C26 <0> A   1       5.698  -8.431   9.942  0.00  0.00    -0.102 C 
BRANCH  26  27
ATOM     27  C27 <0> A   1       5.409  -9.586  10.865  0.00  0.00    +0.491 C 
ATOM     28  O1  <0> A   1       5.064 -10.662  10.405  0.00  0.00    -0.681 OA
ATOM     29  O2  <0> A   1       5.519  -9.446  12.071  0.00  0.00    -0.712 OA
ENDBRANCH  26  27
ENDBRANCH  23  26
ENDBRANCH  22  23
ENDBRANCH  19  22
ENDBRANCH  18  19
ENDBRANCH   9  17
BRANCH   1  30
ATOM     30  C13 <0> A   1       7.434  -2.768  -0.085  0.00  0.00    +0.081 C 
BRANCH  30  34
ATOM     31  C7  <0> A   1       3.699  -0.689  -0.037  0.00  0.00    -0.050 A 
ATOM     32  C8  <0> A   1       4.896   0.024  -0.040  0.00  0.00    +0.002 A 
ATOM     33  C9  <0> A   1       6.099  -0.652  -0.055  0.00  0.00    +0.007 A 
ATOM     34  C10 <0> A   1       6.118  -2.035  -0.068  0.00  0.00    -0.083 A 
ATOM     35  C11 <0> A   1       4.932  -2.748  -0.066  0.00  0.00    +0.063 A 
ATOM     36  C12 <0> A   1       3.724  -2.082  -0.045  0.00  0.00    +0.005 A 
BRANCH  31  40
ATOM     37  C1  <0> A   1      -0.017   1.379   0.010  0.00  0.00    -0.002 A 
ATOM     38  C2  <0> A   1       1.169   2.092   0.002  0.00  0.00    +0.004 A 
ATOM     39  C3  <0> A   1       2.377   1.426  -0.013  0.00  0.00    +0.010 A 
ATOM     40  C4  <0> A   1       2.402   0.033  -0.021  0.00  0.00    -0.039 A 
ATOM     41  C5  <0> A   1       1.205  -0.680  -0.013  0.00  0.00    +0.011 A 
ATOM     42  C6  <0> A   1       0.002  -0.004   0.002  0.00  0.00    +0.006 A 
ENDBRANCH  31  40
ENDBRANCH  30  34
ENDBRANCH   1  30
TORSDOF 12
