REMARK VINA RESULT:      -7.9      3.467      5.903
REMARK  Name = CHEMBL340139
REMARK  9 active torsions:
REMARK  status: ('A' for Active; 'I' for Inactive)
REMARK    1  A    between atoms: C1_1  and  C2_2
REMARK    2  A    between atoms: C2_2  and  C3_3
REMARK    3  A    between atoms: C2_2  and  C4_4
REMARK    4  A    between atoms: C5_5  and  C23_26
REMARK    5  A    between atoms: C6_6  and  C17_19
REMARK    6  A    between atoms: N1_7  and  C7_9
REMARK    7  A    between atoms: C23_26  and  C24_27
REMARK    8  A    between atoms: C24_27  and  C25_28
REMARK    9  A    between atoms: C27_31  and  O3_37
REMARK                            x       y       z     vdW  Elec       q    Type
REMARK                         _______ _______ _______ _____ _____    ______ ____
ROOT
ATOM      1  C4  <0> A   1     -15.446  10.602  47.361  0.00  0.00    +0.094 C 
ATOM      2  C5  <0> A   1     -14.979   9.602  46.508  0.00  0.00    -0.200 C 
ATOM      3  C6  <0> A   1     -15.240   8.395  47.094  0.00  0.00    +0.131 C 
ATOM      4  N1  <0> A   1     -15.855   8.648  48.287  0.00  0.00    -0.319 N 
ATOM      5  N2  <0> A   1     -15.964  10.038  48.424  0.00  0.00    -0.269 NA
ENDROOT
BRANCH   4   6
ATOM      6  C7  <0> A   1     -16.295   7.693  49.208  0.00  0.00    +0.160 A 
ATOM      7  C8  <0> A   1     -15.514   7.362  50.293  0.00  0.00    +0.020 A 
ATOM      8  C9  <0> A   1     -15.941   6.411  51.216  0.00  0.00    +0.031 A 
ATOM      9  C10 <0> A   1     -17.141   5.783  51.072  0.00  0.00    +0.036 A 
ATOM     10  C11 <0> A   1     -17.969   6.093  49.980  0.00  0.00    -0.040 A 
ATOM     11  C12 <0> A   1     -17.546   7.063  49.038  0.00  0.00    -0.044 A 
ATOM     12  C13 <0> A   1     -18.376   7.375  47.950  0.00  0.00    +0.039 A 
ATOM     13  C14 <0> A   1     -19.577   6.746  47.816  0.00  0.00    +0.010 A 
ATOM     14  C15 <0> A   1     -19.997   5.797  48.745  0.00  0.00    +0.018 A 
ATOM     15  C16 <0> A   1     -19.213   5.461  49.806  0.00  0.00    +0.023 A 
ENDBRANCH   4   6
BRANCH   3  16
ATOM     16  C17 <0> A   1     -14.916   7.063  46.541  0.00  0.00    -0.047 A 
ATOM     17  C18 <0> A   1     -15.782   6.452  45.631  0.00  0.00    +0.082 A 
ATOM     18  C19 <0> A   1     -15.475   5.210  45.117  0.00  0.00    -0.006 A 
ATOM     19  C20 <0> A   1     -14.308   4.568  45.502  0.00  0.00    +0.113 A 
ATOM     20  C21 <0> A   1     -13.446   5.168  46.405  0.00  0.00    -0.011 A 
ATOM     21  C22 <0> A   1     -13.741   6.413  46.920  0.00  0.00    +0.065 A 
ATOM     22  F1  <0> A   1     -14.013   3.350  44.996  0.00  0.00    -0.136 F 
ENDBRANCH   3  16
BRANCH   1  24
ATOM     23  C1  <0> A   1     -16.567  12.780  47.743  0.00  0.00    +0.035 C 
ATOM     24  C2  <0> A   1     -15.362  12.085  47.106  0.00  0.00    +0.075 C 
ATOM     25  C3  <0> A   1     -14.073  12.636  47.718  0.00  0.00    +0.035 C 
ENDBRANCH   1  24
BRANCH   2  26
ATOM     26  C23 <0> A   1     -14.308   9.815  45.176  0.00  0.00    +0.112 C 
BRANCH  26  27
ATOM     27  C24 <0> A   1     -12.816   9.500  45.300  0.00  0.00    +0.055 C 
BRANCH  27  28
ATOM     28  C25 <0> A   1     -12.251   9.152  43.922  0.00  0.00    +0.197 C 
ATOM     29  C26 <0> A   1     -12.698   7.741  43.529  0.00  0.00    +0.040 C 
ATOM     30  C27 <0> A   1     -12.165   7.410  42.131  0.00  0.00    +0.183 C 
ATOM     31  C28 <0> A   1     -12.716   8.438  41.135  0.00  0.00    +0.020 C 
ATOM     32  C29 <0> A   1     -12.422   9.823  41.670  0.00  0.00    +0.496 C 
ATOM     33  O1  <0> A   1     -11.918  10.667  40.967  0.00  0.00    -0.453 OA
ATOM     34  O2  <0> A   1     -12.738  10.088  42.954  0.00  0.00    -0.365 OA
BRANCH  30  35
ATOM     35  O3  <0> A   1     -10.736   7.465  42.138  0.00  0.00    -0.563 OA
ATOM     36  H29 <0> A   1     -10.331   7.054  42.914  0.00  0.00    +0.386 HD
ENDBRANCH  30  35
ENDBRANCH  27  28
ENDBRANCH  26  27
ENDBRANCH   2  26
TORSDOF 7
