REMARK VINA RESULT:      -8.1     14.744     21.079
REMARK  Name = CHEMBL123826
REMARK  15 active torsions:
REMARK  status: ('A' for Active; 'I' for Inactive)
REMARK    1  A    between atoms: C1_1  and  C2_2
REMARK    2  A    between atoms: C2_2  and  C3_3
REMARK    3  A    between atoms: C2_2  and  C4_4
REMARK    4  A    between atoms: C2_2  and  C5_5
REMARK    5  A    between atoms: C8_8  and  C11_11
REMARK    6  A    between atoms: C11_11  and  C12_12
REMARK    7  A    between atoms: N2_19  and  C26_34
REMARK    8  A    between atoms: C18_20  and  C19_21
REMARK    9  A    between atoms: C20_22  and  C21_23
REMARK   10  A    between atoms: C21_23  and  C22_25
REMARK   11  A    between atoms: C21_23  and  O4_33
REMARK   12  A    between atoms: C22_25  and  C23_26
REMARK   13  A    between atoms: C23_26  and  C24_28
REMARK   14  A    between atoms: C23_26  and  O3_32
REMARK   15  A    between atoms: C24_28  and  C25_29
REMARK                            x       y       z     vdW  Elec       q    Type
REMARK                         _______ _______ _______ _____ _____    ______ ____
ROOT
ATOM      1  C12 <0> A   1     -25.144  -3.762  50.858  0.00  0.00    +0.091 C 
ATOM      2  C13 <0> A   1     -26.001  -3.204  52.001  0.00  0.00    +0.028 C 
ATOM      3  C14 <0> A   1     -27.465  -3.591  51.787  0.00  0.00    +0.016 C 
ATOM      4  C15 <0> A   1     -27.645  -5.093  52.043  0.00  0.00    +0.103 C 
ATOM      5  C16 <0> A   1     -26.601  -5.835  51.248  0.00  0.00    -0.211 C 
ATOM      6  C17 <0> A   1     -25.459  -5.231  50.704  0.00  0.00    +0.089 C 
ATOM      7  N1  <0> A   1     -24.766  -6.139  50.077  0.00  0.00    -0.260 NA
ATOM      8  N2  <0> A   1     -25.429  -7.370  50.189  0.00  0.00    -0.331 N 
ATOM      9  C18 <0> A   1     -26.568  -7.167  50.921  0.00  0.00    +0.123 C 
ENDROOT
BRANCH   8  10
ATOM     10  C26 <0> A   1     -25.000  -8.590  49.650  0.00  0.00    +0.150 A 
ATOM     11  C27 <0> A   1     -25.427  -8.982  48.389  0.00  0.00    +0.047 A 
ATOM     12  C28 <0> A   1     -25.003 -10.184  47.860  0.00  0.00    +0.016 A 
ATOM     13  C29 <0> A   1     -24.150 -10.999  48.586  0.00  0.00    +0.097 A 
ATOM     14  C30 <0> A   1     -23.722 -10.611  49.844  0.00  0.00    +0.006 A 
ATOM     15  C31 <0> A   1     -24.140  -9.406  50.375  0.00  0.00    +0.057 A 
ATOM     16  F1  <0> A   1     -23.736 -12.175  48.066  0.00  0.00    -0.135 F 
ENDBRANCH   8  10
BRANCH   9  17
ATOM     17  C19 <0> A   1     -27.569  -8.184  51.286  0.00  0.00    +0.027 C 
ATOM     18  C20 <0> A   1     -28.702  -8.277  50.599  0.00  0.00    -0.028 C 
BRANCH  18  19
ATOM     19  C21 <0> A   1     -29.725  -9.318  50.973  0.00  0.00    +0.254 C 
BRANCH  19  20
ATOM     20  O4  <0> A   1     -29.180 -10.621  50.757  0.00  0.00    -0.537 OA
ATOM     21  H32 <0> A   1     -29.055 -11.134  51.568  0.00  0.00    +0.368 HD
ENDBRANCH  19  20
BRANCH  19  22
ATOM     22  C22 <0> A   1     -30.099  -9.159  52.449  0.00  0.00    -0.040 C 
BRANCH  22  23
ATOM     23  C23 <0> A   1     -31.324 -10.021  52.760  0.00  0.00    +0.232 C 
BRANCH  23  24
ATOM     24  O3  <0> A   1     -31.782 -10.649  51.561  0.00  0.00    -0.528 OA
ATOM     25  H31 <0> A   1     -32.037 -10.029  50.864  0.00  0.00    +0.351 HD
ENDBRANCH  23  24
BRANCH  23  26
ATOM     26  C24 <0> A   1     -30.946 -11.092  53.785  0.00  0.00    -0.102 C 
BRANCH  26  27
ATOM     27  C25 <0> A   1     -30.942 -12.445  53.120  0.00  0.00    +0.491 C 
ATOM     28  O1  <0> A   1     -30.004 -12.774  52.413  0.00  0.00    -0.681 OA
ATOM     29  O2  <0> A   1     -31.875 -13.211  53.290  0.00  0.00    -0.713 OA
ENDBRANCH  26  27
ENDBRANCH  23  26
ENDBRANCH  22  23
ENDBRANCH  19  22
ENDBRANCH  18  19
ENDBRANCH   9  17
BRANCH   1  30
ATOM     30  C11 <0> A   1     -23.661  -3.585  51.190  0.00  0.00    +0.079 C 
BRANCH  30  34
ATOM     31  C5  <0> A   1     -22.790   0.572  51.650  0.00  0.00    -0.070 A 
ATOM     32  C6  <0> A   1     -22.278  -0.344  52.548  0.00  0.00    -0.011 A 
ATOM     33  C7  <0> A   1     -22.560  -1.690  52.400  0.00  0.00    +0.002 A 
ATOM     34  C8  <0> A   1     -23.355  -2.118  51.353  0.00  0.00    -0.091 A 
ATOM     35  C9  <0> A   1     -23.868  -1.201  50.455  0.00  0.00    +0.059 A 
ATOM     36  C10 <0> A   1     -23.589   0.145  50.605  0.00  0.00    -0.007 A 
BRANCH  31  38
ATOM     37  C1  <0> A   1     -21.391   2.217  52.868  0.00  0.00    +0.030 C 
ATOM     38  C2  <0> A   1     -22.483   2.038  51.811  0.00  0.00    -0.029 C 
ATOM     39  C3  <0> A   1     -23.747   2.780  52.253  0.00  0.00    +0.030 C 
ATOM     40  C4  <0> A   1     -21.999   2.608  50.476  0.00  0.00    +0.028 C 
ENDBRANCH  31  38
ENDBRANCH  30  34
ENDBRANCH   1  30
TORSDOF 12
