REMARK VINA RESULT:      -8.2     15.526     17.707
REMARK  Name = CHEMBL398403
REMARK  17 active torsions:
REMARK  status: ('A' for Active; 'I' for Inactive)
REMARK    1  A    between atoms: C1_1  and  C2_2
REMARK    2  A    between atoms: C2_2  and  N1_3
REMARK    3  A    between atoms: C3_4  and  C23_29
REMARK    4  A    between atoms: C4_5  and  C17_22
REMARK    5  A    between atoms: C5_6  and  C16_21
REMARK    6  A    between atoms: C6_7  and  C7_8
REMARK    7  A    between atoms: N2_10  and  C8_11
REMARK    8  A    between atoms: C8_11  and  C9_12
REMARK    9  A    between atoms: C12_15  and  C15_18
REMARK   10  A    between atoms: C23_29  and  C24_30
REMARK   11  A    between atoms: C24_30  and  C25_31
REMARK   12  A    between atoms: C25_31  and  C26_33
REMARK   13  A    between atoms: C25_31  and  O7_41
REMARK   14  A    between atoms: C26_33  and  C27_34
REMARK   15  A    between atoms: C27_34  and  C28_36
REMARK   16  A    between atoms: C27_34  and  O6_40
REMARK   17  A    between atoms: C28_36  and  C29_37
REMARK                            x       y       z     vdW  Elec       q    Type
REMARK                         _______ _______ _______ _____ _____    ______ ____
ROOT
ATOM      1  N1  <0> A   1     -22.402  -2.634  53.144  0.00  0.00    -0.407 N 
ATOM      2  C3  <0> A   1     -23.473  -2.342  52.378  0.00  0.00    +0.073 C 
ATOM      3  C4  <0> A   1     -24.224  -1.400  53.022  0.00  0.00    -0.145 C 
ATOM      4  C5  <0> A   1     -23.579  -1.104  54.239  0.00  0.00    -0.090 C 
ATOM      5  C6  <0> A   1     -22.458  -1.884  54.298  0.00  0.00    -0.043 C 
ATOM      6  C16 <0> A   1     -24.042  -0.120  55.282  0.00  0.00    +0.108 C 
ENDROOT
BRANCH   3   7
ATOM      7  C17 <0> A   1     -25.488  -0.796  52.529  0.00  0.00    -0.002 A 
ATOM      8  C18 <0> A   1     -26.715  -1.281  52.978  0.00  0.00    +0.050 A 
ATOM      9  C19 <0> A   1     -27.887  -0.716  52.517  0.00  0.00    -0.017 A 
ATOM     10  C20 <0> A   1     -27.845   0.330  51.609  0.00  0.00    +0.089 A 
ATOM     11  C21 <0> A   1     -26.627   0.814  51.162  0.00  0.00    -0.019 A 
ATOM     12  C22 <0> A   1     -25.450   0.260  51.622  0.00  0.00    +0.052 A 
ATOM     13  F1  <0> A   1     -28.995   0.878  51.160  0.00  0.00    -0.144 F 
ENDBRANCH   3   7
BRANCH   5  14
ATOM     14  C7  <0> A   1     -21.482  -1.912  55.393  0.00  0.00    +0.594 C 
ATOM     15  O1  <0> A   1     -20.888  -0.896  55.705  0.00  0.00    -0.530 OA
ATOM     16  N2  <0> A   1     -21.243  -3.062  56.053  0.00  0.00    -0.713 N 
ATOM     17  H8  <0> A   1     -21.660  -3.887  55.758  0.00  0.00    +0.406 HD
BRANCH  16  18
ATOM     18  C8  <0> A   1     -20.354  -3.067  57.217  0.00  0.00    +0.315 C 
BRANCH  18  19
ATOM     19  C9  <0> A   1     -18.962  -3.449  56.784  0.00  0.00    -0.128 A 
ATOM     20  C10 <0> A   1     -17.888  -3.199  57.621  0.00  0.00    -0.003 A 
ATOM     21  C11 <0> A   1     -16.611  -3.547  57.232  0.00  0.00    +0.039 A 
ATOM     22  C12 <0> A   1     -16.403  -4.152  55.990  0.00  0.00    -0.122 A 
ATOM     23  C13 <0> A   1     -17.492  -4.402  55.151  0.00  0.00    +0.039 A 
ATOM     24  C14 <0> A   1     -18.765  -4.054  55.555  0.00  0.00    -0.001 A 
BRANCH  22  25
ATOM     25  C15 <0> A   1     -15.040  -4.526  55.566  0.00  0.00    +0.518 C 
ATOM     26  O2  <0> A   1     -14.783  -4.650  54.377  0.00  0.00    -0.686 OA
ATOM     27  O3  <0> A   1     -14.168  -4.710  56.402  0.00  0.00    -0.686 OA
ENDBRANCH  22  25
ENDBRANCH  18  19
ENDBRANCH  16  18
ENDBRANCH   5  14
BRANCH   1  29
ATOM     28  C1  <0> A   1     -20.141  -2.858  52.239  0.00  0.00    +0.038 C 
ATOM     29  C2  <0> A   1     -21.353  -3.600  52.806  0.00  0.00    +0.281 C 
ENDBRANCH   1  29
BRANCH   2  30
ATOM     30  C23 <0> A   1     -23.789  -2.951  51.037  0.00  0.00    +0.116 C 
BRANCH  30  31
ATOM     31  C24 <0> A   1     -24.911  -3.979  51.195  0.00  0.00    -0.008 C 
BRANCH  31  32
ATOM     32  C25 <0> A   1     -24.404  -5.358  50.771  0.00  0.00    +0.212 C 
BRANCH  32  33
ATOM     33  O7  <0> A   1     -23.622  -5.923  51.825  0.00  0.00    -0.542 OA
ATOM     34  H31 <0> A   1     -22.726  -5.563  51.887  0.00  0.00    +0.363 HD
ENDBRANCH  32  33
BRANCH  32  35
ATOM     35  C26 <0> A   1     -25.595  -6.271  50.476  0.00  0.00    -0.051 C 
BRANCH  35  36
ATOM     36  C27 <0> A   1     -25.162  -7.381  49.516  0.00  0.00    +0.230 C 
BRANCH  36  37
ATOM     37  O6  <0> A   1     -23.855  -7.092  49.014  0.00  0.00    -0.528 OA
ATOM     38  H30 <0> A   1     -23.833  -6.376  48.365  0.00  0.00    +0.349 HD
ENDBRANCH  36  37
BRANCH  36  39
ATOM     39  C28 <0> A   1     -25.138  -8.718  50.259  0.00  0.00    -0.103 C 
BRANCH  39  40
ATOM     40  C29 <0> A   1     -23.710  -9.154  50.464  0.00  0.00    +0.491 C 
ATOM     41  O4  <0> A   1     -23.071  -8.723  51.409  0.00  0.00    -0.681 OA
ATOM     42  O5  <0> A   1     -23.194  -9.937  49.686  0.00  0.00    -0.715 OA
ENDBRANCH  39  40
ENDBRANCH  36  39
ENDBRANCH  35  36
ENDBRANCH  32  35
ENDBRANCH  31  32
ENDBRANCH  30  31
ENDBRANCH   2  30
TORSDOF 15
