REMARK VINA RESULT:      -7.8      4.419      8.954
REMARK  Name = CHEMBL157882
REMARK  8 active torsions:
REMARK  status: ('A' for Active; 'I' for Inactive)
REMARK    1  A    between atoms: C1_1  and  C2_2
REMARK    2  A    between atoms: C2_2  and  C3_3
REMARK    3  A    between atoms: C2_2  and  C4_4
REMARK    4  A    between atoms: C5_5  and  C21_23
REMARK    5  A    between atoms: C6_6  and  C15_16
REMARK    6  A    between atoms: C8_8  and  C9_10
REMARK    7  A    between atoms: C22_24  and  C23_25
REMARK    8  A    between atoms: C25_27  and  O3_33
REMARK                            x       y       z     vdW  Elec       q    Type
REMARK                         _______ _______ _______ _____ _____    ______ ____
ROOT
ATOM      1  C4  <0> A   1     -27.308  -4.057  50.174  0.00  0.00    +0.161 A 
ATOM      2  C5  <0> A   1     -26.506  -3.022  50.653  0.00  0.00    -0.103 A 
ATOM      3  C6  <0> A   1     -25.238  -3.337  51.184  0.00  0.00    +0.010 A 
ATOM      4  C7  <0> A   1     -24.850  -4.679  51.202  0.00  0.00    -0.023 A 
ATOM      5  C8  <0> A   1     -25.711  -5.636  50.705  0.00  0.00    +0.146 A 
ATOM      6  N1  <0> A   1     -26.893  -5.306  50.220  0.00  0.00    -0.473 NA
ENDROOT
BRANCH   3   7
ATOM      7  C15 <0> A   1     -24.346  -2.277  51.706  0.00  0.00    -0.064 A 
ATOM      8  C16 <0> A   1     -24.434  -1.882  53.040  0.00  0.00    +0.074 A 
ATOM      9  C17 <0> A   1     -23.600  -0.894  53.521  0.00  0.00    -0.013 A 
ATOM     10  C18 <0> A   1     -22.677  -0.294  52.680  0.00  0.00    +0.108 A 
ATOM     11  C19 <0> A   1     -22.585  -0.682  51.354  0.00  0.00    -0.014 A 
ATOM     12  C20 <0> A   1     -23.411  -1.674  50.865  0.00  0.00    +0.060 A 
ATOM     13  F1  <0> A   1     -21.864   0.675  53.155  0.00  0.00    -0.137 F 
ENDBRANCH   3   7
BRANCH   5  14
ATOM     14  C9  <0> A   1     -25.296  -7.085  50.723  0.00  0.00    +0.054 C 
ATOM     15  C10 <0> A   1     -24.831  -7.499  49.326  0.00  0.00    +0.017 C 
ATOM     16  C11 <0> A   1     -24.411  -8.970  49.344  0.00  0.00    +0.009 C 
ATOM     17  C12 <0> A   1     -23.266  -9.161  50.340  0.00  0.00    +0.003 C 
ATOM     18  C13 <0> A   1     -23.731  -8.746  51.738  0.00  0.00    +0.009 C 
ATOM     19  C14 <0> A   1     -24.151  -7.275  51.719  0.00  0.00    +0.022 C 
ENDBRANCH   5  14
BRANCH   1  21
ATOM     20  C1  <0> A   1     -28.797  -4.381  48.216  0.00  0.00    +0.037 C 
ATOM     21  C2  <0> A   1     -28.667  -3.743  49.601  0.00  0.00    +0.041 C 
ATOM     22  C3  <0> A   1     -29.751  -4.304  50.525  0.00  0.00    +0.037 C 
ENDBRANCH   1  21
BRANCH   2  23
ATOM     23  C21 <0> A   1     -26.974  -1.623  50.604  0.00  0.00    +0.049 C 
ATOM     24  C22 <0> A   1     -27.699  -1.132  51.601  0.00  0.00    -0.014 C 
BRANCH  24  25
ATOM     25  C23 <0> A   1     -28.177   0.296  51.552  0.00  0.00    +0.242 C 
ATOM     26  C24 <0> A   1     -27.312   1.159  52.476  0.00  0.00    +0.050 C 
ATOM     27  C25 <0> A   1     -27.827   2.600  52.456  0.00  0.00    +0.186 C 
ATOM     28  C26 <0> A   1     -29.286   2.613  52.930  0.00  0.00    +0.024 C 
ATOM     29  C27 <0> A   1     -30.058   1.598  52.116  0.00  0.00    +0.498 C 
ATOM     30  O1  <0> A   1     -31.109   1.889  51.596  0.00  0.00    -0.450 OA
ATOM     31  O2  <0> A   1     -29.540   0.360  51.987  0.00  0.00    -0.369 OA
BRANCH  27  32
ATOM     32  O3  <0> A   1     -27.749   3.118  51.125  0.00  0.00    -0.564 OA
ATOM     33  H32 <0> A   1     -28.605   3.364  50.749  0.00  0.00    +0.387 HD
ENDBRANCH  27  32
ENDBRANCH  24  25
ENDBRANCH   2  23
TORSDOF 6
