REMARK VINA RESULT:      -8.6      1.694      2.374
REMARK  Name = CHEMBL355889
REMARK  10 active torsions:
REMARK  status: ('A' for Active; 'I' for Inactive)
REMARK    1  A    between atoms: C1_1  and  C2_2
REMARK    2  A    between atoms: C4_5  and  O4_28
REMARK    3  A    between atoms: C6_8  and  C13_17
REMARK    4  A    between atoms: C7_10  and  C12_16
REMARK    5  A    between atoms: C13_17  and  C14_18
REMARK    6  A    between atoms: C14_18  and  C15_19
REMARK    7  A    between atoms: C17_21  and  O3_27
REMARK    8  A    between atoms: O4_28  and  C20_29
REMARK    9  A    between atoms: C20_29  and  O6_31
REMARK   10  A    between atoms: O6_31  and  C21_32
REMARK                            x       y       z     vdW  Elec       q    Type
REMARK                         _______ _______ _______ _____ _____    ______ ____
ROOT
ATOM      1  C1  <0> A   1      -0.136   2.740  44.639  0.00  0.00    +0.035 C 
ATOM      2  C2  <0> A   1      -1.524   3.351  44.438  0.00  0.00    +0.027 C 
ATOM      3  C3  <0> A   1      -2.006   3.989  45.748  0.00  0.00    +0.023 C 
ATOM      4  C4  <0> A   1      -3.380   4.610  45.504  0.00  0.00    +0.191 C 
ATOM      5  C5  <0> A   1      -4.386   3.586  45.034  0.00  0.00    +0.044 C 
ATOM      6  C6  <0> A   1      -5.281   3.098  46.176  0.00  0.00    +0.012 C 
ATOM      7  C7  <0> A   1      -6.412   2.252  45.587  0.00  0.00    +0.023 C 
ATOM      8  C8  <0> A   1      -5.889   1.207  44.650  0.00  0.00    -0.030 C 
ATOM      9  C9  <0> A   1      -4.700   1.253  44.076  0.00  0.00    -0.005 C 
ATOM     10  C10 <0> A   1      -3.788   2.385  44.363  0.00  0.00    -0.085 C 
ATOM     11  C11 <0> A   1      -2.508   2.272  44.062  0.00  0.00    -0.019 C 
ATOM     12  C12 <0> A   1      -7.374   3.167  44.827  0.00  0.00    +0.030 C 
ENDROOT
BRANCH   6  13
ATOM     13  C13 <0> A   1      -5.868   4.299  46.918  0.00  0.00    +0.060 C 
BRANCH  13  14
ATOM     14  C14 <0> A   1      -6.287   3.875  48.327  0.00  0.00    +0.044 C 
BRANCH  14  15
ATOM     15  C15 <0> A   1      -7.807   3.980  48.461  0.00  0.00    +0.196 C 
ATOM     16  C16 <0> A   1      -8.319   5.135  47.595  0.00  0.00    +0.038 C 
ATOM     17  C17 <0> A   1      -9.836   5.263  47.765  0.00  0.00    +0.182 C 
ATOM     18  C18 <0> A   1     -10.149   5.529  49.242  0.00  0.00    +0.018 C 
ATOM     19  C19 <0> A   1      -9.454   4.472  50.073  0.00  0.00    +0.496 C 
ATOM     20  O1  <0> A   1     -10.052   3.863  50.929  0.00  0.00    -0.454 OA
ATOM     21  O2  <0> A   1      -8.150   4.229  49.830  0.00  0.00    -0.367 OA
BRANCH  17  22
ATOM     22  O3  <0> A   1     -10.469   4.051  47.349  0.00  0.00    -0.562 OA
ATOM     23  H27 <0> A   1     -11.239   4.185  46.780  0.00  0.00    +0.385 HD
ENDBRANCH  17  22
ENDBRANCH  14  15
ENDBRANCH  13  14
ENDBRANCH   6  13
BRANCH   4  24
ATOM     24  O4  <0> A   1      -3.849   5.197  46.719  0.00  0.00    -0.284 OA
BRANCH  24  25
ATOM     25  C20 <0> A   1      -3.650   6.517  46.877  0.00  0.00    +0.582 C 
ATOM     26  O5  <0> A   1      -3.091   7.155  46.007  0.00  0.00    -0.529 OA
BRANCH  25  27
ATOM     27  O6  <0> A   1      -4.071   7.133  47.996  0.00  0.00    -0.266 OA
BRANCH  27  28
ATOM     28  C21 <0> A   1      -3.143   7.458  48.935  0.00  0.00    +0.090 A 
ATOM     29  C22 <0> A   1      -2.707   8.769  49.057  0.00  0.00    +0.023 A 
ATOM     30  C23 <0> A   1      -1.765   9.096  50.013  0.00  0.00    +0.026 A 
ATOM     31  C24 <0> A   1      -1.257   8.119  50.848  0.00  0.00    +0.022 A 
ATOM     32  C25 <0> A   1      -1.691   6.811  50.729  0.00  0.00    +0.028 A 
ATOM     33  C26 <0> A   1      -2.636   6.479  49.778  0.00  0.00    +0.021 A 
ENDBRANCH  27  28
ENDBRANCH  25  27
ENDBRANCH  24  25
ENDBRANCH   4  24
TORSDOF 8
