REMARK VINA RESULT:      -8.9      0.000      0.000
REMARK  Name = CHEMBL355889
REMARK  10 active torsions:
REMARK  status: ('A' for Active; 'I' for Inactive)
REMARK    1  A    between atoms: C1_1  and  C2_2
REMARK    2  A    between atoms: C4_5  and  O4_28
REMARK    3  A    between atoms: C6_8  and  C13_17
REMARK    4  A    between atoms: C7_10  and  C12_16
REMARK    5  A    between atoms: C13_17  and  C14_18
REMARK    6  A    between atoms: C14_18  and  C15_19
REMARK    7  A    between atoms: C17_21  and  O3_27
REMARK    8  A    between atoms: O4_28  and  C20_29
REMARK    9  A    between atoms: C20_29  and  O6_31
REMARK   10  A    between atoms: O6_31  and  C21_32
REMARK                            x       y       z     vdW  Elec       q    Type
REMARK                         _______ _______ _______ _____ _____    ______ ____
ROOT
ATOM      1  C1  <0> A   1      -0.149   2.819  44.913  0.00  0.00    +0.035 C 
ATOM      2  C2  <0> A   1      -1.525   3.402  44.582  0.00  0.00    +0.027 C 
ATOM      3  C3  <0> A   1      -2.090   4.128  45.810  0.00  0.00    +0.023 C 
ATOM      4  C4  <0> A   1      -3.449   4.719  45.436  0.00  0.00    +0.191 C 
ATOM      5  C5  <0> A   1      -4.420   3.654  44.981  0.00  0.00    +0.044 C 
ATOM      6  C6  <0> A   1      -5.382   3.242  46.098  0.00  0.00    +0.012 C 
ATOM      7  C7  <0> A   1      -6.470   2.347  45.502  0.00  0.00    +0.023 C 
ATOM      8  C8  <0> A   1      -5.886   1.241  44.677  0.00  0.00    -0.030 C 
ATOM      9  C9  <0> A   1      -4.663   1.256  44.177  0.00  0.00    -0.005 C 
ATOM     10  C10 <0> A   1      -3.776   2.414  44.437  0.00  0.00    -0.085 C 
ATOM     11  C11 <0> A   1      -2.479   2.291  44.225  0.00  0.00    -0.019 C 
ATOM     12  C12 <0> A   1      -7.387   3.196  44.619  0.00  0.00    +0.030 C 
ENDROOT
BRANCH   6  13
ATOM     13  C13 <0> A   1      -6.019   4.490  46.712  0.00  0.00    +0.060 C 
BRANCH  13  14
ATOM     14  C14 <0> A   1      -7.132   4.073  47.676  0.00  0.00    +0.044 C 
BRANCH  14  15
ATOM     15  C15 <0> A   1      -6.514   3.524  48.963  0.00  0.00    +0.196 C 
ATOM     16  C16 <0> A   1      -7.604   3.369  50.028  0.00  0.00    +0.038 C 
ATOM     17  C17 <0> A   1      -6.973   2.858  51.328  0.00  0.00    +0.182 C 
ATOM     18  C18 <0> A   1      -5.915   3.865  51.794  0.00  0.00    +0.018 C 
ATOM     19  C19 <0> A   1      -4.975   4.136  50.639  0.00  0.00    +0.496 C 
ATOM     20  O1  <0> A   1      -3.777   4.088  50.788  0.00  0.00    -0.454 OA
ATOM     21  O2  <0> A   1      -5.515   4.433  49.439  0.00  0.00    -0.367 OA
BRANCH  17  22
ATOM     22  O3  <0> A   1      -6.361   1.588  51.097  0.00  0.00    -0.562 OA
ATOM     23  H27 <0> A   1      -6.340   1.015  51.875  0.00  0.00    +0.385 HD
ENDBRANCH  17  22
ENDBRANCH  14  15
ENDBRANCH  13  14
ENDBRANCH   6  13
BRANCH   4  24
ATOM     24  O4  <0> A   1      -3.995   5.387  46.574  0.00  0.00    -0.284 OA
BRANCH  24  25
ATOM     25  C20 <0> A   1      -3.796   6.715  46.656  0.00  0.00    +0.582 C 
ATOM     26  O5  <0> A   1      -4.716   7.481  46.450  0.00  0.00    -0.529 OA
BRANCH  25  27
ATOM     27  O6  <0> A   1      -2.579   7.196  46.968  0.00  0.00    -0.266 OA
BRANCH  27  28
ATOM     28  C21 <0> A   1      -2.330   7.513  48.266  0.00  0.00    +0.090 A 
ATOM     29  C22 <0> A   1      -2.470   8.822  48.701  0.00  0.00    +0.023 A 
ATOM     30  C23 <0> A   1      -2.217   9.141  50.021  0.00  0.00    +0.026 A 
ATOM     31  C24 <0> A   1      -1.824   8.156  50.909  0.00  0.00    +0.022 A 
ATOM     32  C25 <0> A   1      -1.684   6.850  50.478  0.00  0.00    +0.028 A 
ATOM     33  C26 <0> A   1      -1.941   6.525  49.160  0.00  0.00    +0.021 A 
ENDBRANCH  27  28
ENDBRANCH  25  27
ENDBRANCH  24  25
ENDBRANCH   4  24
TORSDOF 8
