REMARK VINA RESULT:      -8.3      0.000      0.000
REMARK  Name = CHEMBL235472
REMARK  17 active torsions:
REMARK  status: ('A' for Active; 'I' for Inactive)
REMARK    1  A    between atoms: C1_1  and  C2_2
REMARK    2  A    between atoms: C2_2  and  C3_3
REMARK    3  A    between atoms: C2_2  and  N1_4
REMARK    4  A    between atoms: C4_5  and  C27_32
REMARK    5  A    between atoms: C5_6  and  C21_25
REMARK    6  A    between atoms: C6_7  and  C16_19
REMARK    7  A    between atoms: C7_8  and  C8_9
REMARK    8  A    between atoms: N2_11  and  C9_12
REMARK    9  A    between atoms: C9_12  and  C10_13
REMARK   10  A    between atoms: C27_32  and  C28_33
REMARK   11  A    between atoms: C28_33  and  C29_34
REMARK   12  A    between atoms: C29_34  and  C30_36
REMARK   13  A    between atoms: C29_34  and  O5_44
REMARK   14  A    between atoms: C30_36  and  C31_37
REMARK   15  A    between atoms: C31_37  and  C32_39
REMARK   16  A    between atoms: C31_37  and  O4_43
REMARK   17  A    between atoms: C32_39  and  C33_40
REMARK                            x       y       z     vdW  Elec       q    Type
REMARK                         _______ _______ _______ _____ _____    ______ ____
ROOT
ATOM      1  N1  <0> A   1     -15.771   6.239  45.542  0.00  0.00    -0.395 N 
ATOM      2  C4  <0> A   1     -14.561   6.741  45.197  0.00  0.00    +0.066 C 
ATOM      3  C5  <0> A   1     -14.312   7.855  45.943  0.00  0.00    -0.098 C 
ATOM      4  C6  <0> A   1     -15.428   8.053  46.796  0.00  0.00    -0.064 C 
ATOM      5  C7  <0> A   1     -16.327   7.031  46.519  0.00  0.00    -0.020 C 
ENDROOT
BRANCH   3   6
ATOM      6  C21 <0> A   1     -13.096   8.703  45.875  0.00  0.00    +0.007 A 
ATOM      7  C22 <0> A   1     -11.956   8.349  46.595  0.00  0.00    +0.046 A 
ATOM      8  C23 <0> A   1     -10.828   9.141  46.529  0.00  0.00    -0.022 A 
ATOM      9  C24 <0> A   1     -10.827  10.286  45.749  0.00  0.00    +0.093 A 
ATOM     10  C25 <0> A   1     -11.958  10.640  45.031  0.00  0.00    -0.022 A 
ATOM     11  C26 <0> A   1     -13.089   9.852  45.087  0.00  0.00    +0.071 A 
ATOM     12  F1  <0> A   1      -9.721  11.058  45.688  0.00  0.00    -0.145 F 
ENDBRANCH   3   6
BRANCH   4  13
ATOM     13  C16 <0> A   1     -15.603   9.141  47.784  0.00  0.00    +0.205 A 
ATOM     14  C17 <0> A   1     -16.287  10.301  47.422  0.00  0.00    -0.044 A 
ATOM     15  C18 <0> A   1     -16.442  11.310  48.357  0.00  0.00    +0.061 A 
ATOM     16  C19 <0> A   1     -15.908  11.126  49.624  0.00  0.00    -0.050 A 
ATOM     17  C20 <0> A   1     -15.240   9.951  49.916  0.00  0.00    +0.262 A 
ATOM     18  N3  <0> A   1     -15.110   9.004  49.009  0.00  0.00    -0.461 NA
ENDBRANCH   4  13
BRANCH   5  19
ATOM     19  C8  <0> A   1     -17.632   6.831  47.156  0.00  0.00    +0.601 C 
ATOM     20  O1  <0> A   1     -18.653   7.019  46.521  0.00  0.00    -0.517 OA
ATOM     21  N2  <0> A   1     -17.700   6.438  48.443  0.00  0.00    -0.718 N 
ATOM     22  H10 <0> A   1     -16.889   6.357  48.969  0.00  0.00    +0.407 HD
BRANCH  21  23
ATOM     23  C9  <0> A   1     -18.999   6.134  49.048  0.00  0.00    +0.320 C 
BRANCH  23  24
ATOM     24  C10 <0> A   1     -19.450   7.304  49.884  0.00  0.00    -0.112 A 
ATOM     25  C11 <0> A   1     -18.570   8.330  50.169  0.00  0.00    +0.025 A 
ATOM     26  C12 <0> A   1     -18.983   9.405  50.935  0.00  0.00    +0.004 A 
ATOM     27  C13 <0> A   1     -20.280   9.453  51.415  0.00  0.00    +0.013 A 
ATOM     28  C14 <0> A   1     -21.161   8.427  51.127  0.00  0.00    +0.003 A 
ATOM     29  C15 <0> A   1     -20.748   7.356  50.358  0.00  0.00    +0.026 A 
ENDBRANCH  23  24
ENDBRANCH  21  23
ENDBRANCH   5  19
BRANCH   1  31
ATOM     30  C1  <0> A   1     -16.970   5.387  43.588  0.00  0.00    +0.043 C 
ATOM     31  C2  <0> A   1     -16.391   5.046  44.962  0.00  0.00    +0.230 C 
ATOM     32  C3  <0> A   1     -15.338   3.946  44.813  0.00  0.00    +0.046 C 
ENDBRANCH   1  31
BRANCH   2  33
ATOM     33  C27 <0> A   1     -13.638   6.161  44.156  0.00  0.00    +0.120 C 
BRANCH  33  34
ATOM     34  C28 <0> A   1     -13.751   6.973  42.866  0.00  0.00    -0.008 C 
BRANCH  34  35
ATOM     35  C29 <0> A   1     -12.350   7.305  42.348  0.00  0.00    +0.213 C 
BRANCH  35  36
ATOM     36  O5  <0> A   1     -11.574   6.108  42.271  0.00  0.00    -0.542 OA
ATOM     37  H35 <0> A   1     -10.953   5.994  43.004  0.00  0.00    +0.362 HD
ENDBRANCH  35  36
BRANCH  35  38
ATOM     38  C30 <0> A   1     -12.456   7.933  40.956  0.00  0.00    -0.051 C 
BRANCH  38  39
ATOM     39  C31 <0> A   1     -12.978   9.366  41.082  0.00  0.00    +0.231 C 
BRANCH  39  40
ATOM     40  O4  <0> A   1     -11.884  10.248  41.351  0.00  0.00    -0.528 OA
ATOM     41  H34 <0> A   1     -11.017   9.869  41.155  0.00  0.00    +0.349 HD
ENDBRANCH  39  40
BRANCH  39  42
ATOM     42  C32 <0> A   1     -13.655   9.779  39.773  0.00  0.00    -0.103 C 
BRANCH  42  43
ATOM     43  C33 <0> A   1     -13.545  11.272  39.601  0.00  0.00    +0.491 C 
ATOM     44  O2  <0> A   1     -14.379  12.007  40.101  0.00  0.00    -0.681 OA
ATOM     45  O3  <0> A   1     -12.621  11.746  38.962  0.00  0.00    -0.713 OA
ENDBRANCH  42  43
ENDBRANCH  39  42
ENDBRANCH  38  39
ENDBRANCH  35  38
ENDBRANCH  34  35
ENDBRANCH  33  34
ENDBRANCH   2  33
TORSDOF 15
