REMARK VINA RESULT:      -8.0     31.879     33.176
REMARK  Name = CHEMBL46057
REMARK  6 active torsions:
REMARK  status: ('A' for Active; 'I' for Inactive)
REMARK    1  A    between atoms: C4_4  and  C7_7
REMARK    2  A    between atoms: C7_7  and  O1_8
REMARK    3  A    between atoms: O1_8  and  C8_9
REMARK    4  A    between atoms: C11_12  and  C14_16
REMARK    5  A    between atoms: C15_17  and  C16_18
REMARK    6  A    between atoms: C18_20  and  O4_26
REMARK                            x       y       z     vdW  Elec       q    Type
REMARK                         _______ _______ _______ _____ _____    ______ ____
ROOT
ATOM      1  C8  <0> A   1     -32.172  19.534  33.478  0.00  0.00    +0.160 A 
ATOM      2  C9  <0> A   1     -31.307  20.553  33.104  0.00  0.00    -0.051 A 
ATOM      3  C10 <0> A   1     -31.033  21.584  33.978  0.00  0.00    +0.025 A 
ATOM      4  C11 <0> A   1     -31.628  21.602  35.242  0.00  0.00    -0.078 A 
ATOM      5  C12 <0> A   1     -32.498  20.575  35.615  0.00  0.00    +0.019 A 
ATOM      6  C13 <0> A   1     -32.771  19.551  34.731  0.00  0.00    +0.013 A 
ATOM      7 Cl1  <0> A   1     -33.240  20.591  37.184  0.00  0.00    -0.037 Cl
ATOM      8 Cl2  <0> A   1     -29.950  22.856  33.509  0.00  0.00    -0.042 Cl
ENDROOT
BRANCH   4   9
ATOM      9  C14 <0> A   1     -31.336  22.704  36.183  0.00  0.00    +0.046 C 
ATOM     10  C15 <0> A   1     -30.245  22.661  36.935  0.00  0.00    -0.003 C 
BRANCH  10  11
ATOM     11  C16 <0> A   1     -29.946  23.784  37.895  0.00  0.00    +0.243 C 
ATOM     12  C17 <0> A   1     -31.237  24.214  38.597  0.00  0.00    +0.051 C 
ATOM     13  C18 <0> A   1     -30.935  25.383  39.540  0.00  0.00    +0.186 C 
ATOM     14  C19 <0> A   1     -30.362  26.547  38.721  0.00  0.00    +0.024 C 
ATOM     15  C20 <0> A   1     -29.211  26.022  37.893  0.00  0.00    +0.497 C 
ATOM     16  O2  <0> A   1     -28.147  26.595  37.874  0.00  0.00    -0.451 OA
ATOM     17  O3  <0> A   1     -29.406  24.897  37.173  0.00  0.00    -0.368 OA
BRANCH  13  18
ATOM     18  O4  <0> A   1     -29.983  24.972  40.523  0.00  0.00    -0.564 OA
ATOM     19  H18 <0> A   1     -30.213  24.148  40.974  0.00  0.00    +0.387 HD
ENDBRANCH  13  18
ENDBRANCH  10  11
ENDBRANCH   4   9
BRANCH   1  20
ATOM     20  O1  <0> A   1     -32.441  18.520  32.614  0.00  0.00    -0.297 OA
BRANCH  20  21
ATOM     21  C7  <0> A   1     -32.096  18.730  31.242  0.00  0.00    +0.252 C 
BRANCH  21  25
ATOM     22  C1  <0> A   1     -29.084  15.930  30.088  0.00  0.00    +0.019 A 
ATOM     23  C2  <0> A   1     -30.276  15.990  29.389  0.00  0.00    +0.004 A 
ATOM     24  C3  <0> A   1     -31.251  16.895  29.764  0.00  0.00    +0.031 A 
ATOM     25  C4  <0> A   1     -31.034  17.741  30.835  0.00  0.00    -0.101 A 
ATOM     26  C5  <0> A   1     -29.842  17.681  31.534  0.00  0.00    +0.031 A 
ATOM     27  C6  <0> A   1     -28.867  16.776  31.159  0.00  0.00    +0.004 A 
ENDBRANCH  21  25
ENDBRANCH  20  21
ENDBRANCH   1  20
TORSDOF 6
