REMARK VINA RESULT:      -7.3     19.957     23.362
REMARK  Name = CHEMBL170906
REMARK  9 active torsions:
REMARK  status: ('A' for Active; 'I' for Inactive)
REMARK    1  A    between atoms: C1_1  and  C2_2
REMARK    2  A    between atoms: C4_5  and  O4_28
REMARK    3  A    between atoms: C6_8  and  C13_17
REMARK    4  A    between atoms: C7_10  and  C12_16
REMARK    5  A    between atoms: C13_17  and  C14_18
REMARK    6  A    between atoms: C14_18  and  C15_19
REMARK    7  A    between atoms: C17_21  and  O3_27
REMARK    8  A    between atoms: O4_28  and  C20_29
REMARK    9  A    between atoms: C20_29  and  C21_31
REMARK                            x       y       z     vdW  Elec       q    Type
REMARK                         _______ _______ _______ _____ _____    ______ ____
ROOT
ATOM      1  C1  <0> A   1     -27.179   0.376  50.192  0.00  0.00    +0.033 C 
ATOM      2  C2  <0> A   1     -26.785  -0.779  51.116  0.00  0.00    +0.025 C 
ATOM      3  C3  <0> A   1     -25.676  -1.614  50.460  0.00  0.00    +0.020 C 
ATOM      4  C4  <0> A   1     -25.290  -2.739  51.419  0.00  0.00    +0.174 C 
ATOM      5  C5  <0> A   1     -26.467  -3.625  51.749  0.00  0.00    +0.040 C 
ATOM      6  C6  <0> A   1     -26.469  -4.909  50.917  0.00  0.00    +0.013 C 
ATOM      7  C7  <0> A   1     -27.542  -5.850  51.467  0.00  0.00    +0.022 C 
ATOM      8  C8  <0> A   1     -28.859  -5.153  51.627  0.00  0.00    -0.032 C 
ATOM      9  C9  <0> A   1     -28.999  -3.841  51.695  0.00  0.00    -0.006 C 
ATOM     10  C10 <0> A   1     -27.807  -2.968  51.596  0.00  0.00    -0.086 C 
ATOM     11  C11 <0> A   1     -27.970  -1.683  51.337  0.00  0.00    -0.022 C 
ATOM     12  C12 <0> A   1     -27.091  -6.381  52.829  0.00  0.00    +0.029 C 
ENDROOT
BRANCH   6  13
ATOM     13  C13 <0> A   1     -25.097  -5.581  51.009  0.00  0.00    +0.058 C 
BRANCH  13  14
ATOM     14  C14 <0> A   1     -24.899  -6.502  49.803  0.00  0.00    +0.040 C 
BRANCH  14  15
ATOM     15  C15 <0> A   1     -24.203  -7.788  50.252  0.00  0.00    +0.193 C 
ATOM     16  C16 <0> A   1     -25.177  -8.964  50.136  0.00  0.00    +0.039 C 
ATOM     17  C17 <0> A   1     -24.490 -10.243  50.627  0.00  0.00    +0.183 C 
ATOM     18  C18 <0> A   1     -24.063 -10.048  52.088  0.00  0.00    +0.019 C 
ATOM     19  C19 <0> A   1     -23.269  -8.764  52.183  0.00  0.00    +0.495 C 
ATOM     20  O1  <0> A   1     -22.203  -8.733  52.750  0.00  0.00    -0.453 OA
ATOM     21  O2  <0> A   1     -23.784  -7.654  51.615  0.00  0.00    -0.366 OA
BRANCH  17  22
ATOM     22  O3  <0> A   1     -23.339 -10.507  49.821  0.00  0.00    -0.563 OA
ATOM     23  H27 <0> A   1     -22.588 -10.865  50.314  0.00  0.00    +0.386 HD
ENDBRANCH  17  22
ENDBRANCH  14  15
ENDBRANCH  13  14
ENDBRANCH   6  13
BRANCH   4  24
ATOM     24  O4  <0> A   1     -24.267  -3.533  50.816  0.00  0.00    -0.315 OA
BRANCH  24  25
ATOM     25  C20 <0> A   1     -22.997  -3.156  51.032  0.00  0.00    +0.480 C 
ATOM     26  O5  <0> A   1     -22.347  -2.679  50.132  0.00  0.00    -0.504 OA
BRANCH  25  27
ATOM     27  C21 <0> A   1     -22.381  -3.327  52.397  0.00  0.00    -0.041 C 
ATOM     28  C22 <0> A   1     -20.966  -2.785  52.607  0.00  0.00    +0.065 C 
ATOM     29  C23 <0> A   1     -22.162  -2.067  53.236  0.00  0.00    +0.074 C 
ENDBRANCH  25  27
ENDBRANCH  24  25
ENDBRANCH   4  24
TORSDOF 7
