MODEL 1
REMARK VINA RESULT:      -8.4      0.000      0.000
REMARK  Name = CHEMBL392897
REMARK  17 active torsions:
REMARK  status: ('A' for Active; 'I' for Inactive)
REMARK    1  A    between atoms: C1_1  and  C2_2
REMARK    2  A    between atoms: C2_2  and  N1_3
REMARK    3  A    between atoms: C3_4  and  C21_27
REMARK    4  A    between atoms: C4_5  and  C15_20
REMARK    5  A    between atoms: C5_6  and  C14_19
REMARK    6  A    between atoms: C6_7  and  C7_8
REMARK    7  A    between atoms: N2_10  and  C8_11
REMARK    8  A    between atoms: C8_11  and  C9_12
REMARK    9  A    between atoms: C11_15  and  C13_18
REMARK   10  A    between atoms: C21_27  and  C22_28
REMARK   11  A    between atoms: C22_28  and  C23_29
REMARK   12  A    between atoms: C23_29  and  C24_31
REMARK   13  A    between atoms: C23_29  and  O5_39
REMARK   14  A    between atoms: C24_31  and  C25_32
REMARK   15  A    between atoms: C25_32  and  C26_34
REMARK   16  A    between atoms: C25_32  and  O4_38
REMARK   17  A    between atoms: C26_34  and  C27_35
REMARK                            x       y       z     vdW  Elec       q    Type
REMARK                         _______ _______ _______ _____ _____    ______ ____
ROOT
ATOM      1  N1  <0> A   1     -15.058   6.818  45.830  0.00  0.00    -0.407 N 
ATOM      2  C3  <0> A   1     -14.123   7.741  45.529  0.00  0.00    +0.078 C 
ATOM      3  C4  <0> A   1     -14.452   8.913  46.149  0.00  0.00    -0.142 C 
ATOM      4  C5  <0> A   1     -15.645   8.692  46.862  0.00  0.00    -0.087 C 
ATOM      5  C6  <0> A   1     -16.006   7.391  46.647  0.00  0.00    -0.052 C 
ATOM      6  C14 <0> A   1     -16.388   9.701  47.700  0.00  0.00    +0.109 C 
ENDROOT
BRANCH   3   7
ATOM      7  C15 <0> A   1     -13.689  10.186  46.083  0.00  0.00    -0.008 A 
ATOM      8  C16 <0> A   1     -12.702  10.458  47.026  0.00  0.00    +0.049 A 
ATOM      9  C17 <0> A   1     -11.996  11.643  46.962  0.00  0.00    -0.016 A 
ATOM     10  C18 <0> A   1     -12.269  12.560  45.959  0.00  0.00    +0.093 A 
ATOM     11  C19 <0> A   1     -13.251  12.292  45.019  0.00  0.00    -0.017 A 
ATOM     12  C20 <0> A   1     -13.957  11.108  45.073  0.00  0.00    +0.053 A 
ATOM     13  F1  <0> A   1     -11.577  13.718  45.899  0.00  0.00    -0.142 F 
ENDBRANCH   3   7
BRANCH   5  14
ATOM     14  C7  <0> A   1     -17.193   6.724  47.193  0.00  0.00    +0.602 C 
ATOM     15  O1  <0> A   1     -18.177   6.564  46.494  0.00  0.00    -0.518 OA
ATOM     16  N2  <0> A   1     -17.195   6.288  48.468  0.00  0.00    -0.718 N 
ATOM     17  H8  <0> A   1     -16.440   6.480  49.047  0.00  0.00    +0.405 HD
BRANCH  16  18
ATOM     18  C8  <0> A   1     -18.335   5.523  48.980  0.00  0.00    +0.361 C 
BRANCH  18  19
ATOM     19  C9  <0> A   1     -19.264   6.444  49.727  0.00  0.00    +0.046 A 
ATOM     20  C10 <0> A   1     -20.512   5.994  50.125  0.00  0.00    +0.252 A 
ATOM     21  N3  <0> A   1     -21.326   6.803  50.781  0.00  0.00    -0.439 NA
ATOM     22  C11 <0> A   1     -20.950   8.039  51.056  0.00  0.00    +0.088 A 
ATOM     23  C12 <0> A   1     -19.703   8.487  50.658  0.00  0.00    +0.226 A 
ATOM     24  N4  <0> A   1     -18.887   7.679  50.007  0.00  0.00    -0.418 NA
ATOM     25  C13 <0> A   1     -21.879   8.961  51.803  0.00  0.00    +0.146 C 
ENDBRANCH  18  19
ENDBRANCH  16  18
ENDBRANCH   5  14
BRANCH   1  27
ATOM     26  C1  <0> A   1     -15.902   5.330  44.084  0.00  0.00    +0.040 C 
ATOM     27  C2  <0> A   1     -15.067   5.430  45.361  0.00  0.00    +0.280 C 
ENDBRANCH   1  27
BRANCH   2  28
ATOM     28  C21 <0> A   1     -12.916   7.517  44.655  0.00  0.00    +0.116 C 
BRANCH  28  29
ATOM     29  C22 <0> A   1     -13.285   7.793  43.196  0.00  0.00    -0.007 C 
BRANCH  29  30
ATOM     30  C23 <0> A   1     -12.079   7.500  42.300  0.00  0.00    +0.212 C 
BRANCH  30  31
ATOM     31  O5  <0> A   1     -11.912   6.087  42.172  0.00  0.00    -0.542 OA
ATOM     32  H32 <0> A   1     -11.085   5.826  41.745  0.00  0.00    +0.363 HD
ENDBRANCH  30  31
BRANCH  30  33
ATOM     33  C24 <0> A   1     -12.310   8.114  40.918  0.00  0.00    -0.051 C 
BRANCH  33  34
ATOM     34  C25 <0> A   1     -12.897   9.519  41.076  0.00  0.00    +0.230 C 
BRANCH  34  35
ATOM     35  O4  <0> A   1     -11.837  10.478  41.092  0.00  0.00    -0.528 OA
ATOM     36  H31 <0> A   1     -11.385  10.580  40.244  0.00  0.00    +0.349 HD
ENDBRANCH  34  35
BRANCH  34  37
ATOM     37  C26 <0> A   1     -13.834   9.815  39.904  0.00  0.00    -0.103 C 
BRANCH  37  38
ATOM     38  C27 <0> A   1     -13.931  11.305  39.703  0.00  0.00    +0.491 C 
ATOM     39  O2  <0> A   1     -14.618  11.979  40.451  0.00  0.00    -0.681 OA
ATOM     40  O3  <0> A   1     -13.322  11.838  38.790  0.00  0.00    -0.713 OA
ENDBRANCH  37  38
ENDBRANCH  34  37
ENDBRANCH  33  34
ENDBRANCH  30  33
ENDBRANCH  29  30
ENDBRANCH  28  29
ENDBRANCH   2  28
TORSDOF 14
ENDMDL
MODEL 2
REMARK VINA RESULT:      -8.0      4.713      8.166
REMARK  Name = CHEMBL392897
REMARK  17 active torsions:
REMARK  status: ('A' for Active; 'I' for Inactive)
REMARK    1  A    between atoms: C1_1  and  C2_2
REMARK    2  A    between atoms: C2_2  and  N1_3
REMARK    3  A    between atoms: C3_4  and  C21_27
REMARK    4  A    between atoms: C4_5  and  C15_20
REMARK    5  A    between atoms: C5_6  and  C14_19
REMARK    6  A    between atoms: C6_7  and  C7_8
REMARK    7  A    between atoms: N2_10  and  C8_11
REMARK    8  A    between atoms: C8_11  and  C9_12
REMARK    9  A    between atoms: C11_15  and  C13_18
REMARK   10  A    between atoms: C21_27  and  C22_28
REMARK   11  A    between atoms: C22_28  and  C23_29
REMARK   12  A    between atoms: C23_29  and  C24_31
REMARK   13  A    between atoms: C23_29  and  O5_39
REMARK   14  A    between atoms: C24_31  and  C25_32
REMARK   15  A    between atoms: C25_32  and  C26_34
REMARK   16  A    between atoms: C25_32  and  O4_38
REMARK   17  A    between atoms: C26_34  and  C27_35
REMARK                            x       y       z     vdW  Elec       q    Type
REMARK                         _______ _______ _______ _____ _____    ______ ____
ROOT
ATOM      1  N1  <0> A   1     -11.553   7.366  45.988  0.00  0.00    -0.407 N 
ATOM      2  C3  <0> A   1     -12.816   7.638  45.605  0.00  0.00    +0.078 C 
ATOM      3  C4  <0> A   1     -13.676   7.069  46.501  0.00  0.00    -0.142 C 
ATOM      4  C5  <0> A   1     -12.898   6.420  47.478  0.00  0.00    -0.087 C 
ATOM      5  C6  <0> A   1     -11.588   6.611  47.139  0.00  0.00    -0.052 C 
ATOM      6  C14 <0> A   1     -13.413   5.654  48.669  0.00  0.00    +0.109 C 
ENDROOT
BRANCH   3   7
ATOM      7  C15 <0> A   1     -15.159   7.128  46.453  0.00  0.00    -0.008 A 
ATOM      8  C16 <0> A   1     -15.870   6.214  45.681  0.00  0.00    +0.049 A 
ATOM      9  C17 <0> A   1     -17.249   6.272  45.639  0.00  0.00    -0.016 A 
ATOM     10  C18 <0> A   1     -17.925   7.240  46.366  0.00  0.00    +0.093 A 
ATOM     11  C19 <0> A   1     -17.220   8.151  47.136  0.00  0.00    -0.017 A 
ATOM     12  C20 <0> A   1     -15.843   8.096  47.187  0.00  0.00    +0.053 A 
ATOM     13  F1  <0> A   1     -19.274   7.294  46.323  0.00  0.00    -0.142 F 
ENDBRANCH   3   7
BRANCH   5  14
ATOM     14  C7  <0> A   1     -10.424   6.102  47.873  0.00  0.00    +0.602 C 
ATOM     15  O1  <0> A   1     -10.140   6.568  48.961  0.00  0.00    -0.518 OA
ATOM     16  N2  <0> A   1      -9.671   5.118  47.345  0.00  0.00    -0.718 N 
ATOM     17  H8  <0> A   1      -9.853   4.797  46.447  0.00  0.00    +0.405 HD
BRANCH  16  18
ATOM     18  C8  <0> A   1      -8.578   4.531  48.124  0.00  0.00    +0.361 C 
BRANCH  18  19
ATOM     19  C9  <0> A   1      -7.431   4.192  47.207  0.00  0.00    +0.046 A 
ATOM     20  C10 <0> A   1      -7.620   3.300  46.165  0.00  0.00    +0.252 A 
ATOM     21  N3  <0> A   1      -6.614   3.003  45.360  0.00  0.00    -0.439 NA
ATOM     22  C11 <0> A   1      -5.430   3.557  45.551  0.00  0.00    +0.088 A 
ATOM     23  C12 <0> A   1      -5.243   4.448  46.593  0.00  0.00    +0.226 A 
ATOM     24  N4  <0> A   1      -6.249   4.749  47.395  0.00  0.00    -0.418 NA
ATOM     25  C13 <0> A   1      -4.283   3.218  44.635  0.00  0.00    +0.146 C 
ENDBRANCH  18  19
ENDBRANCH  16  18
ENDBRANCH   5  14
BRANCH   1  27
ATOM     26  C1  <0> A   1      -9.997   9.231  45.706  0.00  0.00    +0.040 C 
ATOM     27  C2  <0> A   1     -10.339   7.799  45.292  0.00  0.00    +0.280 C 
ENDBRANCH   1  27
BRANCH   2  28
ATOM     28  C21 <0> A   1     -13.213   8.437  44.390  0.00  0.00    +0.116 C 
BRANCH  28  29
ATOM     29  C22 <0> A   1     -13.543   7.485  43.239  0.00  0.00    -0.007 C 
BRANCH  29  30
ATOM     30  C23 <0> A   1     -12.425   7.538  42.195  0.00  0.00    +0.212 C 
BRANCH  30  31
ATOM     31  O5  <0> A   1     -11.722   6.295  42.186  0.00  0.00    -0.542 OA
ATOM     32  H32 <0> A   1     -11.889   5.742  42.963  0.00  0.00    +0.363 HD
ENDBRANCH  30  31
BRANCH  30  33
ATOM     33  C24 <0> A   1     -13.030   7.792  40.813  0.00  0.00    -0.051 C 
BRANCH  33  34
ATOM     34  C25 <0> A   1     -12.409   9.054  40.209  0.00  0.00    +0.230 C 
BRANCH  34  35
ATOM     35  O4  <0> A   1     -12.481   8.985  38.784  0.00  0.00    -0.528 OA
ATOM     36  H31 <0> A   1     -11.722   9.378  38.332  0.00  0.00    +0.349 HD
ENDBRANCH  34  35
BRANCH  34  37
ATOM     37  C26 <0> A   1     -13.177  10.284  40.699  0.00  0.00    -0.103 C 
BRANCH  37  38
ATOM     38  C27 <0> A   1     -13.326  11.266  39.565  0.00  0.00    +0.491 C 
ATOM     39  O2  <0> A   1     -14.402  11.392  39.005  0.00  0.00    -0.681 OA
ATOM     40  O3  <0> A   1     -12.371  11.934  39.208  0.00  0.00    -0.713 OA
ENDBRANCH  37  38
ENDBRANCH  34  37
ENDBRANCH  33  34
ENDBRANCH  30  33
ENDBRANCH  29  30
ENDBRANCH  28  29
ENDBRANCH   2  28
TORSDOF 14
ENDMDL
MODEL 3
REMARK VINA RESULT:      -7.9      2.142      3.649
REMARK  Name = CHEMBL392897
REMARK  17 active torsions:
REMARK  status: ('A' for Active; 'I' for Inactive)
REMARK    1  A    between atoms: C1_1  and  C2_2
REMARK    2  A    between atoms: C2_2  and  N1_3
REMARK    3  A    between atoms: C3_4  and  C21_27
REMARK    4  A    between atoms: C4_5  and  C15_20
REMARK    5  A    between atoms: C5_6  and  C14_19
REMARK    6  A    between atoms: C6_7  and  C7_8
REMARK    7  A    between atoms: N2_10  and  C8_11
REMARK    8  A    between atoms: C8_11  and  C9_12
REMARK    9  A    between atoms: C11_15  and  C13_18
REMARK   10  A    between atoms: C21_27  and  C22_28
REMARK   11  A    between atoms: C22_28  and  C23_29
REMARK   12  A    between atoms: C23_29  and  C24_31
REMARK   13  A    between atoms: C23_29  and  O5_39
REMARK   14  A    between atoms: C24_31  and  C25_32
REMARK   15  A    between atoms: C25_32  and  C26_34
REMARK   16  A    between atoms: C25_32  and  O4_38
REMARK   17  A    between atoms: C26_34  and  C27_35
REMARK                            x       y       z     vdW  Elec       q    Type
REMARK                         _______ _______ _______ _____ _____    ______ ____
ROOT
ATOM      1  N1  <0> A   1     -14.893   8.817  47.771  0.00  0.00    -0.407 N 
ATOM      2  C3  <0> A   1     -14.172   9.050  46.655  0.00  0.00    +0.078 C 
ATOM      3  C4  <0> A   1     -14.151   7.910  45.904  0.00  0.00    -0.142 C 
ATOM      4  C5  <0> A   1     -14.896   6.936  46.595  0.00  0.00    -0.087 C 
ATOM      5  C6  <0> A   1     -15.341   7.516  47.750  0.00  0.00    -0.052 C 
ATOM      6  C14 <0> A   1     -15.149   5.518  46.149  0.00  0.00    +0.109 C 
ENDROOT
BRANCH   3   7
ATOM      7  C15 <0> A   1     -13.469   7.732  44.597  0.00  0.00    -0.008 A 
ATOM      8  C16 <0> A   1     -14.210   7.429  43.457  0.00  0.00    +0.049 A 
ATOM      9  C17 <0> A   1     -13.572   7.264  42.245  0.00  0.00    -0.016 A 
ATOM     10  C18 <0> A   1     -12.195   7.400  42.160  0.00  0.00    +0.093 A 
ATOM     11  C19 <0> A   1     -11.454   7.701  43.292  0.00  0.00    -0.017 A 
ATOM     12  C20 <0> A   1     -12.085   7.873  44.507  0.00  0.00    +0.053 A 
ATOM     13  F1  <0> A   1     -11.574   7.237  40.972  0.00  0.00    -0.142 F 
ENDBRANCH   3   7
BRANCH   5  14
ATOM     14  C7  <0> A   1     -16.155   6.866  48.783  0.00  0.00    +0.602 C 
ATOM     15  O1  <0> A   1     -15.618   6.353  49.747  0.00  0.00    -0.518 OA
ATOM     16  N2  <0> A   1     -17.497   6.838  48.666  0.00  0.00    -0.718 N 
ATOM     17  H8  <0> A   1     -17.921   7.181  47.863  0.00  0.00    +0.405 HD
BRANCH  16  18
ATOM     18  C8  <0> A   1     -18.317   6.290  49.749  0.00  0.00    +0.361 C 
BRANCH  18  19
ATOM     19  C9  <0> A   1     -19.337   7.314  50.175  0.00  0.00    +0.046 A 
ATOM     20  C10 <0> A   1     -20.658   6.941  50.354  0.00  0.00    +0.252 A 
ATOM     21  N3  <0> A   1     -21.553   7.840  50.728  0.00  0.00    -0.439 NA
ATOM     22  C11 <0> A   1     -21.185   9.092  50.931  0.00  0.00    +0.088 A 
ATOM     23  C12 <0> A   1     -19.864   9.464  50.752  0.00  0.00    +0.226 A 
ATOM     24  N4  <0> A   1     -18.969   8.565  50.383  0.00  0.00    -0.418 NA
ATOM     25  C13 <0> A   1     -22.205  10.117  51.357  0.00  0.00    +0.146 C 
ENDBRANCH  18  19
ENDBRANCH  16  18
ENDBRANCH   5  14
BRANCH   1  27
ATOM     26  C1  <0> A   1     -16.437  10.560  48.518  0.00  0.00    +0.040 C 
ATOM     27  C2  <0> A   1     -15.154   9.789  48.835  0.00  0.00    +0.280 C 
ENDBRANCH   1  27
BRANCH   2  28
ATOM     28  C21 <0> A   1     -13.502  10.351  46.298  0.00  0.00    +0.116 C 
BRANCH  28  29
ATOM     29  C22 <0> A   1     -14.410  11.154  45.365  0.00  0.00    -0.007 C 
BRANCH  29  30
ATOM     30  C23 <0> A   1     -13.593  11.680  44.183  0.00  0.00    +0.212 C 
BRANCH  30  31
ATOM     31  O5  <0> A   1     -12.208  11.411  44.405  0.00  0.00    -0.542 OA
ATOM     32  H32 <0> A   1     -11.635  12.183  44.298  0.00  0.00    +0.363 HD
ENDBRANCH  30  31
BRANCH  30  33
ATOM     33  C24 <0> A   1     -14.048  10.984  42.899  0.00  0.00    -0.051 C 
BRANCH  33  34
ATOM     34  C25 <0> A   1     -13.201  11.477  41.724  0.00  0.00    +0.230 C 
BRANCH  34  35
ATOM     35  O4  <0> A   1     -11.950  10.785  41.715  0.00  0.00    -0.528 OA
ATOM     36  H31 <0> A   1     -11.884  10.100  41.037  0.00  0.00    +0.349 HD
ENDBRANCH  34  35
BRANCH  34  37
ATOM     37  C26 <0> A   1     -13.941  11.207  40.413  0.00  0.00    -0.103 C 
BRANCH  37  38
ATOM     38  C27 <0> A   1     -12.940  10.979  39.309  0.00  0.00    +0.491 C 
ATOM     39  O2  <0> A   1     -12.647   9.843  38.977  0.00  0.00    -0.681 OA
ATOM     40  O3  <0> A   1     -12.424  11.930  38.748  0.00  0.00    -0.713 OA
ENDBRANCH  37  38
ENDBRANCH  34  37
ENDBRANCH  33  34
ENDBRANCH  30  33
ENDBRANCH  29  30
ENDBRANCH  28  29
ENDBRANCH   2  28
TORSDOF 14
ENDMDL
MODEL 4
REMARK VINA RESULT:      -7.9      1.783      2.313
REMARK  Name = CHEMBL392897
REMARK  17 active torsions:
REMARK  status: ('A' for Active; 'I' for Inactive)
REMARK    1  A    between atoms: C1_1  and  C2_2
REMARK    2  A    between atoms: C2_2  and  N1_3
REMARK    3  A    between atoms: C3_4  and  C21_27
REMARK    4  A    between atoms: C4_5  and  C15_20
REMARK    5  A    between atoms: C5_6  and  C14_19
REMARK    6  A    between atoms: C6_7  and  C7_8
REMARK    7  A    between atoms: N2_10  and  C8_11
REMARK    8  A    between atoms: C8_11  and  C9_12
REMARK    9  A    between atoms: C11_15  and  C13_18
REMARK   10  A    between atoms: C21_27  and  C22_28
REMARK   11  A    between atoms: C22_28  and  C23_29
REMARK   12  A    between atoms: C23_29  and  C24_31
REMARK   13  A    between atoms: C23_29  and  O5_39
REMARK   14  A    between atoms: C24_31  and  C25_32
REMARK   15  A    between atoms: C25_32  and  C26_34
REMARK   16  A    between atoms: C25_32  and  O4_38
REMARK   17  A    between atoms: C26_34  and  C27_35
REMARK                            x       y       z     vdW  Elec       q    Type
REMARK                         _______ _______ _______ _____ _____    ______ ____
ROOT
ATOM      1  N1  <0> A   1     -15.412   6.707  46.122  0.00  0.00    -0.407 N 
ATOM      2  C3  <0> A   1     -14.417   7.570  45.833  0.00  0.00    +0.078 C 
ATOM      3  C4  <0> A   1     -14.729   8.789  46.364  0.00  0.00    -0.142 C 
ATOM      4  C5  <0> A   1     -15.973   8.662  47.010  0.00  0.00    -0.087 C 
ATOM      5  C6  <0> A   1     -16.381   7.368  46.843  0.00  0.00    -0.052 C 
ATOM      6  C14 <0> A   1     -16.719   9.749  47.740  0.00  0.00    +0.109 C 
ENDROOT
BRANCH   3   7
ATOM      7  C15 <0> A   1     -13.904  10.021  46.279  0.00  0.00    -0.008 A 
ATOM      8  C16 <0> A   1     -12.905  10.260  47.219  0.00  0.00    +0.049 A 
ATOM      9  C17 <0> A   1     -12.141  11.407  47.136  0.00  0.00    -0.016 A 
ATOM     10  C18 <0> A   1     -12.368  12.320  46.118  0.00  0.00    +0.093 A 
ATOM     11  C19 <0> A   1     -13.361  12.085  45.181  0.00  0.00    -0.017 A 
ATOM     12  C20 <0> A   1     -14.125  10.939  45.254  0.00  0.00    +0.053 A 
ATOM     13  F1  <0> A   1     -11.619  13.441  46.040  0.00  0.00    -0.142 F 
ENDBRANCH   3   7
BRANCH   5  14
ATOM     14  C7  <0> A   1     -17.631   6.786  47.346  0.00  0.00    +0.602 C 
ATOM     15  O1  <0> A   1     -18.621   6.768  46.639  0.00  0.00    -0.518 OA
ATOM     16  N2  <0> A   1     -17.682   6.271  48.590  0.00  0.00    -0.718 N 
ATOM     17  H8  <0> A   1     -16.915   6.351  49.180  0.00  0.00    +0.405 HD
BRANCH  16  18
ATOM     18  C8  <0> A   1     -18.893   5.590  49.053  0.00  0.00    +0.361 C 
BRANCH  18  19
ATOM     19  C9  <0> A   1     -18.567   4.747  50.258  0.00  0.00    +0.046 A 
ATOM     20  C10 <0> A   1     -18.608   3.366  50.169  0.00  0.00    +0.252 A 
ATOM     21  N3  <0> A   1     -18.321   2.627  51.227  0.00  0.00    -0.439 NA
ATOM     22  C11 <0> A   1     -17.996   3.207  52.368  0.00  0.00    +0.088 A 
ATOM     23  C12 <0> A   1     -17.955   4.587  52.457  0.00  0.00    +0.226 A 
ATOM     24  N4  <0> A   1     -18.237   5.326  51.399  0.00  0.00    -0.418 NA
ATOM     25  C13 <0> A   1     -17.670   2.365  53.574  0.00  0.00    +0.146 C 
ENDBRANCH  18  19
ENDBRANCH  16  18
ENDBRANCH   5  14
BRANCH   1  27
ATOM     26  C1  <0> A   1     -16.254   5.154  44.432  0.00  0.00    +0.040 C 
ATOM     27  C2  <0> A   1     -15.457   5.296  45.730  0.00  0.00    +0.280 C 
ENDBRANCH   1  27
BRANCH   2  28
ATOM     28  C21 <0> A   1     -13.170   7.244  45.053  0.00  0.00    +0.116 C 
BRANCH  28  29
ATOM     29  C22 <0> A   1     -13.464   7.342  43.555  0.00  0.00    -0.007 C 
BRANCH  29  30
ATOM     30  C23 <0> A   1     -12.642   8.480  42.946  0.00  0.00    +0.212 C 
BRANCH  30  31
ATOM     31  O5  <0> A   1     -11.414   7.959  42.436  0.00  0.00    -0.542 OA
ATOM     32  H32 <0> A   1     -11.371   6.993  42.423  0.00  0.00    +0.363 HD
ENDBRANCH  30  31
BRANCH  30  33
ATOM     33  C24 <0> A   1     -13.433   9.128  41.809  0.00  0.00    -0.051 C 
BRANCH  33  34
ATOM     34  C25 <0> A   1     -12.953  10.568  41.610  0.00  0.00    +0.230 C 
BRANCH  34  35
ATOM     35  O4  <0> A   1     -11.551  10.567  41.330  0.00  0.00    -0.528 OA
ATOM     36  H31 <0> A   1     -11.327  10.246  40.446  0.00  0.00    +0.349 HD
ENDBRANCH  34  35
BRANCH  34  37
ATOM     37  C26 <0> A   1     -13.707  11.200  40.438  0.00  0.00    -0.103 C 
BRANCH  37  38
ATOM     38  C27 <0> A   1     -12.842  11.157  39.204  0.00  0.00    +0.491 C 
ATOM     39  O2  <0> A   1     -12.614  10.093  38.656  0.00  0.00    -0.681 OA
ATOM     40  O3  <0> A   1     -12.371  12.188  38.755  0.00  0.00    -0.713 OA
ENDBRANCH  37  38
ENDBRANCH  34  37
ENDBRANCH  33  34
ENDBRANCH  30  33
ENDBRANCH  29  30
ENDBRANCH  28  29
ENDBRANCH   2  28
TORSDOF 14
ENDMDL
MODEL 5
REMARK VINA RESULT:      -7.6     15.586     18.492
REMARK  Name = CHEMBL392897
REMARK  17 active torsions:
REMARK  status: ('A' for Active; 'I' for Inactive)
REMARK    1  A    between atoms: C1_1  and  C2_2
REMARK    2  A    between atoms: C2_2  and  N1_3
REMARK    3  A    between atoms: C3_4  and  C21_27
REMARK    4  A    between atoms: C4_5  and  C15_20
REMARK    5  A    between atoms: C5_6  and  C14_19
REMARK    6  A    between atoms: C6_7  and  C7_8
REMARK    7  A    between atoms: N2_10  and  C8_11
REMARK    8  A    between atoms: C8_11  and  C9_12
REMARK    9  A    between atoms: C11_15  and  C13_18
REMARK   10  A    between atoms: C21_27  and  C22_28
REMARK   11  A    between atoms: C22_28  and  C23_29
REMARK   12  A    between atoms: C23_29  and  C24_31
REMARK   13  A    between atoms: C23_29  and  O5_39
REMARK   14  A    between atoms: C24_31  and  C25_32
REMARK   15  A    between atoms: C25_32  and  C26_34
REMARK   16  A    between atoms: C25_32  and  O4_38
REMARK   17  A    between atoms: C26_34  and  C27_35
REMARK                            x       y       z     vdW  Elec       q    Type
REMARK                         _______ _______ _______ _____ _____    ______ ____
ROOT
ATOM      1  N1  <0> A   1     -25.384  -4.408  50.691  0.00  0.00    -0.407 N 
ATOM      2  C3  <0> A   1     -25.259  -3.076  50.858  0.00  0.00    +0.078 C 
ATOM      3  C4  <0> A   1     -26.508  -2.528  50.937  0.00  0.00    -0.142 C 
ATOM      4  C5  <0> A   1     -27.438  -3.577  50.814  0.00  0.00    -0.087 C 
ATOM      5  C6  <0> A   1     -26.722  -4.731  50.657  0.00  0.00    -0.052 C 
ATOM      6  C14 <0> A   1     -28.940  -3.451  50.843  0.00  0.00    +0.109 C 
ENDROOT
BRANCH   3   7
ATOM      7  C15 <0> A   1     -26.825  -1.089  51.121  0.00  0.00    -0.008 A 
ATOM      8  C16 <0> A   1     -26.928  -0.554  52.403  0.00  0.00    +0.049 A 
ATOM      9  C17 <0> A   1     -27.224   0.783  52.570  0.00  0.00    -0.016 A 
ATOM     10  C18 <0> A   1     -27.417   1.595  51.463  0.00  0.00    +0.093 A 
ATOM     11  C19 <0> A   1     -27.315   1.067  50.186  0.00  0.00    -0.017 A 
ATOM     12  C20 <0> A   1     -27.015  -0.268  50.011  0.00  0.00    +0.053 A 
ATOM     13  F1  <0> A   1     -27.707   2.904  51.630  0.00  0.00    -0.142 F 
ENDBRANCH   3   7
BRANCH   5  14
ATOM     14  C7  <0> A   1     -27.282  -6.076  50.485  0.00  0.00    +0.602 C 
ATOM     15  O1  <0> A   1     -27.838  -6.628  51.416  0.00  0.00    -0.518 OA
ATOM     16  N2  <0> A   1     -27.182  -6.700  49.295  0.00  0.00    -0.718 N 
ATOM     17  H8  <0> A   1     -26.675  -6.292  48.574  0.00  0.00    +0.405 HD
BRANCH  16  18
ATOM     18  C8  <0> A   1     -27.837  -7.994  49.087  0.00  0.00    +0.361 C 
BRANCH  18  19
ATOM     19  C9  <0> A   1     -26.799  -9.086  49.063  0.00  0.00    +0.046 A 
ATOM     20  C10 <0> A   1     -26.564  -9.791  47.895  0.00  0.00    +0.252 A 
ATOM     21  N3  <0> A   1     -25.652 -10.748  47.874  0.00  0.00    -0.439 NA
ATOM     22  C11 <0> A   1     -24.968 -11.032  48.967  0.00  0.00    +0.088 A 
ATOM     23  C12 <0> A   1     -25.204 -10.327  50.134  0.00  0.00    +0.226 A 
ATOM     24  N4  <0> A   1     -26.111  -9.367  50.155  0.00  0.00    -0.418 NA
ATOM     25  C13 <0> A   1     -23.930 -12.124  48.944  0.00  0.00    +0.146 C 
ENDBRANCH  18  19
ENDBRANCH  16  18
ENDBRANCH   5  14
BRANCH   1  27
ATOM     26  C1  <0> A   1     -24.227  -6.252  51.803  0.00  0.00    +0.040 C 
ATOM     27  C2  <0> A   1     -24.277  -5.358  50.563  0.00  0.00    +0.280 C 
ENDBRANCH   1  27
BRANCH   2  28
ATOM     28  C21 <0> A   1     -23.960  -2.319  50.941  0.00  0.00    +0.116 C 
BRANCH  28  29
ATOM     29  C22 <0> A   1     -23.465  -2.313  52.389  0.00  0.00    -0.007 C 
BRANCH  29  30
ATOM     30  C23 <0> A   1     -22.192  -3.155  52.498  0.00  0.00    +0.212 C 
BRANCH  30  31
ATOM     31  O5  <0> A   1     -21.540  -3.199  51.228  0.00  0.00    -0.542 OA
ATOM     32  H32 <0> A   1     -20.606  -2.946  51.256  0.00  0.00    +0.363 HD
ENDBRANCH  30  31
BRANCH  30  33
ATOM     33  C24 <0> A   1     -21.254  -2.531  53.532  0.00  0.00    -0.051 C 
BRANCH  33  34
ATOM     34  C25 <0> A   1     -20.399  -3.628  54.172  0.00  0.00    +0.230 C 
BRANCH  34  35
ATOM     35  O4  <0> A   1     -20.892  -4.909  53.774  0.00  0.00    -0.528 OA
ATOM     36  H31 <0> A   1     -21.690  -4.871  53.228  0.00  0.00    +0.349 HD
ENDBRANCH  34  35
BRANCH  34  37
ATOM     37  C26 <0> A   1     -18.948  -3.475  53.713  0.00  0.00    -0.103 C 
BRANCH  37  38
ATOM     38  C27 <0> A   1     -18.175  -4.719  54.070  0.00  0.00    +0.491 C 
ATOM     39  O2  <0> A   1     -18.268  -5.716  53.376  0.00  0.00    -0.681 OA
ATOM     40  O3  <0> A   1     -17.456  -4.727  55.055  0.00  0.00    -0.713 OA
ENDBRANCH  37  38
ENDBRANCH  34  37
ENDBRANCH  33  34
ENDBRANCH  30  33
ENDBRANCH  29  30
ENDBRANCH  28  29
ENDBRANCH   2  28
TORSDOF 14
ENDMDL
MODEL 6
REMARK VINA RESULT:      -7.6      4.253      6.806
REMARK  Name = CHEMBL392897
REMARK  17 active torsions:
REMARK  status: ('A' for Active; 'I' for Inactive)
REMARK    1  A    between atoms: C1_1  and  C2_2
REMARK    2  A    between atoms: C2_2  and  N1_3
REMARK    3  A    between atoms: C3_4  and  C21_27
REMARK    4  A    between atoms: C4_5  and  C15_20
REMARK    5  A    between atoms: C5_6  and  C14_19
REMARK    6  A    between atoms: C6_7  and  C7_8
REMARK    7  A    between atoms: N2_10  and  C8_11
REMARK    8  A    between atoms: C8_11  and  C9_12
REMARK    9  A    between atoms: C11_15  and  C13_18
REMARK   10  A    between atoms: C21_27  and  C22_28
REMARK   11  A    between atoms: C22_28  and  C23_29
REMARK   12  A    between atoms: C23_29  and  C24_31
REMARK   13  A    between atoms: C23_29  and  O5_39
REMARK   14  A    between atoms: C24_31  and  C25_32
REMARK   15  A    between atoms: C25_32  and  C26_34
REMARK   16  A    between atoms: C25_32  and  O4_38
REMARK   17  A    between atoms: C26_34  and  C27_35
REMARK                            x       y       z     vdW  Elec       q    Type
REMARK                         _______ _______ _______ _____ _____    ______ ____
ROOT
ATOM      1  N1  <0> A   1     -12.596   7.977  46.974  0.00  0.00    -0.407 N 
ATOM      2  C3  <0> A   1     -13.301   9.045  46.549  0.00  0.00    +0.078 C 
ATOM      3  C4  <0> A   1     -13.889   9.638  47.630  0.00  0.00    -0.142 C 
ATOM      4  C5  <0> A   1     -13.524   8.895  48.769  0.00  0.00    -0.087 C 
ATOM      5  C6  <0> A   1     -12.729   7.869  48.340  0.00  0.00    -0.052 C 
ATOM      6  C14 <0> A   1     -13.938   9.174  50.191  0.00  0.00    +0.109 C 
ENDROOT
BRANCH   3   7
ATOM      7  C15 <0> A   1     -14.753  10.845  47.608  0.00  0.00    -0.008 A 
ATOM      8  C16 <0> A   1     -16.068  10.756  47.157  0.00  0.00    +0.049 A 
ATOM      9  C17 <0> A   1     -16.867  11.881  47.137  0.00  0.00    -0.016 A 
ATOM     10  C18 <0> A   1     -16.362  13.099  47.566  0.00  0.00    +0.093 A 
ATOM     11  C19 <0> A   1     -15.055  13.191  48.016  0.00  0.00    -0.017 A 
ATOM     12  C20 <0> A   1     -14.252  12.070  48.044  0.00  0.00    +0.053 A 
ATOM     13  F1  <0> A   1     -17.147  14.198  47.545  0.00  0.00    -0.142 F 
ENDBRANCH   3   7
BRANCH   5  14
ATOM     14  C7  <0> A   1     -12.123   6.836  49.188  0.00  0.00    +0.602 C 
ATOM     15  O1  <0> A   1     -12.820   5.976  49.692  0.00  0.00    -0.518 OA
ATOM     16  N2  <0> A   1     -10.793   6.839  49.407  0.00  0.00    -0.718 N 
ATOM     17  H8  <0> A   1     -10.247   7.565  49.066  0.00  0.00    +0.405 HD
BRANCH  16  18
ATOM     18  C8  <0> A   1     -10.171   5.746  50.158  0.00  0.00    +0.361 C 
BRANCH  18  19
ATOM     19  C9  <0> A   1      -9.345   4.899  49.224  0.00  0.00    +0.046 A 
ATOM     20  C10 <0> A   1      -8.854   3.677  49.650  0.00  0.00    +0.252 A 
ATOM     21  N3  <0> A   1      -8.130   2.935  48.831  0.00  0.00    -0.439 NA
ATOM     22  C11 <0> A   1      -7.875   3.360  47.606  0.00  0.00    +0.088 A 
ATOM     23  C12 <0> A   1      -8.366   4.582  47.181  0.00  0.00    +0.226 A 
ATOM     24  N4  <0> A   1      -9.093   5.322  47.999  0.00  0.00    -0.418 NA
ATOM     25  C13 <0> A   1      -7.049   2.514  46.672  0.00  0.00    +0.146 C 
ENDBRANCH  18  19
ENDBRANCH  16  18
ENDBRANCH   5  14
BRANCH   1  27
ATOM     26  C1  <0> A   1     -10.465   7.713  45.806  0.00  0.00    +0.040 C 
ATOM     27  C2  <0> A   1     -11.819   7.075  46.121  0.00  0.00    +0.280 C 
ENDBRANCH   1  27
BRANCH   2  28
ATOM     28  C21 <0> A   1     -13.420   9.507  45.120  0.00  0.00    +0.116 C 
BRANCH  28  29
ATOM     29  C22 <0> A   1     -12.727  10.862  44.962  0.00  0.00    -0.007 C 
BRANCH  29  30
ATOM     30  C23 <0> A   1     -13.623  11.803  44.155  0.00  0.00    +0.212 C 
BRANCH  30  31
ATOM     31  O5  <0> A   1     -12.884  12.971  43.794  0.00  0.00    -0.542 OA
ATOM     32  H32 <0> A   1     -12.766  13.602  44.518  0.00  0.00    +0.363 HD
ENDBRANCH  30  31
BRANCH  30  33
ATOM     33  C24 <0> A   1     -14.101  11.091  42.888  0.00  0.00    -0.051 C 
BRANCH  33  34
ATOM     34  C25 <0> A   1     -13.245  11.535  41.699  0.00  0.00    +0.230 C 
BRANCH  34  35
ATOM     35  O4  <0> A   1     -12.008  10.820  41.710  0.00  0.00    -0.528 OA
ATOM     36  H31 <0> A   1     -12.090   9.895  41.978  0.00  0.00    +0.349 HD
ENDBRANCH  34  35
BRANCH  34  37
ATOM     37  C26 <0> A   1     -13.991  11.242  40.396  0.00  0.00    -0.103 C 
BRANCH  37  38
ATOM     38  C27 <0> A   1     -13.000  11.113  39.269  0.00  0.00    +0.491 C 
ATOM     39  O2  <0> A   1     -12.485  12.109  38.791  0.00  0.00    -0.681 OA
ATOM     40  O3  <0> A   1     -12.712  10.010  38.834  0.00  0.00    -0.713 OA
ENDBRANCH  37  38
ENDBRANCH  34  37
ENDBRANCH  33  34
ENDBRANCH  30  33
ENDBRANCH  29  30
ENDBRANCH  28  29
ENDBRANCH   2  28
TORSDOF 14
ENDMDL
MODEL 7
REMARK VINA RESULT:      -7.6      4.248      6.983
REMARK  Name = CHEMBL392897
REMARK  17 active torsions:
REMARK  status: ('A' for Active; 'I' for Inactive)
REMARK    1  A    between atoms: C1_1  and  C2_2
REMARK    2  A    between atoms: C2_2  and  N1_3
REMARK    3  A    between atoms: C3_4  and  C21_27
REMARK    4  A    between atoms: C4_5  and  C15_20
REMARK    5  A    between atoms: C5_6  and  C14_19
REMARK    6  A    between atoms: C6_7  and  C7_8
REMARK    7  A    between atoms: N2_10  and  C8_11
REMARK    8  A    between atoms: C8_11  and  C9_12
REMARK    9  A    between atoms: C11_15  and  C13_18
REMARK   10  A    between atoms: C21_27  and  C22_28
REMARK   11  A    between atoms: C22_28  and  C23_29
REMARK   12  A    between atoms: C23_29  and  C24_31
REMARK   13  A    between atoms: C23_29  and  O5_39
REMARK   14  A    between atoms: C24_31  and  C25_32
REMARK   15  A    between atoms: C25_32  and  C26_34
REMARK   16  A    between atoms: C25_32  and  O4_38
REMARK   17  A    between atoms: C26_34  and  C27_35
REMARK                            x       y       z     vdW  Elec       q    Type
REMARK                         _______ _______ _______ _____ _____    ______ ____
ROOT
ATOM      1  N1  <0> A   1     -13.129  10.360  45.625  0.00  0.00    -0.407 N 
ATOM      2  C3  <0> A   1     -13.479   9.198  45.038  0.00  0.00    +0.078 C 
ATOM      3  C4  <0> A   1     -14.073   8.399  45.972  0.00  0.00    -0.142 C 
ATOM      4  C5  <0> A   1     -14.086   9.109  47.187  0.00  0.00    -0.087 C 
ATOM      5  C6  <0> A   1     -13.492  10.317  46.952  0.00  0.00    -0.052 C 
ATOM      6  C14 <0> A   1     -14.643   8.625  48.502  0.00  0.00    +0.109 C 
ENDROOT
BRANCH   3   7
ATOM      7  C15 <0> A   1     -14.608   7.032  45.746  0.00  0.00    -0.008 A 
ATOM      8  C16 <0> A   1     -15.971   6.842  45.532  0.00  0.00    +0.049 A 
ATOM      9  C17 <0> A   1     -16.464   5.570  45.323  0.00  0.00    -0.016 A 
ATOM     10  C18 <0> A   1     -15.605   4.483  45.326  0.00  0.00    +0.093 A 
ATOM     11  C19 <0> A   1     -14.248   4.668  45.539  0.00  0.00    -0.017 A 
ATOM     12  C20 <0> A   1     -13.747   5.936  45.743  0.00  0.00    +0.053 A 
ATOM     13  F1  <0> A   1     -16.091   3.239  45.121  0.00  0.00    -0.142 F 
ENDBRANCH   3   7
BRANCH   5  14
ATOM     14  C7  <0> A   1     -13.281  11.381  47.940  0.00  0.00    +0.602 C 
ATOM     15  O1  <0> A   1     -14.219  12.064  48.309  0.00  0.00    -0.518 OA
ATOM     16  N2  <0> A   1     -12.050  11.602  48.441  0.00  0.00    -0.718 N 
ATOM     17  H8  <0> A   1     -11.290  11.108  48.094  0.00  0.00    +0.405 HD
BRANCH  16  18
ATOM     18  C8  <0> A   1     -11.857  12.586  49.509  0.00  0.00    +0.361 C 
BRANCH  18  19
ATOM     19  C9  <0> A   1     -10.729  12.143  50.404  0.00  0.00    +0.046 A 
ATOM     20  C10 <0> A   1      -9.987  13.083  51.099  0.00  0.00    +0.252 A 
ATOM     21  N3  <0> A   1      -8.998  12.693  51.885  0.00  0.00    -0.439 NA
ATOM     22  C11 <0> A   1      -8.719  11.408  52.007  0.00  0.00    +0.088 A 
ATOM     23  C12 <0> A   1      -9.462  10.469  51.312  0.00  0.00    +0.226 A 
ATOM     24  N4  <0> A   1     -10.453  10.857  50.530  0.00  0.00    -0.418 NA
ATOM     25  C13 <0> A   1      -7.591  10.963  52.902  0.00  0.00    +0.146 C 
ENDBRANCH  18  19
ENDBRANCH  16  18
ENDBRANCH   5  14
BRANCH   1  27
ATOM     26  C1  <0> A   1     -13.518  12.387  44.314  0.00  0.00    +0.040 C 
ATOM     27  C2  <0> A   1     -12.466  11.485  44.961  0.00  0.00    +0.280 C 
ENDBRANCH   1  27
BRANCH   2  28
ATOM     28  C21 <0> A   1     -13.252   8.842  43.591  0.00  0.00    +0.116 C 
BRANCH  28  29
ATOM     29  C22 <0> A   1     -11.900   8.142  43.444  0.00  0.00    -0.007 C 
BRANCH  29  30
ATOM     30  C23 <0> A   1     -11.774   7.565  42.033  0.00  0.00    +0.212 C 
BRANCH  30  31
ATOM     31  O5  <0> A   1     -11.660   6.143  42.108  0.00  0.00    -0.542 OA
ATOM     32  H32 <0> A   1     -12.405   5.711  42.548  0.00  0.00    +0.363 HD
ENDBRANCH  30  31
BRANCH  30  33
ATOM     33  C24 <0> A   1     -13.015   7.935  41.218  0.00  0.00    -0.051 C 
BRANCH  33  34
ATOM     34  C25 <0> A   1     -12.624   8.923  40.115  0.00  0.00    +0.230 C 
BRANCH  34  35
ATOM     35  O4  <0> A   1     -12.235   8.201  38.945  0.00  0.00    -0.528 OA
ATOM     36  H31 <0> A   1     -12.951   7.693  38.539  0.00  0.00    +0.349 HD
ENDBRANCH  34  35
BRANCH  34  37
ATOM     37  C26 <0> A   1     -13.820   9.818  39.787  0.00  0.00    -0.103 C 
BRANCH  37  38
ATOM     38  C27 <0> A   1     -13.382  11.260  39.782  0.00  0.00    +0.491 C 
ATOM     39  O2  <0> A   1     -12.776  11.717  40.736  0.00  0.00    -0.681 OA
ATOM     40  O3  <0> A   1     -13.633  11.970  38.824  0.00  0.00    -0.713 OA
ENDBRANCH  37  38
ENDBRANCH  34  37
ENDBRANCH  33  34
ENDBRANCH  30  33
ENDBRANCH  29  30
ENDBRANCH  28  29
ENDBRANCH   2  28
TORSDOF 14
ENDMDL
MODEL 8
REMARK VINA RESULT:      -7.5      3.711      8.096
REMARK  Name = CHEMBL392897
REMARK  17 active torsions:
REMARK  status: ('A' for Active; 'I' for Inactive)
REMARK    1  A    between atoms: C1_1  and  C2_2
REMARK    2  A    between atoms: C2_2  and  N1_3
REMARK    3  A    between atoms: C3_4  and  C21_27
REMARK    4  A    between atoms: C4_5  and  C15_20
REMARK    5  A    between atoms: C5_6  and  C14_19
REMARK    6  A    between atoms: C6_7  and  C7_8
REMARK    7  A    between atoms: N2_10  and  C8_11
REMARK    8  A    between atoms: C8_11  and  C9_12
REMARK    9  A    between atoms: C11_15  and  C13_18
REMARK   10  A    between atoms: C21_27  and  C22_28
REMARK   11  A    between atoms: C22_28  and  C23_29
REMARK   12  A    between atoms: C23_29  and  C24_31
REMARK   13  A    between atoms: C23_29  and  O5_39
REMARK   14  A    between atoms: C24_31  and  C25_32
REMARK   15  A    between atoms: C25_32  and  C26_34
REMARK   16  A    between atoms: C25_32  and  O4_38
REMARK   17  A    between atoms: C26_34  and  C27_35
REMARK                            x       y       z     vdW  Elec       q    Type
REMARK                         _______ _______ _______ _____ _____    ______ ____
ROOT
ATOM      1  N1  <0> A   1     -13.448   9.702  47.254  0.00  0.00    -0.407 N 
ATOM      2  C3  <0> A   1     -14.188   9.075  48.191  0.00  0.00    +0.078 C 
ATOM      3  C4  <0> A   1     -15.479   9.510  48.090  0.00  0.00    -0.142 C 
ATOM      4  C5  <0> A   1     -15.528  10.447  47.041  0.00  0.00    -0.087 C 
ATOM      5  C6  <0> A   1     -14.260  10.556  46.541  0.00  0.00    -0.052 C 
ATOM      6  C14 <0> A   1     -16.746  11.194  46.564  0.00  0.00    +0.109 C 
ENDROOT
BRANCH   3   7
ATOM      7  C15 <0> A   1     -16.621   9.071  48.932  0.00  0.00    -0.008 A 
ATOM      8  C16 <0> A   1     -16.898   9.726  50.130  0.00  0.00    +0.049 A 
ATOM      9  C17 <0> A   1     -17.960   9.315  50.909  0.00  0.00    -0.016 A 
ATOM     10  C18 <0> A   1     -18.751   8.252  50.501  0.00  0.00    +0.093 A 
ATOM     11  C19 <0> A   1     -18.478   7.598  49.310  0.00  0.00    -0.017 A 
ATOM     12  C20 <0> A   1     -17.422   8.007  48.523  0.00  0.00    +0.053 A 
ATOM     13  F1  <0> A   1     -19.789   7.852  51.267  0.00  0.00    -0.142 F 
ENDBRANCH   3   7
BRANCH   5  14
ATOM     14  C7  <0> A   1     -13.840  11.427  45.438  0.00  0.00    +0.602 C 
ATOM     15  O1  <0> A   1     -13.292  12.488  45.675  0.00  0.00    -0.518 OA
ATOM     16  N2  <0> A   1     -14.060  11.053  44.163  0.00  0.00    -0.718 N 
ATOM     17  H8  <0> A   1     -14.561  10.243  43.974  0.00  0.00    +0.405 HD
BRANCH  16  18
ATOM     18  C8  <0> A   1     -13.542  11.866  43.060  0.00  0.00    +0.361 C 
BRANCH  18  19
ATOM     19  C9  <0> A   1     -13.262  10.983  41.871  0.00  0.00    +0.046 A 
ATOM     20  C10 <0> A   1     -13.313   9.606  42.006  0.00  0.00    +0.252 A 
ATOM     21  N3  <0> A   1     -13.068   8.831  40.963  0.00  0.00    -0.439 NA
ATOM     22  C11 <0> A   1     -12.775   9.372  39.793  0.00  0.00    +0.088 A 
ATOM     23  C12 <0> A   1     -12.725  10.748  39.660  0.00  0.00    +0.226 A 
ATOM     24  N4  <0> A   1     -12.974  11.522  40.701  0.00  0.00    -0.418 NA
ATOM     25  C13 <0> A   1     -12.495   8.489  38.605  0.00  0.00    +0.146 C 
ENDBRANCH  18  19
ENDBRANCH  16  18
ENDBRANCH   5  14
BRANCH   1  27
ATOM     26  C1  <0> A   1     -11.232  10.562  47.825  0.00  0.00    +0.040 C 
ATOM     27  C2  <0> A   1     -12.013   9.512  47.033  0.00  0.00    +0.280 C 
ENDBRANCH   1  27
BRANCH   2  28
ATOM     28  C21 <0> A   1     -13.675   8.063  49.182  0.00  0.00    +0.116 C 
BRANCH  28  29
ATOM     29  C22 <0> A   1     -14.279   6.692  48.871  0.00  0.00    -0.007 C 
BRANCH  29  30
ATOM     30  C23 <0> A   1     -13.891   6.273  47.452  0.00  0.00    +0.212 C 
BRANCH  30  31
ATOM     31  O5  <0> A   1     -12.854   5.292  47.511  0.00  0.00    -0.542 OA
ATOM     32  H32 <0> A   1     -11.996   5.643  47.787  0.00  0.00    +0.363 HD
ENDBRANCH  30  31
BRANCH  30  33
ATOM     33  C24 <0> A   1     -15.112   5.683  46.743  0.00  0.00    -0.051 C 
BRANCH  33  34
ATOM     34  C25 <0> A   1     -15.475   6.558  45.541  0.00  0.00    +0.230 C 
BRANCH  34  35
ATOM     35  O4  <0> A   1     -14.316   7.271  45.104  0.00  0.00    -0.528 OA
ATOM     36  H31 <0> A   1     -13.575   6.703  44.854  0.00  0.00    +0.349 HD
ENDBRANCH  34  35
BRANCH  34  37
ATOM     37  C26 <0> A   1     -15.987   5.673  44.403  0.00  0.00    -0.103 C 
BRANCH  37  38
ATOM     38  C27 <0> A   1     -14.876   5.436  43.412  0.00  0.00    +0.491 C 
ATOM     39  O2  <0> A   1     -14.764   6.159  42.437  0.00  0.00    -0.681 OA
ATOM     40  O3  <0> A   1     -14.089   4.522  43.586  0.00  0.00    -0.713 OA
ENDBRANCH  37  38
ENDBRANCH  34  37
ENDBRANCH  33  34
ENDBRANCH  30  33
ENDBRANCH  29  30
ENDBRANCH  28  29
ENDBRANCH   2  28
TORSDOF 14
ENDMDL
MODEL 9
REMARK VINA RESULT:      -7.5     15.613     19.391
REMARK  Name = CHEMBL392897
REMARK  17 active torsions:
REMARK  status: ('A' for Active; 'I' for Inactive)
REMARK    1  A    between atoms: C1_1  and  C2_2
REMARK    2  A    between atoms: C2_2  and  N1_3
REMARK    3  A    between atoms: C3_4  and  C21_27
REMARK    4  A    between atoms: C4_5  and  C15_20
REMARK    5  A    between atoms: C5_6  and  C14_19
REMARK    6  A    between atoms: C6_7  and  C7_8
REMARK    7  A    between atoms: N2_10  and  C8_11
REMARK    8  A    between atoms: C8_11  and  C9_12
REMARK    9  A    between atoms: C11_15  and  C13_18
REMARK   10  A    between atoms: C21_27  and  C22_28
REMARK   11  A    between atoms: C22_28  and  C23_29
REMARK   12  A    between atoms: C23_29  and  C24_31
REMARK   13  A    between atoms: C23_29  and  O5_39
REMARK   14  A    between atoms: C24_31  and  C25_32
REMARK   15  A    between atoms: C25_32  and  C26_34
REMARK   16  A    between atoms: C25_32  and  O4_38
REMARK   17  A    between atoms: C26_34  and  C27_35
REMARK                            x       y       z     vdW  Elec       q    Type
REMARK                         _______ _______ _______ _____ _____    ______ ____
ROOT
ATOM      1  N1  <0> A   1     -25.088  -3.653  51.027  0.00  0.00    -0.407 N 
ATOM      2  C3  <0> A   1     -25.587  -4.852  51.388  0.00  0.00    +0.078 C 
ATOM      3  C4  <0> A   1     -26.943  -4.741  51.507  0.00  0.00    -0.142 C 
ATOM      4  C5  <0> A   1     -27.286  -3.411  51.202  0.00  0.00    -0.087 C 
ATOM      5  C6  <0> A   1     -26.123  -2.753  50.913  0.00  0.00    -0.052 C 
ATOM      6  C14 <0> A   1     -28.673  -2.821  51.201  0.00  0.00    +0.109 C 
ENDROOT
BRANCH   3   7
ATOM      7  C15 <0> A   1     -27.883  -5.827  51.886  0.00  0.00    -0.008 A 
ATOM      8  C16 <0> A   1     -28.277  -5.980  53.212  0.00  0.00    +0.049 A 
ATOM      9  C17 <0> A   1     -29.150  -6.990  53.560  0.00  0.00    -0.016 A 
ATOM     10  C18 <0> A   1     -29.635  -7.853  52.590  0.00  0.00    +0.093 A 
ATOM     11  C19 <0> A   1     -29.246  -7.704  51.268  0.00  0.00    -0.017 A 
ATOM     12  C20 <0> A   1     -28.378  -6.693  50.912  0.00  0.00    +0.053 A 
ATOM     13  F1  <0> A   1     -30.489  -8.841  52.933  0.00  0.00    -0.142 F 
ENDBRANCH   3   7
BRANCH   5  14
ATOM     14  C7  <0> A   1     -26.001  -1.338  50.546  0.00  0.00    +0.602 C 
ATOM     15  O1  <0> A   1     -25.898  -1.019  49.376  0.00  0.00    -0.518 OA
ATOM     16  N2  <0> A   1     -26.004  -0.390  51.504  0.00  0.00    -0.718 N 
ATOM     17  H8  <0> A   1     -26.012  -0.647  52.440  0.00  0.00    +0.405 HD
BRANCH  16  18
ATOM     18  C8  <0> A   1     -25.997   1.027  51.134  0.00  0.00    +0.361 C 
BRANCH  18  19
ATOM     19  C9  <0> A   1     -27.314   1.654  51.513  0.00  0.00    +0.046 A 
ATOM     20  C10 <0> A   1     -27.406   3.026  51.675  0.00  0.00    +0.252 A 
ATOM     21  N3  <0> A   1     -28.562   3.574  52.007  0.00  0.00    -0.439 NA
ATOM     22  C11 <0> A   1     -29.627   2.814  52.185  0.00  0.00    +0.088 A 
ATOM     23  C12 <0> A   1     -29.534   1.443  52.023  0.00  0.00    +0.226 A 
ATOM     24  N4  <0> A   1     -28.380   0.894  51.687  0.00  0.00    -0.418 NA
ATOM     25  C13 <0> A   1     -30.944   3.439  52.565  0.00  0.00    +0.146 C 
ENDBRANCH  18  19
ENDBRANCH  16  18
ENDBRANCH   5  14
BRANCH   1  27
ATOM     26  C1  <0> A   1     -23.022  -2.920  52.111  0.00  0.00    +0.040 C 
ATOM     27  C2  <0> A   1     -23.672  -3.354  50.796  0.00  0.00    +0.280 C 
ENDBRANCH   1  27
BRANCH   2  28
ATOM     28  C21 <0> A   1     -24.783  -6.105  51.622  0.00  0.00    +0.116 C 
BRANCH  28  29
ATOM     29  C22 <0> A   1     -24.734  -6.928  50.334  0.00  0.00    -0.007 C 
BRANCH  29  30
ATOM     30  C23 <0> A   1     -23.854  -8.161  50.548  0.00  0.00    +0.212 C 
BRANCH  30  31
ATOM     31  O5  <0> A   1     -24.592  -9.155  51.260  0.00  0.00    -0.542 OA
ATOM     32  H32 <0> A   1     -25.364  -9.490  50.782  0.00  0.00    +0.363 HD
ENDBRANCH  30  31
BRANCH  30  33
ATOM     33  C24 <0> A   1     -23.421  -8.721  49.192  0.00  0.00    -0.051 C 
BRANCH  33  34
ATOM     34  C25 <0> A   1     -24.512  -8.445  48.155  0.00  0.00    +0.230 C 
BRANCH  34  35
ATOM     35  O4  <0> A   1     -23.923  -7.877  46.983  0.00  0.00    -0.528 OA
ATOM     36  H31 <0> A   1     -23.078  -8.276  46.734  0.00  0.00    +0.349 HD
ENDBRANCH  34  35
BRANCH  34  37
ATOM     37  C26 <0> A   1     -25.211  -9.756  47.789  0.00  0.00    -0.103 C 
BRANCH  37  38
ATOM     38  C27 <0> A   1     -26.631  -9.726  48.295  0.00  0.00    +0.491 C 
ATOM     39  O2  <0> A   1     -26.851  -9.676  49.493  0.00  0.00    -0.681 OA
ATOM     40  O3  <0> A   1     -27.559  -9.751  47.505  0.00  0.00    -0.713 OA
ENDBRANCH  37  38
ENDBRANCH  34  37
ENDBRANCH  33  34
ENDBRANCH  30  33
ENDBRANCH  29  30
ENDBRANCH  28  29
ENDBRANCH   2  28
TORSDOF 14
ENDMDL
MODEL 10
REMARK VINA RESULT:      -7.5      9.682     15.700
REMARK  Name = CHEMBL392897
REMARK  17 active torsions:
REMARK  status: ('A' for Active; 'I' for Inactive)
REMARK    1  A    between atoms: C1_1  and  C2_2
REMARK    2  A    between atoms: C2_2  and  N1_3
REMARK    3  A    between atoms: C3_4  and  C21_27
REMARK    4  A    between atoms: C4_5  and  C15_20
REMARK    5  A    between atoms: C5_6  and  C14_19
REMARK    6  A    between atoms: C6_7  and  C7_8
REMARK    7  A    between atoms: N2_10  and  C8_11
REMARK    8  A    between atoms: C8_11  and  C9_12
REMARK    9  A    between atoms: C11_15  and  C13_18
REMARK   10  A    between atoms: C21_27  and  C22_28
REMARK   11  A    between atoms: C22_28  and  C23_29
REMARK   12  A    between atoms: C23_29  and  C24_31
REMARK   13  A    between atoms: C23_29  and  O5_39
REMARK   14  A    between atoms: C24_31  and  C25_32
REMARK   15  A    between atoms: C25_32  and  C26_34
REMARK   16  A    between atoms: C25_32  and  O4_38
REMARK   17  A    between atoms: C26_34  and  C27_35
REMARK                            x       y       z     vdW  Elec       q    Type
REMARK                         _______ _______ _______ _____ _____    ______ ____
ROOT
ATOM      1  N1  <0> A   1     -23.349   0.552  51.872  0.00  0.00    -0.407 N 
ATOM      2  C3  <0> A   1     -23.059  -0.694  52.298  0.00  0.00    +0.078 C 
ATOM      3  C4  <0> A   1     -21.859  -0.663  52.951  0.00  0.00    -0.142 C 
ATOM      4  C5  <0> A   1     -21.397   0.666  52.922  0.00  0.00    -0.087 C 
ATOM      5  C6  <0> A   1     -22.331   1.400  52.245  0.00  0.00    -0.052 C 
ATOM      6  C14 <0> A   1     -20.112   1.182  53.519  0.00  0.00    +0.109 C 
ENDROOT
BRANCH   3   7
ATOM      7  C15 <0> A   1     -21.171  -1.820  53.579  0.00  0.00    -0.008 A 
ATOM      8  C16 <0> A   1     -20.238  -2.555  52.853  0.00  0.00    +0.049 A 
ATOM      9  C17 <0> A   1     -19.601  -3.630  53.440  0.00  0.00    -0.016 A 
ATOM     10  C18 <0> A   1     -19.890  -3.977  54.751  0.00  0.00    +0.093 A 
ATOM     11  C19 <0> A   1     -20.818  -3.247  55.476  0.00  0.00    -0.017 A 
ATOM     12  C20 <0> A   1     -21.454  -2.169  54.898  0.00  0.00    +0.053 A 
ATOM     13  F1  <0> A   1     -19.265  -5.030  55.322  0.00  0.00    -0.142 F 
ENDBRANCH   3   7
BRANCH   5  14
ATOM     14  C7  <0> A   1     -22.260   2.839  51.966  0.00  0.00    +0.602 C 
ATOM     15  O1  <0> A   1     -22.683   3.638  52.781  0.00  0.00    -0.518 OA
ATOM     16  N2  <0> A   1     -21.724   3.276  50.810  0.00  0.00    -0.718 N 
ATOM     17  H8  <0> A   1     -21.453   2.639  50.130  0.00  0.00    +0.405 HD
BRANCH  16  18
ATOM     18  C8  <0> A   1     -21.549   4.712  50.579  0.00  0.00    +0.361 C 
BRANCH  18  19
ATOM     19  C9  <0> A   1     -20.263   4.948  49.829  0.00  0.00    +0.046 A 
ATOM     20  C10 <0> A   1     -20.219   5.885  48.810  0.00  0.00    +0.252 A 
ATOM     21  N3  <0> A   1     -19.091   6.092  48.153  0.00  0.00    -0.439 NA
ATOM     22  C11 <0> A   1     -18.007   5.405  48.469  0.00  0.00    +0.088 A 
ATOM     23  C12 <0> A   1     -18.053   4.470  49.487  0.00  0.00    +0.226 A 
ATOM     24  N4  <0> A   1     -19.179   4.265  50.147  0.00  0.00    -0.418 NA
ATOM     25  C13 <0> A   1     -16.721   5.640  47.719  0.00  0.00    +0.146 C 
ENDBRANCH  18  19
ENDBRANCH  16  18
ENDBRANCH   5  14
BRANCH   1  27
ATOM     26  C1  <0> A   1     -25.628   1.404  52.110  0.00  0.00    +0.040 C 
ATOM     27  C2  <0> A   1     -24.550   0.940  51.129  0.00  0.00    +0.280 C 
ENDBRANCH   1  27
BRANCH   2  28
ATOM     28  C21 <0> A   1     -23.915  -1.916  52.089  0.00  0.00    +0.116 C 
BRANCH  28  29
ATOM     29  C22 <0> A   1     -23.592  -2.539  50.730  0.00  0.00    -0.007 C 
BRANCH  29  30
ATOM     30  C23 <0> A   1     -23.678  -4.063  50.832  0.00  0.00    +0.212 C 
BRANCH  30  31
ATOM     31  O5  <0> A   1     -22.863  -4.515  51.914  0.00  0.00    -0.542 OA
ATOM     32  H32 <0> A   1     -23.346  -4.653  52.740  0.00  0.00    +0.363 HD
ENDBRANCH  30  31
BRANCH  30  33
ATOM     33  C24 <0> A   1     -25.130  -4.476  51.080  0.00  0.00    -0.051 C 
BRANCH  33  34
ATOM     34  C25 <0> A   1     -25.347  -5.905  50.577  0.00  0.00    +0.230 C 
BRANCH  34  35
ATOM     35  O4  <0> A   1     -24.209  -6.320  49.819  0.00  0.00    -0.528 OA
ATOM     36  H31 <0> A   1     -24.217  -6.019  48.900  0.00  0.00    +0.349 HD
ENDBRANCH  34  35
BRANCH  34  37
ATOM     37  C26 <0> A   1     -25.532  -6.843  51.772  0.00  0.00    -0.103 C 
BRANCH  37  38
ATOM     38  C27 <0> A   1     -24.340  -7.759  51.880  0.00  0.00    +0.491 C 
ATOM     39  O2  <0> A   1     -24.363  -8.855  51.348  0.00  0.00    -0.681 OA
ATOM     40  O3  <0> A   1     -23.352  -7.403  52.500  0.00  0.00    -0.713 OA
ENDBRANCH  37  38
ENDBRANCH  34  37
ENDBRANCH  33  34
ENDBRANCH  30  33
ENDBRANCH  29  30
ENDBRANCH  28  29
ENDBRANCH   2  28
TORSDOF 14
ENDMDL
