REMARK  Name = CHEMBL293944
REMARK  16 active torsions:
REMARK  status: ('A' for Active; 'I' for Inactive)
REMARK    1  A    between atoms: C1_1  and  C2_2
REMARK    2  A    between atoms: C2_2  and  C3_3
REMARK    3  A    between atoms: C3_3  and  C4_5
REMARK    4  A    between atoms: C3_3  and  C5_6
REMARK    5  A    between atoms: C5_6  and  O2_8
REMARK    6  A    between atoms: O2_8  and  C6_9
REMARK    7  A    between atoms: C8_12  and  C24_37
REMARK    8  A    between atoms: C12_18  and  C17_25
REMARK    9  A    between atoms: C13_20  and  C16_24
REMARK   10  A    between atoms: C17_25  and  C18_26
REMARK   11  A    between atoms: C18_26  and  C19_27
REMARK   12  A    between atoms: C19_27  and  C20_29
REMARK   13  A    between atoms: C20_29  and  C21_30
REMARK   14  A    between atoms: C21_30  and  C22_32
REMARK   15  A    between atoms: C21_30  and  O6_36
REMARK   16  A    between atoms: C22_32  and  C23_33
REMARK                            x       y       z     vdW  Elec       q    Type
REMARK                         _______ _______ _______ _____ _____    ______ ____
ROOT
ATOM      1  C6  <0> A   1       1.459  -4.207  -2.256  0.00  0.00    +0.187 C 
ATOM      2  C7  <0> A   1       0.242  -4.886  -2.900  0.00  0.00    +0.002 C 
ATOM      3  C8  <0> A   1       0.353  -6.402  -2.739  0.00  0.00    -0.013 C 
ATOM      4  C9  <0> A   1       1.629  -6.885  -3.434  0.00  0.00    +0.028 C 
ATOM      5  C10 <0> A   1       2.840  -6.203  -2.814  0.00  0.00    +0.033 C 
ATOM      6  C11 <0> A   1       2.732  -4.677  -2.951  0.00  0.00    +0.020 C 
ATOM      7  C12 <0> A   1       3.999  -4.083  -2.345  0.00  0.00    -0.008 C 
ATOM      8  C13 <0> A   1       4.162  -4.433  -0.874  0.00  0.00    +0.020 C 
ATOM      9  C14 <0> A   1       3.541  -5.745  -0.513  0.00  0.00    -0.041 C 
ATOM     10  C15 <0> A   1       2.963  -6.543  -1.358  0.00  0.00    -0.047 C 
ATOM     11  C16 <0> A   1       3.604  -3.319   0.012  0.00  0.00    +0.022 C 
ATOM     12  C24 <0> A   1      -0.862  -7.076  -3.381  0.00  0.00    +0.018 C 
ENDROOT
BRANCH   1  13
ATOM     13  O2  <0> A   1       1.287  -2.795  -2.386  0.00  0.00    -0.337 OA
BRANCH  13  14
ATOM     14  C5  <0> A   1       0.596  -2.174  -1.417  0.00  0.00    +0.467 C 
ATOM     15  O1  <0> A   1       0.153  -2.808  -0.489  0.00  0.00    -0.508 OA
BRANCH  14  16
ATOM     16  C3  <0> A   1       0.373  -0.685  -1.487  0.00  0.00    +0.024 C 
ATOM     17  C4  <0> A   1      -0.395  -0.344  -2.765  0.00  0.00    +0.058 C 
BRANCH  16  19
ATOM     18  C1  <0> A   1      -0.555   1.292  -0.275  0.00  0.00    +0.023 C 
ATOM     19  C2  <0> A   1      -0.435  -0.233  -0.269  0.00  0.00    +0.032 C 
ENDBRANCH  16  19
ENDBRANCH  14  16
ENDBRANCH  13  14
ENDBRANCH   1  13
BRANCH   7  20
ATOM     20  C17 <0> A   1       4.083  -2.571  -2.551  0.00  0.00    +0.044 C 
BRANCH  20  21
ATOM     21  C18 <0> A   1       4.185  -2.266  -4.047  0.00  0.00    +0.015 C 
BRANCH  21  22
ATOM     22  C19 <0> A   1       4.406  -0.788  -4.244  0.00  0.00    +0.351 C 
ATOM     23  O3  <0> A   1       4.475  -0.055  -3.287  0.00  0.00    -0.430 OA
BRANCH  22  24
ATOM     24  C20 <0> A   1       4.541  -0.225  -5.636  0.00  0.00    -0.020 C 
BRANCH  24  25
ATOM     25  C21 <0> A   1       4.756   1.287  -5.555  0.00  0.00    +0.241 C 
BRANCH  25  26
ATOM     26  O6  <0> A   1       6.005   1.558  -4.915  0.00  0.00    -0.532 OA
ATOM     27  H34 <0> A   1       6.770   1.184  -5.373  0.00  0.00    +0.350 HD
ENDBRANCH  25  26
BRANCH  25  28
ATOM     28  C22 <0> A   1       4.769   1.877  -6.967  0.00  0.00    -0.098 C 
BRANCH  28  29
ATOM     29  C23 <0> A   1       4.857   3.379  -6.884  0.00  0.00    +0.491 C 
ATOM     30  O4  <0> A   1       4.906   3.927  -5.796  0.00  0.00    -0.679 OA
ATOM     31  O5  <0> A   1       4.880   4.045  -7.905  0.00  0.00    -0.713 OA
ENDBRANCH  28  29
ENDBRANCH  25  28
ENDBRANCH  24  25
ENDBRANCH  22  24
ENDBRANCH  21  22
ENDBRANCH  20  21
ENDBRANCH   7  20
TORSDOF 12
