MODEL 1
REMARK VINA RESULT:      -8.0      0.000      0.000
REMARK  Name = CHEMBL102168
REMARK  15 active torsions:
REMARK  status: ('A' for Active; 'I' for Inactive)
REMARK    1  A    between atoms: C1_1  and  C2_2
REMARK    2  A    between atoms: C2_2  and  C3_3
REMARK    3  A    between atoms: C2_2  and  C4_4
REMARK    4  A    between atoms: C6_6  and  S1_29
REMARK    5  A    between atoms: C8_8  and  C16_22
REMARK    6  A    between atoms: C9_9  and  O1_10
REMARK    7  A    between atoms: O1_10  and  C10_11
REMARK    8  A    between atoms: C10_11  and  C11_12
REMARK    9  A    between atoms: C11_12  and  C12_13
REMARK   10  A    between atoms: C11_12  and  O5_21
REMARK   11  A    between atoms: C12_13  and  C13_14
REMARK   12  A    between atoms: C13_14  and  C14_16
REMARK   13  A    between atoms: C13_14  and  O4_20
REMARK   14  A    between atoms: C14_16  and  C15_17
REMARK   15  A    between atoms: S1_29  and  C22_30
REMARK                            x       y       z     vdW  Elec       q    Type
REMARK                         _______ _______ _______ _____ _____    ______ ____
ROOT
ATOM      1  C4  <0> A   1     -14.822   6.540  45.794  0.00  0.00    -0.097 A 
ATOM      2  C5  <0> A   1     -15.292   6.197  47.048  0.00  0.00    +0.091 A 
ATOM      3  C6  <0> A   1     -15.168   7.086  48.108  0.00  0.00    -0.151 A 
ATOM      4  C7  <0> A   1     -14.573   8.324  47.912  0.00  0.00    +0.095 A 
ATOM      5  C8  <0> A   1     -14.099   8.673  46.650  0.00  0.00    -0.070 A 
ATOM      6  C9  <0> A   1     -14.221   7.770  45.589  0.00  0.00    +0.147 A 
ENDROOT
BRANCH   5   7
ATOM      7  C16 <0> A   1     -13.461   9.994  46.434  0.00  0.00    -0.063 A 
ATOM      8  C17 <0> A   1     -12.186  10.246  46.936  0.00  0.00    +0.083 A 
ATOM      9  C18 <0> A   1     -11.596  11.476  46.731  0.00  0.00    -0.012 A 
ATOM     10  C19 <0> A   1     -12.270  12.462  46.029  0.00  0.00    +0.107 A 
ATOM     11  C20 <0> A   1     -13.539  12.217  45.528  0.00  0.00    -0.018 A 
ATOM     12  C21 <0> A   1     -14.134  10.986  45.723  0.00  0.00    +0.055 A 
ATOM     13  F1  <0> A   1     -11.689  13.665  45.832  0.00  0.00    -0.137 F 
ENDBRANCH   5   7
BRANCH   1  15
ATOM     14  C1  <0> A   1     -14.519   4.178  45.104  0.00  0.00    +0.031 C 
ATOM     15  C2  <0> A   1     -14.960   5.570  44.648  0.00  0.00    +0.035 C 
ATOM     16  C3  <0> A   1     -16.421   5.520  44.195  0.00  0.00    +0.028 C 
ENDBRANCH   1  15
BRANCH   6  17
ATOM     17  O1  <0> A   1     -13.756   8.104  44.356  0.00  0.00    -0.317 OA
BRANCH  17  18
ATOM     18  C10 <0> A   1     -12.375   7.846  44.091  0.00  0.00    +0.156 C 
BRANCH  18  19
ATOM     19  C11 <0> A   1     -12.203   7.446  42.625  0.00  0.00    +0.226 C 
BRANCH  19  20
ATOM     20  O5  <0> A   1     -12.354   6.030  42.496  0.00  0.00    -0.530 OA
ATOM     21  H19 <0> A   1     -12.150   5.538  43.303  0.00  0.00    +0.363 HD
ENDBRANCH  19  20
BRANCH  19  22
ATOM     22  C12 <0> A   1     -13.264   8.149  41.776  0.00  0.00    -0.042 C 
BRANCH  22  23
ATOM     23  C13 <0> A   1     -12.612   9.280  40.979  0.00  0.00    +0.235 C 
BRANCH  23  24
ATOM     24  O4  <0> A   1     -12.513   8.900  39.605  0.00  0.00    -0.526 OA
ATOM     25  H18 <0> A   1     -11.604   8.837  39.279  0.00  0.00    +0.350 HD
ENDBRANCH  23  24
BRANCH  23  26
ATOM     26  C14 <0> A   1     -13.464  10.546  41.097  0.00  0.00    -0.101 C 
BRANCH  26  27
ATOM     27  C15 <0> A   1     -13.459  11.280  39.782  0.00  0.00    +0.491 C 
ATOM     28  O2  <0> A   1     -14.463  11.295  39.089  0.00  0.00    -0.680 OA
ATOM     29  O3  <0> A   1     -12.453  11.859  39.410  0.00  0.00    -0.712 OA
ENDBRANCH  26  27
ENDBRANCH  23  26
ENDBRANCH  22  23
ENDBRANCH  19  22
ENDBRANCH  18  19
ENDBRANCH  17  18
ENDBRANCH   6  17
BRANCH   3  30
ATOM     30  S1  <0> A   1     -15.770   6.643  49.703  0.00  0.00    +0.004 S 
BRANCH  30  31
ATOM     31  C22 <0> A   1     -17.419   6.099  49.401  0.00  0.00    -0.110 A 
ATOM     32  C23 <0> A   1     -17.839   4.860  49.869  0.00  0.00    +0.067 A 
ATOM     33  C24 <0> A   1     -19.132   4.437  49.630  0.00  0.00    +0.004 A 
ATOM     34  C25 <0> A   1     -20.009   5.246  48.927  0.00  0.00    +0.093 A 
ATOM     35  C26 <0> A   1     -19.592   6.481  48.461  0.00  0.00    +0.005 A 
ATOM     36  C27 <0> A   1     -18.302   6.911  48.702  0.00  0.00    +0.040 A 
ATOM     37  F2  <0> A   1     -21.273   4.829  48.695  0.00  0.00    -0.139 F 
ENDBRANCH  30  31
ENDBRANCH   3  30
TORSDOF 13
ENDMDL
MODEL 2
REMARK VINA RESULT:      -8.0      1.278      1.585
REMARK  Name = CHEMBL102168
REMARK  15 active torsions:
REMARK  status: ('A' for Active; 'I' for Inactive)
REMARK    1  A    between atoms: C1_1  and  C2_2
REMARK    2  A    between atoms: C2_2  and  C3_3
REMARK    3  A    between atoms: C2_2  and  C4_4
REMARK    4  A    between atoms: C6_6  and  S1_29
REMARK    5  A    between atoms: C8_8  and  C16_22
REMARK    6  A    between atoms: C9_9  and  O1_10
REMARK    7  A    between atoms: O1_10  and  C10_11
REMARK    8  A    between atoms: C10_11  and  C11_12
REMARK    9  A    between atoms: C11_12  and  C12_13
REMARK   10  A    between atoms: C11_12  and  O5_21
REMARK   11  A    between atoms: C12_13  and  C13_14
REMARK   12  A    between atoms: C13_14  and  C14_16
REMARK   13  A    between atoms: C13_14  and  O4_20
REMARK   14  A    between atoms: C14_16  and  C15_17
REMARK   15  A    between atoms: S1_29  and  C22_30
REMARK                            x       y       z     vdW  Elec       q    Type
REMARK                         _______ _______ _______ _____ _____    ______ ____
ROOT
ATOM      1  C4  <0> A   1     -15.055   6.413  45.701  0.00  0.00    -0.097 A 
ATOM      2  C5  <0> A   1     -15.491   6.043  46.959  0.00  0.00    +0.091 A 
ATOM      3  C6  <0> A   1     -15.320   6.900  48.040  0.00  0.00    -0.151 A 
ATOM      4  C7  <0> A   1     -14.709   8.133  47.859  0.00  0.00    +0.095 A 
ATOM      5  C8  <0> A   1     -14.268   8.509  46.593  0.00  0.00    -0.070 A 
ATOM      6  C9  <0> A   1     -14.439   7.639  45.511  0.00  0.00    +0.147 A 
ENDROOT
BRANCH   5   7
ATOM      7  C16 <0> A   1     -13.614   9.825  46.393  0.00  0.00    -0.063 A 
ATOM      8  C17 <0> A   1     -12.278  10.003  46.748  0.00  0.00    +0.083 A 
ATOM      9  C18 <0> A   1     -11.674  11.229  46.560  0.00  0.00    -0.012 A 
ATOM     10  C19 <0> A   1     -12.394  12.283  46.019  0.00  0.00    +0.107 A 
ATOM     11  C20 <0> A   1     -13.722  12.111  45.665  0.00  0.00    -0.018 A 
ATOM     12  C21 <0> A   1     -14.333  10.886  45.845  0.00  0.00    +0.055 A 
ATOM     13  F1  <0> A   1     -11.798  13.482  45.838  0.00  0.00    -0.137 F 
ENDBRANCH   5   7
BRANCH   1  15
ATOM     14  C1  <0> A   1     -14.617   4.122  44.861  0.00  0.00    +0.031 C 
ATOM     15  C2  <0> A   1     -15.244   5.478  44.534  0.00  0.00    +0.035 C 
ATOM     16  C3  <0> A   1     -16.740   5.297  44.264  0.00  0.00    +0.028 C 
ENDBRANCH   1  15
BRANCH   6  17
ATOM     17  O1  <0> A   1     -14.006   8.000  44.274  0.00  0.00    -0.317 OA
BRANCH  17  18
ATOM     18  C10 <0> A   1     -12.641   7.719  43.957  0.00  0.00    +0.156 C 
BRANCH  18  19
ATOM     19  C11 <0> A   1     -12.175   8.650  42.837  0.00  0.00    +0.226 C 
BRANCH  19  20
ATOM     20  O5  <0> A   1     -11.578   7.879  41.793  0.00  0.00    -0.530 OA
ATOM     21  H19 <0> A   1     -10.918   8.360  41.276  0.00  0.00    +0.363 HD
ENDBRANCH  19  20
BRANCH  19  22
ATOM     22  C12 <0> A   1     -13.376   9.418  42.280  0.00  0.00    -0.042 C 
BRANCH  22  23
ATOM     23  C13 <0> A   1     -12.898  10.730  41.655  0.00  0.00    +0.235 C 
BRANCH  23  24
ATOM     24  O4  <0> A   1     -11.525  10.605  41.278  0.00  0.00    -0.526 OA
ATOM     25  H18 <0> A   1     -11.318   9.784  40.810  0.00  0.00    +0.350 HD
ENDBRANCH  23  24
BRANCH  23  26
ATOM     26  C14 <0> A   1     -13.740  11.043  40.417  0.00  0.00    -0.101 C 
BRANCH  26  27
ATOM     27  C15 <0> A   1     -12.863  11.021  39.193  0.00  0.00    +0.491 C 
ATOM     28  O2  <0> A   1     -12.606   9.961  38.646  0.00  0.00    -0.680 OA
ATOM     29  O3  <0> A   1     -12.409  12.061  38.748  0.00  0.00    -0.712 OA
ENDBRANCH  26  27
ENDBRANCH  23  26
ENDBRANCH  22  23
ENDBRANCH  19  22
ENDBRANCH  18  19
ENDBRANCH  17  18
ENDBRANCH   6  17
BRANCH   3  30
ATOM     30  S1  <0> A   1     -15.880   6.422  49.640  0.00  0.00    +0.004 S 
BRANCH  30  31
ATOM     31  C22 <0> A   1     -17.498   7.111  49.749  0.00  0.00    -0.110 A 
ATOM     32  C23 <0> A   1     -17.696   8.320  50.404  0.00  0.00    +0.067 A 
ATOM     33  C24 <0> A   1     -18.966   8.858  50.488  0.00  0.00    +0.004 A 
ATOM     34  C25 <0> A   1     -20.039   8.194  49.919  0.00  0.00    +0.093 A 
ATOM     35  C26 <0> A   1     -19.844   6.990  49.265  0.00  0.00    +0.005 A 
ATOM     36  C27 <0> A   1     -18.576   6.450  49.173  0.00  0.00    +0.040 A 
ATOM     37  F2  <0> A   1     -21.280   8.722  50.003  0.00  0.00    -0.139 F 
ENDBRANCH  30  31
ENDBRANCH   3  30
TORSDOF 13
ENDMDL
MODEL 3
REMARK VINA RESULT:      -7.7      4.171      8.549
REMARK  Name = CHEMBL102168
REMARK  15 active torsions:
REMARK  status: ('A' for Active; 'I' for Inactive)
REMARK    1  A    between atoms: C1_1  and  C2_2
REMARK    2  A    between atoms: C2_2  and  C3_3
REMARK    3  A    between atoms: C2_2  and  C4_4
REMARK    4  A    between atoms: C6_6  and  S1_29
REMARK    5  A    between atoms: C8_8  and  C16_22
REMARK    6  A    between atoms: C9_9  and  O1_10
REMARK    7  A    between atoms: O1_10  and  C10_11
REMARK    8  A    between atoms: C10_11  and  C11_12
REMARK    9  A    between atoms: C11_12  and  C12_13
REMARK   10  A    between atoms: C11_12  and  O5_21
REMARK   11  A    between atoms: C12_13  and  C13_14
REMARK   12  A    between atoms: C13_14  and  C14_16
REMARK   13  A    between atoms: C13_14  and  O4_20
REMARK   14  A    between atoms: C14_16  and  C15_17
REMARK   15  A    between atoms: S1_29  and  C22_30
REMARK                            x       y       z     vdW  Elec       q    Type
REMARK                         _______ _______ _______ _____ _____    ______ ____
ROOT
ATOM      1  C4  <0> A   1     -15.134   6.568  45.431  0.00  0.00    -0.097 A 
ATOM      2  C5  <0> A   1     -14.086   7.045  44.667  0.00  0.00    +0.091 A 
ATOM      3  C6  <0> A   1     -13.411   8.199  45.047  0.00  0.00    -0.151 A 
ATOM      4  C7  <0> A   1     -13.787   8.877  46.198  0.00  0.00    +0.095 A 
ATOM      5  C8  <0> A   1     -14.842   8.398  46.970  0.00  0.00    -0.070 A 
ATOM      6  C9  <0> A   1     -15.521   7.240  46.578  0.00  0.00    +0.147 A 
ENDROOT
BRANCH   5   7
ATOM      7  C16 <0> A   1     -15.250   9.118  48.201  0.00  0.00    -0.063 A 
ATOM      8  C17 <0> A   1     -14.804   8.682  49.447  0.00  0.00    +0.083 A 
ATOM      9  C18 <0> A   1     -15.185   9.356  50.589  0.00  0.00    -0.012 A 
ATOM     10  C19 <0> A   1     -16.011  10.465  50.499  0.00  0.00    +0.107 A 
ATOM     11  C20 <0> A   1     -16.458  10.902  49.263  0.00  0.00    -0.018 A 
ATOM     12  C21 <0> A   1     -16.077  10.237  48.114  0.00  0.00    +0.055 A 
ATOM     13  F1  <0> A   1     -16.382  11.121  51.620  0.00  0.00    -0.137 F 
ENDBRANCH   5   7
BRANCH   1  15
ATOM     14  C1  <0> A   1     -16.645   5.589  43.727  0.00  0.00    +0.031 C 
ATOM     15  C2  <0> A   1     -15.861   5.316  45.011  0.00  0.00    +0.035 C 
ATOM     16  C3  <0> A   1     -14.848   4.197  44.763  0.00  0.00    +0.028 C 
ENDBRANCH   1  15
BRANCH   6  17
ATOM     17  O1  <0> A   1     -16.555   6.772  47.326  0.00  0.00    -0.317 OA
BRANCH  17  18
ATOM     18  C10 <0> A   1     -17.864   7.229  46.981  0.00  0.00    +0.156 C 
BRANCH  18  19
ATOM     19  C11 <0> A   1     -18.865   6.754  48.036  0.00  0.00    +0.226 C 
BRANCH  19  20
ATOM     20  O5  <0> A   1     -20.086   6.374  47.399  0.00  0.00    -0.530 OA
ATOM     21  H19 <0> A   1     -20.420   5.509  47.672  0.00  0.00    +0.363 HD
ENDBRANCH  19  20
BRANCH  19  22
ATOM     22  C12 <0> A   1     -18.285   5.552  48.785  0.00  0.00    -0.042 C 
BRANCH  22  23
ATOM     23  C13 <0> A   1     -19.086   5.314  50.066  0.00  0.00    +0.235 C 
BRANCH  23  24
ATOM     24  O4  <0> A   1     -20.141   6.274  50.154  0.00  0.00    -0.526 OA
ATOM     25  H18 <0> A   1     -19.855   7.187  50.007  0.00  0.00    +0.350 HD
ENDBRANCH  23  24
BRANCH  23  26
ATOM     26  C14 <0> A   1     -19.681   3.904  50.042  0.00  0.00    -0.101 C 
BRANCH  26  27
ATOM     27  C15 <0> A   1     -21.165   3.988  49.802  0.00  0.00    +0.491 C 
ATOM     28  O2  <0> A   1     -21.942   3.839  50.731  0.00  0.00    -0.680 OA
ATOM     29  O3  <0> A   1     -21.591   4.205  48.681  0.00  0.00    -0.712 OA
ENDBRANCH  26  27
ENDBRANCH  23  26
ENDBRANCH  22  23
ENDBRANCH  19  22
ENDBRANCH  18  19
ENDBRANCH  17  18
ENDBRANCH   6  17
BRANCH   3  30
ATOM     30  S1  <0> A   1     -12.076   8.801  44.069  0.00  0.00    +0.004 S 
BRANCH  30  31
ATOM     31  C22 <0> A   1     -12.865   9.529  42.672  0.00  0.00    -0.110 A 
ATOM     32  C23 <0> A   1     -12.694   8.975  41.409  0.00  0.00    +0.067 A 
ATOM     33  C24 <0> A   1     -13.314   9.549  40.316  0.00  0.00    +0.004 A 
ATOM     34  C25 <0> A   1     -14.106  10.673  40.478  0.00  0.00    +0.093 A 
ATOM     35  C26 <0> A   1     -14.278  11.226  41.736  0.00  0.00    +0.005 A 
ATOM     36  C27 <0> A   1     -13.665  10.653  42.833  0.00  0.00    +0.040 A 
ATOM     37  F2  <0> A   1     -14.711  11.232  39.407  0.00  0.00    -0.139 F 
ENDBRANCH  30  31
ENDBRANCH   3  30
TORSDOF 13
ENDMDL
MODEL 4
REMARK VINA RESULT:      -7.6      4.001      8.204
REMARK  Name = CHEMBL102168
REMARK  15 active torsions:
REMARK  status: ('A' for Active; 'I' for Inactive)
REMARK    1  A    between atoms: C1_1  and  C2_2
REMARK    2  A    between atoms: C2_2  and  C3_3
REMARK    3  A    between atoms: C2_2  and  C4_4
REMARK    4  A    between atoms: C6_6  and  S1_29
REMARK    5  A    between atoms: C8_8  and  C16_22
REMARK    6  A    between atoms: C9_9  and  O1_10
REMARK    7  A    between atoms: O1_10  and  C10_11
REMARK    8  A    between atoms: C10_11  and  C11_12
REMARK    9  A    between atoms: C11_12  and  C12_13
REMARK   10  A    between atoms: C11_12  and  O5_21
REMARK   11  A    between atoms: C12_13  and  C13_14
REMARK   12  A    between atoms: C13_14  and  C14_16
REMARK   13  A    between atoms: C13_14  and  O4_20
REMARK   14  A    between atoms: C14_16  and  C15_17
REMARK   15  A    between atoms: S1_29  and  C22_30
REMARK                            x       y       z     vdW  Elec       q    Type
REMARK                         _______ _______ _______ _____ _____    ______ ____
ROOT
ATOM      1  C4  <0> A   1     -14.900   6.426  45.108  0.00  0.00    -0.097 A 
ATOM      2  C5  <0> A   1     -14.049   6.418  44.019  0.00  0.00    +0.091 A 
ATOM      3  C6  <0> A   1     -12.953   7.272  43.981  0.00  0.00    -0.151 A 
ATOM      4  C7  <0> A   1     -12.710   8.138  45.038  0.00  0.00    +0.095 A 
ATOM      5  C8  <0> A   1     -13.565   8.148  46.136  0.00  0.00    -0.070 A 
ATOM      6  C9  <0> A   1     -14.669   7.290  46.165  0.00  0.00    +0.147 A 
ENDROOT
BRANCH   5   7
ATOM      7  C16 <0> A   1     -13.311   9.072  47.269  0.00  0.00    -0.063 A 
ATOM      8  C17 <0> A   1     -13.774  10.384  47.219  0.00  0.00    +0.083 A 
ATOM      9  C18 <0> A   1     -13.535  11.239  48.275  0.00  0.00    -0.012 A 
ATOM     10  C19 <0> A   1     -12.835  10.794  49.385  0.00  0.00    +0.107 A 
ATOM     11  C20 <0> A   1     -12.371   9.489  49.439  0.00  0.00    -0.018 A 
ATOM     12  C21 <0> A   1     -12.610   8.626  48.388  0.00  0.00    +0.055 A 
ATOM     13  F1  <0> A   1     -12.602  11.634  50.416  0.00  0.00    -0.137 F 
ENDBRANCH   5   7
BRANCH   1  15
ATOM     14  C1  <0> A   1     -16.824   5.563  43.804  0.00  0.00    +0.031 C 
ATOM     15  C2  <0> A   1     -16.086   5.496  45.142  0.00  0.00    +0.035 C 
ATOM     16  C3  <0> A   1     -15.605   4.065  45.388  0.00  0.00    +0.028 C 
ENDBRANCH   1  15
BRANCH   6  17
ATOM     17  O1  <0> A   1     -15.510   7.300  47.233  0.00  0.00    -0.317 OA
BRANCH  17  18
ATOM     18  C10 <0> A   1     -16.665   8.136  47.141  0.00  0.00    +0.156 C 
BRANCH  18  19
ATOM     19  C11 <0> A   1     -17.863   7.419  47.767  0.00  0.00    +0.226 C 
BRANCH  19  20
ATOM     20  O5  <0> A   1     -18.737   6.960  46.733  0.00  0.00    -0.530 OA
ATOM     21  H19 <0> A   1     -19.301   7.650  46.359  0.00  0.00    +0.363 HD
ENDBRANCH  19  20
BRANCH  19  22
ATOM     22  C12 <0> A   1     -17.373   6.225  48.587  0.00  0.00    -0.042 C 
BRANCH  22  23
ATOM     23  C13 <0> A   1     -18.350   5.957  49.733  0.00  0.00    +0.235 C 
BRANCH  23  24
ATOM     24  O4  <0> A   1     -19.237   7.069  49.874  0.00  0.00    -0.526 OA
ATOM     25  H18 <0> A   1     -19.812   7.213  49.109  0.00  0.00    +0.350 HD
ENDBRANCH  23  24
BRANCH  23  26
ATOM     26  C14 <0> A   1     -19.160   4.695  49.428  0.00  0.00    -0.101 C 
BRANCH  26  27
ATOM     27  C15 <0> A   1     -20.590   5.072  49.139  0.00  0.00    +0.491 C 
ATOM     28  O2  <0> A   1     -21.434   4.980  50.016  0.00  0.00    -0.680 OA
ATOM     29  O3  <0> A   1     -20.904   5.469  48.031  0.00  0.00    -0.712 OA
ENDBRANCH  26  27
ENDBRANCH  23  26
ENDBRANCH  22  23
ENDBRANCH  19  22
ENDBRANCH  18  19
ENDBRANCH  17  18
ENDBRANCH   6  17
BRANCH   3  30
ATOM     30  S1  <0> A   1     -11.872   7.256  42.590  0.00  0.00    +0.004 S 
BRANCH  30  31
ATOM     31  C22 <0> A   1     -12.450   8.583  41.585  0.00  0.00    -0.110 A 
ATOM     32  C23 <0> A   1     -12.650   9.841  42.140  0.00  0.00    +0.067 A 
ATOM     33  C24 <0> A   1     -13.103  10.879  41.350  0.00  0.00    +0.004 A 
ATOM     34  C25 <0> A   1     -13.357  10.667  40.005  0.00  0.00    +0.093 A 
ATOM     35  C26 <0> A   1     -13.158   9.415  39.449  0.00  0.00    +0.005 A 
ATOM     36  C27 <0> A   1     -12.700   8.375  40.234  0.00  0.00    +0.040 A 
ATOM     37  F2  <0> A   1     -13.800  11.684  39.234  0.00  0.00    -0.139 F 
ENDBRANCH  30  31
ENDBRANCH   3  30
TORSDOF 13
ENDMDL
MODEL 5
REMARK VINA RESULT:      -7.6      1.890      2.149
REMARK  Name = CHEMBL102168
REMARK  15 active torsions:
REMARK  status: ('A' for Active; 'I' for Inactive)
REMARK    1  A    between atoms: C1_1  and  C2_2
REMARK    2  A    between atoms: C2_2  and  C3_3
REMARK    3  A    between atoms: C2_2  and  C4_4
REMARK    4  A    between atoms: C6_6  and  S1_29
REMARK    5  A    between atoms: C8_8  and  C16_22
REMARK    6  A    between atoms: C9_9  and  O1_10
REMARK    7  A    between atoms: O1_10  and  C10_11
REMARK    8  A    between atoms: C10_11  and  C11_12
REMARK    9  A    between atoms: C11_12  and  C12_13
REMARK   10  A    between atoms: C11_12  and  O5_21
REMARK   11  A    between atoms: C12_13  and  C13_14
REMARK   12  A    between atoms: C13_14  and  C14_16
REMARK   13  A    between atoms: C13_14  and  O4_20
REMARK   14  A    between atoms: C14_16  and  C15_17
REMARK   15  A    between atoms: S1_29  and  C22_30
REMARK                            x       y       z     vdW  Elec       q    Type
REMARK                         _______ _______ _______ _____ _____    ______ ____
ROOT
ATOM      1  C4  <0> A   1     -15.270   6.682  45.766  0.00  0.00    -0.097 A 
ATOM      2  C5  <0> A   1     -16.513   6.330  46.258  0.00  0.00    +0.091 A 
ATOM      3  C6  <0> A   1     -17.203   7.195  47.098  0.00  0.00    -0.151 A 
ATOM      4  C7  <0> A   1     -16.647   8.417  47.447  0.00  0.00    +0.095 A 
ATOM      5  C8  <0> A   1     -15.395   8.775  46.953  0.00  0.00    -0.070 A 
ATOM      6  C9  <0> A   1     -14.704   7.897  46.113  0.00  0.00    +0.147 A 
ENDROOT
BRANCH   5   7
ATOM      7  C16 <0> A   1     -14.795  10.080  47.323  0.00  0.00    -0.063 A 
ATOM      8  C17 <0> A   1     -13.850  10.151  48.344  0.00  0.00    +0.083 A 
ATOM      9  C18 <0> A   1     -13.294  11.367  48.684  0.00  0.00    -0.012 A 
ATOM     10  C19 <0> A   1     -13.675  12.517  48.011  0.00  0.00    +0.107 A 
ATOM     11  C20 <0> A   1     -14.614  12.452  46.995  0.00  0.00    -0.018 A 
ATOM     12  C21 <0> A   1     -15.172  11.238  46.646  0.00  0.00    +0.055 A 
ATOM     13  F1  <0> A   1     -13.128  13.706  48.348  0.00  0.00    -0.137 F 
ENDBRANCH   5   7
BRANCH   1  15
ATOM     14  C1  <0> A   1     -14.647   4.312  45.393  0.00  0.00    +0.031 C 
ATOM     15  C2  <0> A   1     -14.527   5.739  44.855  0.00  0.00    +0.035 C 
ATOM     16  C3  <0> A   1     -15.129   5.807  43.450  0.00  0.00    +0.028 C 
ENDBRANCH   1  15
BRANCH   6  17
ATOM     17  O1  <0> A   1     -13.479   8.240  45.632  0.00  0.00    -0.317 OA
BRANCH  17  18
ATOM     18  C10 <0> A   1     -13.443   8.938  44.385  0.00  0.00    +0.156 C 
BRANCH  18  19
ATOM     19  C11 <0> A   1     -12.096   8.696  43.704  0.00  0.00    +0.226 C 
BRANCH  19  20
ATOM     20  O5  <0> A   1     -11.557   7.447  44.144  0.00  0.00    -0.530 OA
ATOM     21  H19 <0> A   1     -11.942   6.676  43.705  0.00  0.00    +0.363 HD
ENDBRANCH  19  20
BRANCH  19  22
ATOM     22  C12 <0> A   1     -12.290   8.660  42.186  0.00  0.00    -0.042 C 
BRANCH  22  23
ATOM     23  C13 <0> A   1     -13.045   9.912  41.738  0.00  0.00    +0.235 C 
BRANCH  23  24
ATOM     24  O4  <0> A   1     -12.234  11.066  41.970  0.00  0.00    -0.526 OA
ATOM     25  H18 <0> A   1     -12.115  11.626  41.189  0.00  0.00    +0.350 HD
ENDBRANCH  23  24
BRANCH  23  26
ATOM     26  C14 <0> A   1     -13.369   9.807  40.247  0.00  0.00    -0.101 C 
BRANCH  26  27
ATOM     27  C15 <0> A   1     -13.444  11.188  39.650  0.00  0.00    +0.491 C 
ATOM     28  O2  <0> A   1     -12.517  11.613  38.979  0.00  0.00    -0.680 OA
ATOM     29  O3  <0> A   1     -14.428  11.882  39.837  0.00  0.00    -0.712 OA
ENDBRANCH  26  27
ENDBRANCH  23  26
ENDBRANCH  22  23
ENDBRANCH  19  22
ENDBRANCH  18  19
ENDBRANCH  17  18
ENDBRANCH   6  17
BRANCH   3  30
ATOM     30  S1  <0> A   1     -18.787   6.740  47.720  0.00  0.00    +0.004 S 
BRANCH  30  31
ATOM     31  C22 <0> A   1     -18.431   5.944  49.252  0.00  0.00    -0.110 A 
ATOM     32  C23 <0> A   1     -18.631   4.576  49.388  0.00  0.00    +0.067 A 
ATOM     33  C24 <0> A   1     -18.351   3.955  50.590  0.00  0.00    +0.004 A 
ATOM     34  C25 <0> A   1     -17.871   4.695  51.658  0.00  0.00    +0.093 A 
ATOM     35  C26 <0> A   1     -17.671   6.058  51.524  0.00  0.00    +0.005 A 
ATOM     36  C27 <0> A   1     -17.944   6.683  50.323  0.00  0.00    +0.040 A 
ATOM     37  F2  <0> A   1     -17.598   4.085  52.832  0.00  0.00    -0.139 F 
ENDBRANCH  30  31
ENDBRANCH   3  30
TORSDOF 13
ENDMDL
MODEL 6
REMARK VINA RESULT:      -7.6      2.562      4.530
REMARK  Name = CHEMBL102168
REMARK  15 active torsions:
REMARK  status: ('A' for Active; 'I' for Inactive)
REMARK    1  A    between atoms: C1_1  and  C2_2
REMARK    2  A    between atoms: C2_2  and  C3_3
REMARK    3  A    between atoms: C2_2  and  C4_4
REMARK    4  A    between atoms: C6_6  and  S1_29
REMARK    5  A    between atoms: C8_8  and  C16_22
REMARK    6  A    between atoms: C9_9  and  O1_10
REMARK    7  A    between atoms: O1_10  and  C10_11
REMARK    8  A    between atoms: C10_11  and  C11_12
REMARK    9  A    between atoms: C11_12  and  C12_13
REMARK   10  A    between atoms: C11_12  and  O5_21
REMARK   11  A    between atoms: C12_13  and  C13_14
REMARK   12  A    between atoms: C13_14  and  C14_16
REMARK   13  A    between atoms: C13_14  and  O4_20
REMARK   14  A    between atoms: C14_16  and  C15_17
REMARK   15  A    between atoms: S1_29  and  C22_30
REMARK                            x       y       z     vdW  Elec       q    Type
REMARK                         _______ _______ _______ _____ _____    ______ ____
ROOT
ATOM      1  C4  <0> A   1     -15.907  10.302  47.723  0.00  0.00    -0.097 A 
ATOM      2  C5  <0> A   1     -16.616  10.055  48.884  0.00  0.00    +0.091 A 
ATOM      3  C6  <0> A   1     -16.901   8.749  49.265  0.00  0.00    -0.151 A 
ATOM      4  C7  <0> A   1     -16.474   7.687  48.481  0.00  0.00    +0.095 A 
ATOM      5  C8  <0> A   1     -15.760   7.932  47.311  0.00  0.00    -0.070 A 
ATOM      6  C9  <0> A   1     -15.481   9.249  46.931  0.00  0.00    +0.147 A 
ENDROOT
BRANCH   5   7
ATOM      7  C16 <0> A   1     -15.301   6.801  46.468  0.00  0.00    -0.063 A 
ATOM      8  C17 <0> A   1     -16.090   6.352  45.411  0.00  0.00    +0.083 A 
ATOM      9  C18 <0> A   1     -15.659   5.300  44.630  0.00  0.00    -0.012 A 
ATOM     10  C19 <0> A   1     -14.443   4.690  44.895  0.00  0.00    +0.107 A 
ATOM     11  C20 <0> A   1     -13.656   5.132  45.946  0.00  0.00    -0.018 A 
ATOM     12  C21 <0> A   1     -14.077   6.188  46.730  0.00  0.00    +0.055 A 
ATOM     13  F1  <0> A   1     -14.026   3.659  44.128  0.00  0.00    -0.137 F 
ENDBRANCH   5   7
BRANCH   1  15
ATOM     14  C1  <0> A   1     -16.825  12.600  47.579  0.00  0.00    +0.031 C 
ATOM     15  C2  <0> A   1     -15.602  11.721  47.316  0.00  0.00    +0.035 C 
ATOM     16  C3  <0> A   1     -14.415  12.240  48.130  0.00  0.00    +0.028 C 
ENDBRANCH   1  15
BRANCH   6  17
ATOM     17  O1  <0> A   1     -14.789   9.494  45.787  0.00  0.00    -0.317 OA
BRANCH  17  18
ATOM     18  C10 <0> A   1     -13.382   9.715  45.915  0.00  0.00    +0.156 C 
BRANCH  18  19
ATOM     19  C11 <0> A   1     -12.911  10.653  44.803  0.00  0.00    +0.226 C 
BRANCH  19  20
ATOM     20  O5  <0> A   1     -11.494  10.542  44.655  0.00  0.00    -0.530 OA
ATOM     21  H19 <0> A   1     -11.130   9.702  44.964  0.00  0.00    +0.363 HD
ENDBRANCH  19  20
BRANCH  19  22
ATOM     22  C12 <0> A   1     -13.592  10.269  43.487  0.00  0.00    -0.042 C 
BRANCH  22  23
ATOM     23  C13 <0> A   1     -13.232  11.291  42.408  0.00  0.00    +0.235 C 
BRANCH  23  24
ATOM     24  O4  <0> A   1     -12.056  10.862  41.718  0.00  0.00    -0.526 OA
ATOM     25  H18 <0> A   1     -11.281  11.419  41.877  0.00  0.00    +0.350 HD
ENDBRANCH  23  24
BRANCH  23  26
ATOM     26  C14 <0> A   1     -14.389  11.414  41.415  0.00  0.00    -0.101 C 
BRANCH  26  27
ATOM     27  C15 <0> A   1     -13.934  10.960  40.053  0.00  0.00    +0.491 C 
ATOM     28  O2  <0> A   1     -13.677  11.784  39.190  0.00  0.00    -0.680 OA
ATOM     29  O3  <0> A   1     -13.823   9.771  39.812  0.00  0.00    -0.712 OA
ENDBRANCH  26  27
ENDBRANCH  23  26
ENDBRANCH  22  23
ENDBRANCH  19  22
ENDBRANCH  18  19
ENDBRANCH  17  18
ENDBRANCH   6  17
BRANCH   3  30
ATOM     30  S1  <0> A   1     -17.804   8.442  50.746  0.00  0.00    +0.004 S 
BRANCH  30  31
ATOM     31  C22 <0> A   1     -18.646   6.927  50.426  0.00  0.00    -0.110 A 
ATOM     32  C23 <0> A   1     -18.204   5.749  51.015  0.00  0.00    +0.067 A 
ATOM     33  C24 <0> A   1     -18.866   4.563  50.761  0.00  0.00    +0.004 A 
ATOM     34  C25 <0> A   1     -19.968   4.549  49.924  0.00  0.00    +0.093 A 
ATOM     35  C26 <0> A   1     -20.411   5.722  49.338  0.00  0.00    +0.005 A 
ATOM     36  C27 <0> A   1     -19.756   6.912  49.592  0.00  0.00    +0.040 A 
ATOM     37  F2  <0> A   1     -20.614   3.387  49.679  0.00  0.00    -0.139 F 
ENDBRANCH  30  31
ENDBRANCH   3  30
TORSDOF 13
ENDMDL
MODEL 7
REMARK VINA RESULT:      -7.5      2.042      2.566
REMARK  Name = CHEMBL102168
REMARK  15 active torsions:
REMARK  status: ('A' for Active; 'I' for Inactive)
REMARK    1  A    between atoms: C1_1  and  C2_2
REMARK    2  A    between atoms: C2_2  and  C3_3
REMARK    3  A    between atoms: C2_2  and  C4_4
REMARK    4  A    between atoms: C6_6  and  S1_29
REMARK    5  A    between atoms: C8_8  and  C16_22
REMARK    6  A    between atoms: C9_9  and  O1_10
REMARK    7  A    between atoms: O1_10  and  C10_11
REMARK    8  A    between atoms: C10_11  and  C11_12
REMARK    9  A    between atoms: C11_12  and  C12_13
REMARK   10  A    between atoms: C11_12  and  O5_21
REMARK   11  A    between atoms: C12_13  and  C13_14
REMARK   12  A    between atoms: C13_14  and  C14_16
REMARK   13  A    between atoms: C13_14  and  O4_20
REMARK   14  A    between atoms: C14_16  and  C15_17
REMARK   15  A    between atoms: S1_29  and  C22_30
REMARK                            x       y       z     vdW  Elec       q    Type
REMARK                         _______ _______ _______ _____ _____    ______ ____
ROOT
ATOM      1  C4  <0> A   1     -15.271   6.303  45.525  0.00  0.00    -0.097 A 
ATOM      2  C5  <0> A   1     -16.392   6.232  46.331  0.00  0.00    +0.091 A 
ATOM      3  C6  <0> A   1     -16.743   7.308  47.137  0.00  0.00    -0.151 A 
ATOM      4  C7  <0> A   1     -15.969   8.460  47.135  0.00  0.00    +0.095 A 
ATOM      5  C8  <0> A   1     -14.839   8.535  46.325  0.00  0.00    -0.070 A 
ATOM      6  C9  <0> A   1     -14.489   7.446  45.521  0.00  0.00    +0.147 A 
ENDROOT
BRANCH   5   7
ATOM      7  C16 <0> A   1     -14.007   9.763  46.319  0.00  0.00    -0.063 A 
ATOM      8  C17 <0> A   1     -14.377  10.854  45.536  0.00  0.00    +0.083 A 
ATOM      9  C18 <0> A   1     -13.600  11.994  45.535  0.00  0.00    -0.012 A 
ATOM     10  C19 <0> A   1     -12.453  12.055  46.310  0.00  0.00    +0.107 A 
ATOM     11  C20 <0> A   1     -12.081  10.972  47.090  0.00  0.00    -0.018 A 
ATOM     12  C21 <0> A   1     -12.856   9.829  47.102  0.00  0.00    +0.055 A 
ATOM     13  F1  <0> A   1     -11.695  13.173  46.305  0.00  0.00    -0.137 F 
ENDBRANCH   5   7
BRANCH   1  15
ATOM     14  C1  <0> A   1     -14.090   4.124  45.475  0.00  0.00    +0.031 C 
ATOM     15  C2  <0> A   1     -14.896   5.132  44.654  0.00  0.00    +0.035 C 
ATOM     16  C3  <0> A   1     -16.166   4.461  44.126  0.00  0.00    +0.028 C 
ENDBRANCH   1  15
BRANCH   6  17
ATOM     17  O1  <0> A   1     -13.383   7.512  44.731  0.00  0.00    -0.317 OA
BRANCH  17  18
ATOM     18  C10 <0> A   1     -13.575   7.942  43.382  0.00  0.00    +0.156 C 
BRANCH  18  19
ATOM     19  C11 <0> A   1     -12.369   7.524  42.538  0.00  0.00    +0.226 C 
BRANCH  19  20
ATOM     20  O5  <0> A   1     -12.225   6.103  42.584  0.00  0.00    -0.530 OA
ATOM     21  H19 <0> A   1     -11.368   5.784  42.270  0.00  0.00    +0.363 HD
ENDBRANCH  19  20
BRANCH  19  22
ATOM     22  C12 <0> A   1     -12.582   7.967  41.089  0.00  0.00    -0.042 C 
BRANCH  22  23
ATOM     23  C13 <0> A   1     -12.935   9.455  41.057  0.00  0.00    +0.235 C 
BRANCH  23  24
ATOM     24  O4  <0> A   1     -11.739  10.231  41.168  0.00  0.00    -0.526 OA
ATOM     25  H18 <0> A   1     -11.007   9.905  40.626  0.00  0.00    +0.350 HD
ENDBRANCH  23  24
BRANCH  23  26
ATOM     26  C14 <0> A   1     -13.635   9.785  39.737  0.00  0.00    -0.101 C 
BRANCH  26  27
ATOM     27  C15 <0> A   1     -13.668  11.279  39.545  0.00  0.00    +0.491 C 
ATOM     28  O2  <0> A   1     -14.495  11.952  40.138  0.00  0.00    -0.680 OA
ATOM     29  O3  <0> A   1     -12.869  11.815  38.797  0.00  0.00    -0.712 OA
ENDBRANCH  26  27
ENDBRANCH  23  26
ENDBRANCH  22  23
ENDBRANCH  19  22
ENDBRANCH  18  19
ENDBRANCH  17  18
ENDBRANCH   6  17
BRANCH   3  30
ATOM     30  S1  <0> A   1     -18.174   7.211  48.160  0.00  0.00    +0.004 S 
BRANCH  30  31
ATOM     31  C22 <0> A   1     -17.591   7.685  49.754  0.00  0.00    -0.110 A 
ATOM     32  C23 <0> A   1     -17.907   8.936  50.268  0.00  0.00    +0.067 A 
ATOM     33  C24 <0> A   1     -17.448   9.304  51.517  0.00  0.00    +0.004 A 
ATOM     34  C25 <0> A   1     -16.675   8.427  52.259  0.00  0.00    +0.093 A 
ATOM     35  C26 <0> A   1     -16.360   7.178  51.750  0.00  0.00    +0.005 A 
ATOM     36  C27 <0> A   1     -16.821   6.803  50.503  0.00  0.00    +0.040 A 
ATOM     37  F2  <0> A   1     -16.228   8.789  53.481  0.00  0.00    -0.139 F 
ENDBRANCH  30  31
ENDBRANCH   3  30
TORSDOF 13
ENDMDL
MODEL 8
REMARK VINA RESULT:      -7.5      3.867      8.174
REMARK  Name = CHEMBL102168
REMARK  15 active torsions:
REMARK  status: ('A' for Active; 'I' for Inactive)
REMARK    1  A    between atoms: C1_1  and  C2_2
REMARK    2  A    between atoms: C2_2  and  C3_3
REMARK    3  A    between atoms: C2_2  and  C4_4
REMARK    4  A    between atoms: C6_6  and  S1_29
REMARK    5  A    between atoms: C8_8  and  C16_22
REMARK    6  A    between atoms: C9_9  and  O1_10
REMARK    7  A    between atoms: O1_10  and  C10_11
REMARK    8  A    between atoms: C10_11  and  C11_12
REMARK    9  A    between atoms: C11_12  and  C12_13
REMARK   10  A    between atoms: C11_12  and  O5_21
REMARK   11  A    between atoms: C12_13  and  C13_14
REMARK   12  A    between atoms: C13_14  and  C14_16
REMARK   13  A    between atoms: C13_14  and  O4_20
REMARK   14  A    between atoms: C14_16  and  C15_17
REMARK   15  A    between atoms: S1_29  and  C22_30
REMARK                            x       y       z     vdW  Elec       q    Type
REMARK                         _______ _______ _______ _____ _____    ______ ____
ROOT
ATOM      1  C4  <0> A   1     -14.738   6.491  45.083  0.00  0.00    -0.097 A 
ATOM      2  C5  <0> A   1     -13.868   6.390  44.015  0.00  0.00    +0.091 A 
ATOM      3  C6  <0> A   1     -12.951   7.403  43.761  0.00  0.00    -0.151 A 
ATOM      4  C7  <0> A   1     -12.906   8.522  44.581  0.00  0.00    +0.095 A 
ATOM      5  C8  <0> A   1     -13.782   8.627  45.658  0.00  0.00    -0.070 A 
ATOM      6  C9  <0> A   1     -14.705   7.606  45.904  0.00  0.00    +0.147 A 
ENDROOT
BRANCH   5   7
ATOM      7  C16 <0> A   1     -13.740   9.820  46.538  0.00  0.00    -0.063 A 
ATOM      8  C17 <0> A   1     -14.391  10.992  46.160  0.00  0.00    +0.083 A 
ATOM      9  C18 <0> A   1     -14.349  12.099  46.982  0.00  0.00    -0.012 A 
ATOM     10  C19 <0> A   1     -13.660  12.047  48.183  0.00  0.00    +0.107 A 
ATOM     11  C20 <0> A   1     -13.010  10.884  48.563  0.00  0.00    -0.018 A 
ATOM     12  C21 <0> A   1     -13.051   9.770  47.749  0.00  0.00    +0.055 A 
ATOM     13  F1  <0> A   1     -13.621  13.134  48.984  0.00  0.00    -0.137 F 
ENDBRANCH   5   7
BRANCH   1  15
ATOM     14  C1  <0> A   1     -16.713   5.291  44.185  0.00  0.00    +0.031 C 
ATOM     15  C2  <0> A   1     -15.729   5.388  45.352  0.00  0.00    +0.035 C 
ATOM     16  C3  <0> A   1     -14.985   4.060  45.504  0.00  0.00    +0.028 C 
ENDBRANCH   1  15
BRANCH   6  17
ATOM     17  O1  <0> A   1     -15.566   7.706  46.953  0.00  0.00    -0.317 OA
BRANCH  17  18
ATOM     18  C10 <0> A   1     -16.813   8.359  46.708  0.00  0.00    +0.156 C 
BRANCH  18  19
ATOM     19  C11 <0> A   1     -17.933   7.603  47.425  0.00  0.00    +0.226 C 
BRANCH  19  20
ATOM     20  O5  <0> A   1     -18.772   6.964  46.460  0.00  0.00    -0.530 OA
ATOM     21  H19 <0> A   1     -18.705   6.000  46.458  0.00  0.00    +0.363 HD
ENDBRANCH  19  20
BRANCH  19  22
ATOM     22  C12 <0> A   1     -17.325   6.547  48.351  0.00  0.00    -0.042 C 
BRANCH  22  23
ATOM     23  C13 <0> A   1     -18.282   6.274  49.512  0.00  0.00    +0.235 C 
BRANCH  23  24
ATOM     24  O4  <0> A   1     -19.236   7.335  49.604  0.00  0.00    -0.526 OA
ATOM     25  H18 <0> A   1     -19.750   7.473  48.795  0.00  0.00    +0.350 HD
ENDBRANCH  23  24
BRANCH  23  26
ATOM     26  C14 <0> A   1     -19.013   4.952  49.271  0.00  0.00    -0.101 C 
BRANCH  26  27
ATOM     27  C15 <0> A   1     -20.479   5.220  49.049  0.00  0.00    +0.491 C 
ATOM     28  O2  <0> A   1     -21.266   5.112  49.975  0.00  0.00    -0.680 OA
ATOM     29  O3  <0> A   1     -20.879   5.544  47.944  0.00  0.00    -0.712 OA
ENDBRANCH  26  27
ENDBRANCH  23  26
ENDBRANCH  22  23
ENDBRANCH  19  22
ENDBRANCH  18  19
ENDBRANCH  17  18
ENDBRANCH   6  17
BRANCH   3  30
ATOM     30  S1  <0> A   1     -11.844   7.267  42.397  0.00  0.00    +0.004 S 
BRANCH  30  31
ATOM     31  C22 <0> A   1     -12.310   8.594  41.335  0.00  0.00    -0.110 A 
ATOM     32  C23 <0> A   1     -12.671   8.337  40.018  0.00  0.00    +0.067 A 
ATOM     33  C24 <0> A   1     -13.035   9.379  39.188  0.00  0.00    +0.004 A 
ATOM     34  C25 <0> A   1     -13.044  10.678  39.668  0.00  0.00    +0.093 A 
ATOM     35  C26 <0> A   1     -12.686  10.936  40.980  0.00  0.00    +0.005 A 
ATOM     36  C27 <0> A   1     -12.326   9.897  41.816  0.00  0.00    +0.040 A 
ATOM     37  F2  <0> A   1     -13.401  11.695  38.853  0.00  0.00    -0.139 F 
ENDBRANCH  30  31
ENDBRANCH   3  30
TORSDOF 13
ENDMDL
MODEL 9
REMARK VINA RESULT:      -7.5      3.941      8.093
REMARK  Name = CHEMBL102168
REMARK  15 active torsions:
REMARK  status: ('A' for Active; 'I' for Inactive)
REMARK    1  A    between atoms: C1_1  and  C2_2
REMARK    2  A    between atoms: C2_2  and  C3_3
REMARK    3  A    between atoms: C2_2  and  C4_4
REMARK    4  A    between atoms: C6_6  and  S1_29
REMARK    5  A    between atoms: C8_8  and  C16_22
REMARK    6  A    between atoms: C9_9  and  O1_10
REMARK    7  A    between atoms: O1_10  and  C10_11
REMARK    8  A    between atoms: C10_11  and  C11_12
REMARK    9  A    between atoms: C11_12  and  C12_13
REMARK   10  A    between atoms: C11_12  and  O5_21
REMARK   11  A    between atoms: C12_13  and  C13_14
REMARK   12  A    between atoms: C13_14  and  C14_16
REMARK   13  A    between atoms: C13_14  and  O4_20
REMARK   14  A    between atoms: C14_16  and  C15_17
REMARK   15  A    between atoms: S1_29  and  C22_30
REMARK                            x       y       z     vdW  Elec       q    Type
REMARK                         _______ _______ _______ _____ _____    ______ ____
ROOT
ATOM      1  C4  <0> A   1     -14.564   6.877  45.806  0.00  0.00    -0.097 A 
ATOM      2  C5  <0> A   1     -13.602   6.876  44.814  0.00  0.00    +0.091 A 
ATOM      3  C6  <0> A   1     -12.995   8.064  44.427  0.00  0.00    -0.151 A 
ATOM      4  C7  <0> A   1     -13.353   9.259  45.035  0.00  0.00    +0.095 A 
ATOM      5  C8  <0> A   1     -14.322   9.264  46.035  0.00  0.00    -0.070 A 
ATOM      6  C9  <0> A   1     -14.932   8.065  46.416  0.00  0.00    +0.147 A 
ENDROOT
BRANCH   5   7
ATOM      7  C16 <0> A   1     -14.709  10.537  46.689  0.00  0.00    -0.063 A 
ATOM      8  C17 <0> A   1     -13.771  11.260  47.423  0.00  0.00    +0.083 A 
ATOM      9  C18 <0> A   1     -14.136  12.444  48.029  0.00  0.00    -0.012 A 
ATOM     10  C19 <0> A   1     -15.434  12.915  47.909  0.00  0.00    +0.107 A 
ATOM     11  C20 <0> A   1     -16.370  12.200  47.181  0.00  0.00    -0.018 A 
ATOM     12  C21 <0> A   1     -16.012  11.016  46.567  0.00  0.00    +0.055 A 
ATOM     13  F1  <0> A   1     -15.787  14.075  48.505  0.00  0.00    -0.137 F 
ENDBRANCH   5   7
BRANCH   1  15
ATOM     14  C1  <0> A   1     -16.290   5.205  45.199  0.00  0.00    +0.031 C 
ATOM     15  C2  <0> A   1     -15.218   5.584  46.222  0.00  0.00    +0.035 C 
ATOM     16  C3  <0> A   1     -14.163   4.478  46.290  0.00  0.00    +0.028 C 
ENDBRANCH   1  15
BRANCH   6  17
ATOM     17  O1  <0> A   1     -15.882   8.066  47.389  0.00  0.00    -0.317 OA
BRANCH  17  18
ATOM     18  C10 <0> A   1     -15.426   8.010  48.742  0.00  0.00    +0.156 C 
BRANCH  18  19
ATOM     19  C11 <0> A   1     -16.612   7.743  49.670  0.00  0.00    +0.226 C 
BRANCH  19  20
ATOM     20  O5  <0> A   1     -17.693   8.612  49.323  0.00  0.00    -0.530 OA
ATOM     21  H19 <0> A   1     -17.700   9.446  49.813  0.00  0.00    +0.363 HD
ENDBRANCH  19  20
BRANCH  19  22
ATOM     22  C12 <0> A   1     -17.061   6.288  49.519  0.00  0.00    -0.042 C 
BRANCH  22  23
ATOM     23  C13 <0> A   1     -18.476   6.247  48.941  0.00  0.00    +0.235 C 
BRANCH  23  24
ATOM     24  O4  <0> A   1     -18.411   6.309  47.515  0.00  0.00    -0.526 OA
ATOM     25  H18 <0> A   1     -17.837   5.638  47.118  0.00  0.00    +0.350 HD
ENDBRANCH  23  24
BRANCH  23  26
ATOM     26  C14 <0> A   1     -19.163   4.946  49.363  0.00  0.00    -0.101 C 
BRANCH  26  27
ATOM     27  C15 <0> A   1     -20.622   5.005  48.993  0.00  0.00    +0.491 C 
ATOM     28  O2  <0> A   1     -20.974   5.613  47.996  0.00  0.00    -0.680 OA
ATOM     29  O3  <0> A   1     -21.452   4.446  49.690  0.00  0.00    -0.712 OA
ENDBRANCH  26  27
ENDBRANCH  23  26
ENDBRANCH  22  23
ENDBRANCH  19  22
ENDBRANCH  18  19
ENDBRANCH  17  18
ENDBRANCH   6  17
BRANCH   3  30
ATOM     30  S1  <0> A   1     -11.768   8.054  43.162  0.00  0.00    +0.004 S 
BRANCH  30  31
ATOM     31  C22 <0> A   1     -12.451   9.074  41.898  0.00  0.00    -0.110 A 
ATOM     32  C23 <0> A   1     -12.848   8.514  40.690  0.00  0.00    +0.067 A 
ATOM     33  C24 <0> A   1     -13.383   9.316  39.701  0.00  0.00    +0.004 A 
ATOM     34  C25 <0> A   1     -13.524  10.677  39.913  0.00  0.00    +0.093 A 
ATOM     35  C26 <0> A   1     -13.131  11.238  41.116  0.00  0.00    +0.005 A 
ATOM     36  C27 <0> A   1     -12.600  10.439  42.110  0.00  0.00    +0.040 A 
ATOM     37  F2  <0> A   1     -14.048  11.460  38.943  0.00  0.00    -0.139 F 
ENDBRANCH  30  31
ENDBRANCH   3  30
TORSDOF 13
ENDMDL
MODEL 10
REMARK VINA RESULT:      -7.4     16.299     19.925
REMARK  Name = CHEMBL102168
REMARK  15 active torsions:
REMARK  status: ('A' for Active; 'I' for Inactive)
REMARK    1  A    between atoms: C1_1  and  C2_2
REMARK    2  A    between atoms: C2_2  and  C3_3
REMARK    3  A    between atoms: C2_2  and  C4_4
REMARK    4  A    between atoms: C6_6  and  S1_29
REMARK    5  A    between atoms: C8_8  and  C16_22
REMARK    6  A    between atoms: C9_9  and  O1_10
REMARK    7  A    between atoms: O1_10  and  C10_11
REMARK    8  A    between atoms: C10_11  and  C11_12
REMARK    9  A    between atoms: C11_12  and  C12_13
REMARK   10  A    between atoms: C11_12  and  O5_21
REMARK   11  A    between atoms: C12_13  and  C13_14
REMARK   12  A    between atoms: C13_14  and  C14_16
REMARK   13  A    between atoms: C13_14  and  O4_20
REMARK   14  A    between atoms: C14_16  and  C15_17
REMARK   15  A    between atoms: S1_29  and  C22_30
REMARK                            x       y       z     vdW  Elec       q    Type
REMARK                         _______ _______ _______ _____ _____    ______ ____
ROOT
ATOM      1  C4  <0> A   1     -26.278  -3.390  51.840  0.00  0.00    -0.097 A 
ATOM      2  C5  <0> A   1     -25.246  -2.479  51.965  0.00  0.00    +0.091 A 
ATOM      3  C6  <0> A   1     -23.930  -2.882  51.779  0.00  0.00    -0.151 A 
ATOM      4  C7  <0> A   1     -23.645  -4.204  51.465  0.00  0.00    +0.095 A 
ATOM      5  C8  <0> A   1     -24.682  -5.124  51.338  0.00  0.00    -0.070 A 
ATOM      6  C9  <0> A   1     -26.004  -4.712  51.533  0.00  0.00    +0.147 A 
ENDROOT
BRANCH   5   7
ATOM      7  C16 <0> A   1     -24.385  -6.539  51.004  0.00  0.00    -0.063 A 
ATOM      8  C17 <0> A   1     -24.085  -7.449  52.015  0.00  0.00    +0.083 A 
ATOM      9  C18 <0> A   1     -23.810  -8.763  51.699  0.00  0.00    -0.012 A 
ATOM     10  C19 <0> A   1     -23.830  -9.179  50.377  0.00  0.00    +0.107 A 
ATOM     11  C20 <0> A   1     -24.127  -8.278  49.368  0.00  0.00    -0.018 A 
ATOM     12  C21 <0> A   1     -24.409  -6.962  49.676  0.00  0.00    +0.055 A 
ATOM     13  F1  <0> A   1     -23.559 -10.467  50.073  0.00  0.00    -0.137 F 
ENDBRANCH   5   7
BRANCH   1  15
ATOM     14  C1  <0> A   1     -27.744  -1.828  53.087  0.00  0.00    +0.031 C 
ATOM     15  C2  <0> A   1     -27.703  -2.945  52.044  0.00  0.00    +0.035 C 
ATOM     16  C3  <0> A   1     -28.270  -2.427  50.720  0.00  0.00    +0.028 C 
ENDBRANCH   1  15
BRANCH   6  17
ATOM     17  O1  <0> A   1     -27.020  -5.609  51.414  0.00  0.00    -0.317 OA
BRANCH  17  18
ATOM     18  C10 <0> A   1     -27.446  -6.268  52.609  0.00  0.00    +0.156 C 
BRANCH  18  19
ATOM     19  C11 <0> A   1     -28.265  -7.507  52.243  0.00  0.00    +0.226 C 
BRANCH  19  20
ATOM     20  O5  <0> A   1     -29.498  -7.493  52.966  0.00  0.00    -0.530 OA
ATOM     21  H19 <0> A   1     -29.987  -6.662  52.895  0.00  0.00    +0.363 HD
ENDBRANCH  19  20
BRANCH  19  22
ATOM     22  C12 <0> A   1     -28.555  -7.502  50.741  0.00  0.00    -0.042 C 
BRANCH  22  23
ATOM     23  C13 <0> A   1     -27.830  -8.673  50.077  0.00  0.00    +0.235 C 
BRANCH  23  24
ATOM     24  O4  <0> A   1     -28.600  -9.866  50.241  0.00  0.00    -0.526 OA
ATOM     25  H18 <0> A   1     -29.487  -9.715  50.598  0.00  0.00    +0.350 HD
ENDBRANCH  23  24
BRANCH  23  26
ATOM     26  C14 <0> A   1     -27.651  -8.383  48.585  0.00  0.00    -0.101 C 
BRANCH  26  27
ATOM     27  C15 <0> A   1     -27.491  -9.680  47.836  0.00  0.00    +0.491 C 
ATOM     28  O2  <0> A   1     -28.388 -10.081  47.112  0.00  0.00    -0.680 OA
ATOM     29  O3  <0> A   1     -26.467 -10.331  47.954  0.00  0.00    -0.712 OA
ENDBRANCH  26  27
ENDBRANCH  23  26
ENDBRANCH  22  23
ENDBRANCH  19  22
ENDBRANCH  18  19
ENDBRANCH  17  18
ENDBRANCH   6  17
BRANCH   3  30
ATOM     30  S1  <0> A   1     -22.620  -1.715  51.939  0.00  0.00    +0.004 S 
BRANCH  30  31
ATOM     31  C22 <0> A   1     -21.503  -2.479  53.068  0.00  0.00    -0.110 A 
ATOM     32  C23 <0> A   1     -20.389  -3.160  52.591  0.00  0.00    +0.067 A 
ATOM     33  C24 <0> A   1     -19.516  -3.758  53.478  0.00  0.00    +0.004 A 
ATOM     34  C25 <0> A   1     -19.749  -3.679  54.841  0.00  0.00    +0.093 A 
ATOM     35  C26 <0> A   1     -20.857  -3.000  55.318  0.00  0.00    +0.005 A 
ATOM     36  C27 <0> A   1     -21.731  -2.396  54.435  0.00  0.00    +0.040 A 
ATOM     37  F2  <0> A   1     -18.892  -4.265  55.706  0.00  0.00    -0.139 F 
ENDBRANCH  30  31
ENDBRANCH   3  30
TORSDOF 13
ENDMDL
