REMARK VINA RESULT:      -8.0     11.999     19.446
REMARK  Name = CHEMBL253357
REMARK  15 active torsions:
REMARK  status: ('A' for Active; 'I' for Inactive)
REMARK    1  A    between atoms: C1_1  and  C2_2
REMARK    2  A    between atoms: C2_2  and  C3_3
REMARK    3  A    between atoms: C2_2  and  C4_4
REMARK    4  A    between atoms: C5_5  and  C25_30
REMARK    5  A    between atoms: N1_6  and  C19_23
REMARK    6  A    between atoms: C6_8  and  C7_9
REMARK    7  A    between atoms: C11_15  and  C13_17
REMARK    8  A    between atoms: C25_30  and  C26_31
REMARK    9  A    between atoms: C26_31  and  C27_32
REMARK   10  A    between atoms: C27_32  and  C28_34
REMARK   11  A    between atoms: C27_32  and  O5_42
REMARK   12  A    between atoms: C28_34  and  C29_35
REMARK   13  A    between atoms: C29_35  and  C30_37
REMARK   14  A    between atoms: C29_35  and  O4_41
REMARK   15  A    between atoms: C30_37  and  C31_38
REMARK                            x       y       z     vdW  Elec       q    Type
REMARK                         _______ _______ _______ _____ _____    ______ ____
ROOT
ATOM      1  C4  <0> A   1     -26.059  -3.557  51.791  0.00  0.00    -0.148 C 
ATOM      2  C5  <0> A   1     -26.022  -4.907  51.887  0.00  0.00    +0.037 C 
ATOM      3  N1  <0> A   1     -24.993  -5.335  51.109  0.00  0.00    -0.241 N 
ATOM      4  N2  <0> A   1     -24.413  -4.332  50.554  0.00  0.00    -0.258 NA
ATOM      5  C6  <0> A   1     -25.005  -3.209  50.912  0.00  0.00    +0.011 C 
ENDROOT
BRANCH   5   6
ATOM      6  C7  <0> A   1     -24.637  -1.847  50.481  0.00  0.00    +0.618 C 
ATOM      7  O1  <0> A   1     -25.293  -1.281  49.628  0.00  0.00    -0.519 OA
ATOM      8  N3  <0> A   1     -23.574  -1.229  51.034  0.00  0.00    -0.602 N 
ATOM      9  C8  <0> A   1     -22.702  -1.941  51.977  0.00  0.00    +0.267 C 
ATOM     10  C9  <0> A   1     -22.591  -1.117  53.265  0.00  0.00    +0.014 C 
ATOM     11  C10 <0> A   1     -22.122   0.299  52.920  0.00  0.00    +0.027 C 
ATOM     12  C11 <0> A   1     -23.148   0.969  52.004  0.00  0.00    +0.022 C 
ATOM     13  C12 <0> A   1     -23.262   0.167  50.698  0.00  0.00    +0.292 C 
BRANCH  12  14
ATOM     14  C13 <0> A   1     -22.701   2.375  51.691  0.00  0.00    -0.075 A 
ATOM     15  C14 <0> A   1     -21.847   2.608  50.629  0.00  0.00    +0.008 A 
ATOM     16  C15 <0> A   1     -21.437   3.897  50.343  0.00  0.00    +0.004 A 
ATOM     17  C16 <0> A   1     -21.881   4.951  51.118  0.00  0.00    -0.003 A 
ATOM     18  C17 <0> A   1     -22.736   4.718  52.180  0.00  0.00    +0.003 A 
ATOM     19  C18 <0> A   1     -23.149   3.430  52.464  0.00  0.00    +0.008 A 
ENDBRANCH  12  14
ENDBRANCH   5   6
BRANCH   3  20
ATOM     20  C19 <0> A   1     -24.620  -6.674  50.938  0.00  0.00    +0.121 A 
ATOM     21  C20 <0> A   1     -24.859  -7.314  49.729  0.00  0.00    +0.067 A 
ATOM     22  C21 <0> A   1     -24.491  -8.634  49.561  0.00  0.00    +0.020 A 
ATOM     23  C22 <0> A   1     -23.883  -9.320  50.600  0.00  0.00    +0.111 A 
ATOM     24  C23 <0> A   1     -23.644  -8.685  51.806  0.00  0.00    +0.008 A 
ATOM     25  C24 <0> A   1     -24.005  -7.363  51.975  0.00  0.00    +0.071 A 
ATOM     26  F1  <0> A   1     -23.523 -10.612  50.434  0.00  0.00    -0.131 F 
ENDBRANCH   3  20
BRANCH   1  28
ATOM     27  C1  <0> A   1     -26.247  -1.501  53.165  0.00  0.00    +0.030 C 
ATOM     28  C2  <0> A   1     -27.025  -2.621  52.471  0.00  0.00    +0.062 C 
ATOM     29  C3  <0> A   1     -27.968  -2.017  51.430  0.00  0.00    +0.024 C 
ENDBRANCH   1  28
BRANCH   2  30
ATOM     30  C25 <0> A   1     -26.946  -5.772  52.704  0.00  0.00    +0.128 C 
BRANCH  30  31
ATOM     31  C26 <0> A   1     -28.201  -6.091  51.889  0.00  0.00    -0.008 C 
BRANCH  31  32
ATOM     32  C27 <0> A   1     -28.956  -7.248  52.546  0.00  0.00    +0.215 C 
BRANCH  32  33
ATOM     33  O5  <0> A   1     -28.865  -7.131  53.967  0.00  0.00    -0.540 OA
ATOM     34  H37 <0> A   1     -29.141  -7.925  54.445  0.00  0.00    +0.363 HD
ENDBRANCH  32  33
BRANCH  32  35
ATOM     35  C28 <0> A   1     -30.426  -7.203  52.123  0.00  0.00    -0.052 C 
BRANCH  35  36
ATOM     36  C29 <0> A   1     -31.006  -8.618  52.145  0.00  0.00    +0.231 C 
BRANCH  36  37
ATOM     37  O4  <0> A   1     -29.945  -9.571  52.054  0.00  0.00    -0.528 OA
ATOM     38  H36 <0> A   1     -30.068 -10.350  52.614  0.00  0.00    +0.350 HD
ENDBRANCH  36  37
BRANCH  36  39
ATOM     39  C30 <0> A   1     -31.775  -8.834  53.451  0.00  0.00    -0.103 C 
BRANCH  39  40
ATOM     40  C31 <0> A   1     -31.087  -9.895  54.270  0.00  0.00    +0.491 C 
ATOM     41  O2  <0> A   1     -31.463 -11.053  54.209  0.00  0.00    -0.681 OA
ATOM     42  O3  <0> A   1     -30.152  -9.596  54.993  0.00  0.00    -0.713 OA
ENDBRANCH  39  40
ENDBRANCH  36  39
ENDBRANCH  35  36
ENDBRANCH  32  35
ENDBRANCH  31  32
ENDBRANCH  30  31
ENDBRANCH   2  30
TORSDOF 13
