REMARK  Name = CHEMBL398906
REMARK  18 active torsions:
REMARK  status: ('A' for Active; 'I' for Inactive)
REMARK    1  A    between atoms: C1_1  and  C2_2
REMARK    2  A    between atoms: C2_2  and  C3_4
REMARK    3  A    between atoms: C2_2  and  N1_10
REMARK    4  A    between atoms: N1_10  and  C9_11
REMARK    5  A    between atoms: C10_12  and  C11_14
REMARK    6  A    between atoms: C12_15  and  C27_39
REMARK    7  A    between atoms: C13_16  and  C20_26
REMARK    8  A    between atoms: N2_17  and  C14_19
REMARK    9  A    between atoms: C20_26  and  C21_27
REMARK   10  A    between atoms: C21_27  and  C22_28
REMARK   11  A    between atoms: C22_28  and  C23_30
REMARK   12  A    between atoms: C22_28  and  O5_38
REMARK   13  A    between atoms: C23_30  and  C24_31
REMARK   14  A    between atoms: C24_31  and  C25_33
REMARK   15  A    between atoms: C24_31  and  O4_37
REMARK   16  A    between atoms: C25_33  and  C26_34
REMARK   17  A    between atoms: C27_39  and  C28_40
REMARK   18  A    between atoms: C27_39  and  C29_41
REMARK                            x       y       z     vdW  Elec       q    Type
REMARK                         _______ _______ _______ _____ _____    ______ ____
ROOT
ATOM      1  C11 <0> A   1       0.177  -1.568  -3.064  0.00  0.00    +0.011 C 
ATOM      2  C12 <0> A   1      -0.562  -2.292  -4.030  0.00  0.00    -0.147 C 
ATOM      3  C13 <0> A   1       0.341  -2.683  -4.959  0.00  0.00    +0.037 C 
ATOM      4  N2  <0> A   1       1.553  -2.215  -4.562  0.00  0.00    -0.241 N 
ATOM      5  N3  <0> A   1       1.435  -1.564  -3.460  0.00  0.00    -0.258 NA
ENDROOT
BRANCH   4   6
ATOM      6  C14 <0> A   1       2.755  -2.408  -5.255  0.00  0.00    +0.121 A 
ATOM      7  C15 <0> A   1       2.802  -2.222  -6.631  0.00  0.00    +0.067 A 
ATOM      8  C16 <0> A   1       3.988  -2.413  -7.312  0.00  0.00    +0.020 A 
ATOM      9  C17 <0> A   1       5.130  -2.790  -6.625  0.00  0.00    +0.111 A 
ATOM     10  C18 <0> A   1       5.085  -2.975  -5.253  0.00  0.00    +0.008 A 
ATOM     11  C19 <0> A   1       3.903  -2.780  -4.567  0.00  0.00    +0.071 A 
ATOM     12  F1  <0> A   1       6.289  -2.977  -7.294  0.00  0.00    -0.131 F 
ENDBRANCH   4   6
BRANCH   1  15
ATOM     13  N1  <0> A   1      -0.536   0.404  -1.803  0.00  0.00    -0.596 N 
ATOM     14  C9  <0> A   1      -0.095   1.236  -2.925  0.00  0.00    +0.285 C 
ATOM     15  C10 <0> A   1      -0.360  -0.932  -1.845  0.00  0.00    +0.618 C 
ATOM     16  O1  <0> A   1      -0.645  -1.613  -0.878  0.00  0.00    -0.518 OA
BRANCH  13  18
ATOM     17  C1  <0> A   1      -2.344   1.889  -1.090  0.00  0.00    +0.044 C 
ATOM     18  C2  <0> A   1      -1.167   1.023  -0.635  0.00  0.00    +0.288 C 
BRANCH  18  19
ATOM     19  C3  <0> A   1      -0.159   1.883   0.084  0.00  0.00    -0.095 A 
ATOM     20  C4  <0> A   1       0.484   2.904  -0.591  0.00  0.00    +0.013 A 
ATOM     21  C5  <0> A   1       1.409   3.693   0.068  0.00  0.00    -0.000 A 
ATOM     22  C6  <0> A   1       1.689   3.462   1.401  0.00  0.00    +0.002 A 
ATOM     23  C7  <0> A   1       1.045   2.442   2.076  0.00  0.00    +0.003 A 
ATOM     24  C8  <0> A   1       0.118   1.655   1.419  0.00  0.00    +0.020 A 
ENDBRANCH  18  19
ENDBRANCH  13  18
ENDBRANCH   1  15
BRANCH   2  25
ATOM     25  C27 <0> A   1      -2.043  -2.568  -4.025  0.00  0.00    +0.061 C 
ATOM     26  C28 <0> A   1      -2.425  -3.278  -2.725  0.00  0.00    +0.029 C 
ATOM     27  C29 <0> A   1      -2.809  -1.248  -4.129  0.00  0.00    +0.025 C 
ENDBRANCH   2  25
BRANCH   3  28
ATOM     28  C20 <0> A   1       0.056  -3.489  -6.201  0.00  0.00    +0.126 C 
BRANCH  28  29
ATOM     29  C21 <0> A   1       0.066  -4.979  -5.856  0.00  0.00    -0.006 C 
BRANCH  29  30
ATOM     30  C22 <0> A   1      -0.102  -5.800  -7.136  0.00  0.00    +0.214 C 
BRANCH  30  31
ATOM     31  O5  <0> A   1       1.032  -5.600  -7.982  0.00  0.00    -0.541 OA
ATOM     32  H28 <0> A   1       1.873  -5.864  -7.582  0.00  0.00    +0.364 HD
ENDBRANCH  30  31
BRANCH  30  33
ATOM     33  C23 <0> A   1      -0.217  -7.284  -6.779  0.00  0.00    -0.051 C 
BRANCH  33  34
ATOM     34  C24 <0> A   1      -0.509  -8.091  -8.045  0.00  0.00    +0.231 C 
BRANCH  34  35
ATOM     35  O4  <0> A   1       0.606  -8.002  -8.935  0.00  0.00    -0.528 OA
ATOM     36  H27 <0> A   1       1.432  -8.341  -8.565  0.00  0.00    +0.350 HD
ENDBRANCH  34  35
BRANCH  34  37
ATOM     37  C25 <0> A   1      -0.747  -9.556  -7.671  0.00  0.00    -0.103 C 
BRANCH  37  38
ATOM     38  C26 <0> A   1      -1.155 -10.328  -8.900  0.00  0.00    +0.491 C 
ATOM     39  O2  <0> A   1      -1.247  -9.759  -9.974  0.00  0.00    -0.681 OA
ATOM     40  O3  <0> A   1      -1.394 -11.521  -8.819  0.00  0.00    -0.713 OA
ENDBRANCH  37  38
ENDBRANCH  34  37
ENDBRANCH  33  34
ENDBRANCH  30  33
ENDBRANCH  29  30
ENDBRANCH  28  29
ENDBRANCH   3  28
TORSDOF 14
