REMARK VINA RESULT:      -8.1      2.738      8.639
REMARK  Name = CHEMBL331453
REMARK  13 active torsions:
REMARK  status: ('A' for Active; 'I' for Inactive)
REMARK    1  A    between atoms: C1_1  and  C2_2
REMARK    2  A    between atoms: C2_2  and  C3_3
REMARK    3  A    between atoms: C2_2  and  C4_4
REMARK    4  A    between atoms: C5_5  and  C27_34
REMARK    5  A    between atoms: C6_6  and  C21_28
REMARK    6  A    between atoms: C7_7  and  C15_21
REMARK    7  A    between atoms: N1_8  and  C8_9
REMARK    8  A    between atoms: C8_9  and  C9_10
REMARK    9  A    between atoms: C9_10  and  C10_11
REMARK   10  A    between atoms: C12_14  and  O3_20
REMARK   11  A    between atoms: C27_34  and  O5_36
REMARK   12  A    between atoms: O5_36  and  C28_37
REMARK   13  A    between atoms: C28_37  and  C29_38
REMARK                            x       y       z     vdW  Elec       q    Type
REMARK                         _______ _______ _______ _____ _____    ______ ____
ROOT
ATOM      1  C4  <0> A   1     -14.544   6.704  45.355  0.00  0.00    +0.106 C 
ATOM      2  C5  <0> A   1     -15.279   6.976  46.488  0.00  0.00    -0.188 C 
ATOM      3  C6  <0> A   1     -14.914   8.344  46.896  0.00  0.00    -0.060 C 
ATOM      4  C7  <0> A   1     -13.988   8.778  45.968  0.00  0.00    +0.065 C 
ATOM      5  N1  <0> A   1     -13.780   7.773  45.059  0.00  0.00    -0.418 N 
ENDROOT
BRANCH   4   6
ATOM      6  C15 <0> A   1     -13.327  10.099  45.961  0.00  0.00    -0.032 A 
ATOM      7  C16 <0> A   1     -13.913  11.172  45.284  0.00  0.00    +0.050 A 
ATOM      8  C17 <0> A   1     -13.291  12.403  45.280  0.00  0.00    -0.011 A 
ATOM      9  C18 <0> A   1     -12.090  12.578  45.947  0.00  0.00    +0.107 A 
ATOM     10  C19 <0> A   1     -11.504  11.517  46.621  0.00  0.00    -0.008 A 
ATOM     11  C20 <0> A   1     -12.118  10.283  46.635  0.00  0.00    +0.078 A 
ATOM     12  F1  <0> A   1     -11.486  13.787  45.940  0.00  0.00    -0.137 F 
ENDBRANCH   4   6
BRANCH   3  13
ATOM     13  C21 <0> A   1     -15.434   9.096  48.059  0.00  0.00    -0.018 A 
ATOM     14  C22 <0> A   1     -15.052   8.739  49.352  0.00  0.00    +0.023 A 
ATOM     15  C23 <0> A   1     -15.539   9.444  50.433  0.00  0.00    +0.002 A 
ATOM     16  C24 <0> A   1     -16.406  10.503  50.236  0.00  0.00    +0.004 A 
ATOM     17  C25 <0> A   1     -16.790  10.863  48.956  0.00  0.00    +0.004 A 
ATOM     18  C26 <0> A   1     -16.304  10.169  47.867  0.00  0.00    +0.020 A 
ENDBRANCH   3  13
BRANCH   1  20
ATOM     19  C1  <0> A   1     -14.191   4.254  45.489  0.00  0.00    +0.041 C 
ATOM     20  C2  <0> A   1     -14.584   5.416  44.575  0.00  0.00    +0.048 C 
ATOM     21  C3  <0> A   1     -15.999   5.187  44.039  0.00  0.00    +0.043 C 
ENDBRANCH   1  20
BRANCH   2  22
ATOM     22  C27 <0> A   1     -16.235   6.082  47.156  0.00  0.00    +0.554 C 
ATOM     23  O4  <0> A   1     -15.877   5.407  48.101  0.00  0.00    -0.495 OA
BRANCH  22  24
ATOM     24  O5  <0> A   1     -17.509   6.010  46.721  0.00  0.00    -0.338 OA
BRANCH  24  25
ATOM     25  C28 <0> A   1     -18.359   7.120  47.016  0.00  0.00    +0.259 C 
BRANCH  25  26
ATOM     26  C29 <0> A   1     -19.023   6.902  48.351  0.00  0.00    -0.096 A 
ATOM     27  C30 <0> A   1     -19.969   5.906  48.498  0.00  0.00    +0.030 A 
ATOM     28  C31 <0> A   1     -20.578   5.707  49.724  0.00  0.00    +0.003 A 
ATOM     29  C32 <0> A   1     -20.241   6.505  50.801  0.00  0.00    +0.015 A 
ATOM     30  C33 <0> A   1     -19.295   7.502  50.654  0.00  0.00    +0.002 A 
ATOM     31  C34 <0> A   1     -18.683   7.698  49.430  0.00  0.00    +0.028 A 
ENDBRANCH  25  26
ENDBRANCH  24  25
ENDBRANCH  22  24
ENDBRANCH   2  22
BRANCH   5  32
ATOM     32  C8  <0> A   1     -12.860   7.852  43.924  0.00  0.00    +0.300 C 
BRANCH  32  33
ATOM     33  C9  <0> A   1     -13.660   7.869  42.619  0.00  0.00    +0.052 C 
BRANCH  33  34
ATOM     34  C10 <0> A   1     -13.320   9.135  41.829  0.00  0.00    +0.204 C 
ATOM     35  C11 <0> A   1     -14.304  10.248  42.200  0.00  0.00    +0.046 C 
ATOM     36  C12 <0> A   1     -13.986  11.501  41.377  0.00  0.00    +0.187 C 
ATOM     37  C13 <0> A   1     -14.107  11.159  39.887  0.00  0.00    +0.025 C 
ATOM     38  C14 <0> A   1     -13.269   9.930  39.612  0.00  0.00    +0.497 C 
ATOM     39  O1  <0> A   1     -12.489   9.902  38.690  0.00  0.00    -0.448 OA
ATOM     40  O2  <0> A   1     -13.418   8.864  40.426  0.00  0.00    -0.370 OA
BRANCH  36  41
ATOM     41  O3  <0> A   1     -12.656  11.937  41.664  0.00  0.00    -0.564 OA
ATOM     42  H18 <0> A   1     -12.548  12.309  42.550  0.00  0.00    +0.388 HD
ENDBRANCH  36  41
ENDBRANCH  33  34
ENDBRANCH  32  33
ENDBRANCH   5  32
TORSDOF 11
