REMARK VINA RESULT:      -7.9     14.624     18.466
REMARK  Name = CHEMBL387514
REMARK  15 active torsions:
REMARK  status: ('A' for Active; 'I' for Inactive)
REMARK    1  A    between atoms: C1_1  and  C2_2
REMARK    2  A    between atoms: C2_2  and  C3_3
REMARK    3  A    between atoms: C2_2  and  N1_4
REMARK    4  A    between atoms: C4_5  and  C25_29
REMARK    5  A    between atoms: C5_6  and  C19_22
REMARK    6  A    between atoms: N2_11  and  C12_15
REMARK    7  A    between atoms: C12_15  and  C13_16
REMARK    8  A    between atoms: C25_29  and  C26_30
REMARK    9  A    between atoms: C26_30  and  C27_31
REMARK   10  A    between atoms: C27_31  and  C28_33
REMARK   11  A    between atoms: C27_31  and  O5_41
REMARK   12  A    between atoms: C28_33  and  C29_34
REMARK   13  A    between atoms: C29_34  and  C30_36
REMARK   14  A    between atoms: C29_34  and  O4_40
REMARK   15  A    between atoms: C30_36  and  C31_37
REMARK                            x       y       z     vdW  Elec       q    Type
REMARK                         _______ _______ _______ _____ _____    ______ ____
ROOT
ATOM      1  N1  <0> A   1     -27.518  -4.847  49.951  0.00  0.00    -0.392 N 
ATOM      2  C4  <0> A   1     -26.964  -3.660  50.255  0.00  0.00    +0.099 C 
ATOM      3  C5  <0> A   1     -25.800  -3.886  50.926  0.00  0.00    -0.158 C 
ATOM      4  C6  <0> A   1     -25.637  -5.285  51.037  0.00  0.00    -0.074 C 
ATOM      5  C7  <0> A   1     -26.706  -5.867  50.424  0.00  0.00    -0.042 C 
ATOM      6  C8  <0> A   1     -27.004  -7.280  50.243  0.00  0.00    +0.595 C 
ATOM      7  O1  <0> A   1     -28.036  -7.525  49.646  0.00  0.00    -0.567 OA
ATOM      8  N2  <0> A   1     -26.314  -8.327  50.632  0.00  0.00    -0.574 N 
ATOM      9  C9  <0> A   1     -25.112  -8.378  51.418  0.00  0.00    +0.260 C 
ATOM     10  C10 <0> A   1     -24.126  -7.281  51.121  0.00  0.00    +0.021 C 
ATOM     11  C11 <0> A   1     -24.491  -5.956  51.727  0.00  0.00    +0.099 C 
ENDROOT
BRANCH   3  12
ATOM     12  C19 <0> A   1     -24.870  -2.851  51.446  0.00  0.00    -0.006 A 
ATOM     13  C20 <0> A   1     -25.049  -2.332  52.727  0.00  0.00    +0.048 A 
ATOM     14  C21 <0> A   1     -24.183  -1.370  53.206  0.00  0.00    -0.016 A 
ATOM     15  C22 <0> A   1     -23.138  -0.920  52.416  0.00  0.00    +0.093 A 
ATOM     16  C23 <0> A   1     -22.957  -1.433  51.142  0.00  0.00    -0.017 A 
ATOM     17  C24 <0> A   1     -23.815  -2.400  50.657  0.00  0.00    +0.050 A 
ATOM     18  F1  <0> A   1     -22.293   0.022  52.889  0.00  0.00    -0.142 F 
ENDBRANCH   3  12
BRANCH   1  20
ATOM     19  C1  <0> A   1     -29.945  -4.613  50.139  0.00  0.00    +0.037 C 
ATOM     20  C2  <0> A   1     -28.783  -5.035  49.236  0.00  0.00    +0.244 C 
ATOM     21  C3  <0> A   1     -28.785  -4.177  47.969  0.00  0.00    +0.037 C 
ENDBRANCH   1  20
BRANCH   8  22
ATOM     22  C12 <0> A   1     -26.846  -9.625  50.207  0.00  0.00    +0.332 C 
BRANCH  22  23
ATOM     23  C13 <0> A   1     -25.726 -10.470  49.657  0.00  0.00    -0.106 A 
ATOM     24  C14 <0> A   1     -25.105 -11.405  50.466  0.00  0.00    +0.038 A 
ATOM     25  C15 <0> A   1     -24.077 -12.179  49.962  0.00  0.00    -0.004 A 
ATOM     26  C16 <0> A   1     -23.670 -12.021  48.651  0.00  0.00    +0.004 A 
ATOM     27  C17 <0> A   1     -24.292 -11.086  47.843  0.00  0.00    -0.005 A 
ATOM     28  C18 <0> A   1     -25.323 -10.315  48.345  0.00  0.00    +0.011 A 
ENDBRANCH  22  23
ENDBRANCH   8  22
BRANCH   2  29
ATOM     29  C25 <0> A   1     -27.534  -2.309  49.912  0.00  0.00    +0.114 C 
BRANCH  29  30
ATOM     30  C26 <0> A   1     -28.452  -1.840  51.043  0.00  0.00    -0.006 C 
BRANCH  30  31
ATOM     31  C27 <0> A   1     -28.120  -0.390  51.402  0.00  0.00    +0.212 C 
BRANCH  31  32
ATOM     32  O5  <0> A   1     -27.842  -0.298  52.801  0.00  0.00    -0.541 OA
ATOM     33  H36 <0> A   1     -28.515  -0.704  53.364  0.00  0.00    +0.362 HD
ENDBRANCH  31  32
BRANCH  31  34
ATOM     34  C28 <0> A   1     -26.894   0.063  50.607  0.00  0.00    -0.051 C 
BRANCH  34  35
ATOM     35  C29 <0> A   1     -26.677   1.563  50.817  0.00  0.00    +0.230 C 
BRANCH  35  36
ATOM     36  O4  <0> A   1     -27.771   2.104  51.561  0.00  0.00    -0.528 OA
ATOM     37  H35 <0> A   1     -27.896   3.055  51.442  0.00  0.00    +0.349 HD
ENDBRANCH  35  36
BRANCH  35  38
ATOM     38  C30 <0> A   1     -25.376   1.788  51.589  0.00  0.00    -0.103 C 
BRANCH  38  39
ATOM     39  C31 <0> A   1     -25.684   2.431  52.917  0.00  0.00    +0.490 C 
ATOM     40  O2  <0> A   1     -25.961   1.738  53.880  0.00  0.00    -0.681 OA
ATOM     41  O3  <0> A   1     -25.655   3.644  53.027  0.00  0.00    -0.713 OA
ENDBRANCH  38  39
ENDBRANCH  35  38
ENDBRANCH  34  35
ENDBRANCH  31  34
ENDBRANCH  30  31
ENDBRANCH  29  30
ENDBRANCH   2  29
TORSDOF 13
