REMARK VINA RESULT:      -7.7      0.060      1.036
REMARK  Name = CHEMBL318102
REMARK  13 active torsions:
REMARK  status: ('A' for Active; 'I' for Inactive)
REMARK    1  A    between atoms: C1_1  and  C2_2
REMARK    2  A    between atoms: C2_2  and  C3_3
REMARK    3  A    between atoms: C2_2  and  C4_4
REMARK    4  A    between atoms: C4_4  and  C18_20
REMARK    5  A    between atoms: C5_5  and  C6_6
REMARK    6  A    between atoms: C5_5  and  C12_13
REMARK    7  A    between atoms: C19_21  and  C20_22
REMARK    8  A    between atoms: C20_22  and  C21_24
REMARK    9  A    between atoms: C20_22  and  O4_32
REMARK   10  A    between atoms: C21_24  and  C22_25
REMARK   11  A    between atoms: C22_25  and  C23_27
REMARK   12  A    between atoms: C22_25  and  O3_31
REMARK   13  A    between atoms: C23_27  and  C24_28
REMARK                            x       y       z     vdW  Elec       q    Type
REMARK                         _______ _______ _______ _____ _____    ______ ____
ROOT
ATOM      1  C4  <0> A   1     -14.538   6.522  45.165  0.00  0.00    -0.029 C 
ATOM      2  C5  <0> A   1     -14.815   7.382  46.180  0.00  0.00    -0.073 C 
ENDROOT
BRANCH   2   3
ATOM      3  C6  <0> A   1     -13.994   8.599  46.363  0.00  0.00    -0.043 A 
ATOM      4  C7  <0> A   1     -14.427   9.821  45.846  0.00  0.00    +0.057 A 
ATOM      5  C8  <0> A   1     -13.656  10.952  46.020  0.00  0.00    -0.011 A 
ATOM      6  C9  <0> A   1     -12.454  10.875  46.704  0.00  0.00    +0.099 A 
ATOM      7  C10 <0> A   1     -12.019   9.665  47.219  0.00  0.00    -0.017 A 
ATOM      8  C11 <0> A   1     -12.785   8.529  47.057  0.00  0.00    +0.054 A 
ATOM      9  F1  <0> A   1     -11.703  11.986  46.870  0.00  0.00    -0.140 F 
ENDBRANCH   2   3
BRANCH   2  10
ATOM     10  C12 <0> A   1     -15.936   7.101  47.102  0.00  0.00    -0.039 A 
ATOM     11  C13 <0> A   1     -15.698   6.461  48.320  0.00  0.00    +0.055 A 
ATOM     12  C14 <0> A   1     -16.748   6.201  49.176  0.00  0.00    -0.016 A 
ATOM     13  C15 <0> A   1     -18.037   6.575  48.830  0.00  0.00    +0.095 A 
ATOM     14  C16 <0> A   1     -18.279   7.210  47.623  0.00  0.00    -0.016 A 
ATOM     15  C17 <0> A   1     -17.236   7.481  46.762  0.00  0.00    +0.057 A 
ATOM     16  F2  <0> A   1     -19.061   6.317  49.673  0.00  0.00    -0.141 F 
ENDBRANCH   2  10
BRANCH   1  18
ATOM     17  C1  <0> A   1     -16.357   5.498  43.826  0.00  0.00    +0.027 C 
ATOM     18  C2  <0> A   1     -15.374   5.282  44.979  0.00  0.00    +0.017 C 
ATOM     19  C3  <0> A   1     -14.463   4.096  44.656  0.00  0.00    +0.027 C 
ENDBRANCH   1  18
BRANCH   1  20
ATOM     20  C18 <0> A   1     -13.429   6.800  44.253  0.00  0.00    -0.007 C 
ATOM     21  C19 <0> A   1     -13.672   7.310  43.044  0.00  0.00    -0.035 C 
BRANCH  21  22
ATOM     22  C20 <0> A   1     -12.542   7.503  42.067  0.00  0.00    +0.245 C 
BRANCH  22  23
ATOM     23  O4  <0> A   1     -11.750   6.314  42.013  0.00  0.00    -0.537 OA
ATOM     24  H25 <0> A   1     -12.236   5.508  42.235  0.00  0.00    +0.365 HD
ENDBRANCH  22  23
BRANCH  22  25
ATOM     25  C21 <0> A   1     -13.112   7.799  40.678  0.00  0.00    -0.040 C 
BRANCH  25  26
ATOM     26  C22 <0> A   1     -12.367   8.985  40.063  0.00  0.00    +0.231 C 
BRANCH  26  27
ATOM     27  O3  <0> A   1     -12.540   8.974  38.645  0.00  0.00    -0.527 OA
ATOM     28  H24 <0> A   1     -13.361   8.556  38.353  0.00  0.00    +0.350 HD
ENDBRANCH  26  27
BRANCH  26  29
ATOM     29  C23 <0> A   1     -12.927  10.290  40.635  0.00  0.00    -0.102 C 
BRANCH  29  30
ATOM     30  C24 <0> A   1     -13.316  11.208  39.504  0.00  0.00    +0.490 C 
ATOM     31  O1  <0> A   1     -14.480  11.275  39.148  0.00  0.00    -0.681 OA
ATOM     32  O2  <0> A   1     -12.468  11.882  38.946  0.00  0.00    -0.713 OA
ENDBRANCH  29  30
ENDBRANCH  26  29
ENDBRANCH  25  26
ENDBRANCH  22  25
ENDBRANCH  21  22
ENDBRANCH   1  20
TORSDOF 11
