REMARK VINA RESULT:      -7.8      2.586      3.857
REMARK  Name = CHEMBL1164546
REMARK  16 active torsions:
REMARK  status: ('A' for Active; 'I' for Inactive)
REMARK    1  A    between atoms: C1_1  and  C2_2
REMARK    2  A    between atoms: C2_2  and  C3_4
REMARK    3  A    between atoms: C2_2  and  O8_43
REMARK    4  A    between atoms: C3_4  and  C4_6
REMARK    5  A    between atoms: C3_4  and  N3_17
REMARK    6  A    between atoms: N1_8  and  C5_9
REMARK    7  A    between atoms: C5_9  and  C6_10
REMARK    8  A    between atoms: N2_12  and  C7_13
REMARK    9  A    between atoms: C7_13  and  C8_14
REMARK   10  A    between atoms: C9_18  and  C10_20
REMARK   11  A    between atoms: C14_26  and  C15_28
REMARK   12  A    between atoms: C15_28  and  C16_30
REMARK   13  A    between atoms: C15_28  and  N5_38
REMARK   14  A    between atoms: C16_30  and  C17_31
REMARK   15  A    between atoms: C23_39  and  C24_41
REMARK   16  A    between atoms: C24_41  and  N6_42
REMARK                            x       y       z     vdW  Elec       q    Type
REMARK                         _______ _______ _______ _____ _____    ______ ____
ROOT
ATOM      1  C10 <0> A   1     -10.777   7.274  47.319  0.00  0.00    +0.228 C 
ATOM      2  C11 <0> A   1     -11.413   7.040  48.705  0.00  0.00    +0.059 C 
ATOM      3  C12 <0> A   1     -12.875   7.519  48.501  0.00  0.00    +0.049 C 
ATOM      4  C13 <0> A   1     -13.146   7.082  47.040  0.00  0.00    +0.252 C 
ATOM      5  N4  <0> A   1     -11.868   7.311  46.334  0.00  0.00    -0.598 N 
ATOM      6  C14 <0> A   1     -11.725   7.519  45.010  0.00  0.00    +0.531 C 
ATOM      7  O6  <0> A   1     -10.621   7.696  44.541  0.00  0.00    -0.504 OA
ENDROOT
BRANCH   1   9
ATOM      8  N3  <0> A   1      -8.706   6.396  46.291  0.00  0.00    -0.711 N 
ATOM      9  C9  <0> A   1      -9.830   6.149  46.992  0.00  0.00    +0.510 C 
ATOM     10  O5  <0> A   1     -10.079   5.021  47.361  0.00  0.00    -0.511 OA
ATOM     11  H14 <0> A   1      -8.507   7.298  45.996  0.00  0.00    +0.411 HD
BRANCH   8  12
ATOM     12  C3  <0> A   1      -7.784   5.302  45.974  0.00  0.00    +0.221 C 
BRANCH  12  13
ATOM     13  C4  <0> A   1      -6.414   5.628  46.511  0.00  0.00    +0.521 C 
ATOM     14  O1  <0> A   1      -5.991   6.763  46.445  0.00  0.00    -0.537 OA
ATOM     15  N1  <0> A   1      -5.659   4.658  47.064  0.00  0.00    -0.702 N 
ATOM     16  H8  <0> A   1      -5.998   3.750  47.116  0.00  0.00    +0.412 HD
BRANCH  15  17
ATOM     17  C5  <0> A   1      -4.327   4.975  47.586  0.00  0.00    +0.304 C 
BRANCH  17  18
ATOM     18  C6  <0> A   1      -3.302   4.772  46.500  0.00  0.00    +0.497 C 
ATOM     19  O2  <0> A   1      -2.467   5.626  46.287  0.00  0.00    -0.561 OA
ATOM     20  N2  <0> A   1      -3.314   3.642  45.764  0.00  0.00    -0.688 N 
ATOM     21  H11 <0> A   1      -3.981   2.960  45.935  0.00  0.00    +0.412 HD
BRANCH  20  22
ATOM     22  C7  <0> A   1      -2.318   3.445  44.709  0.00  0.00    +0.187 C 
BRANCH  22  23
ATOM     23  C8  <0> A   1      -2.997   2.931  43.466  0.00  0.00    +0.489 C 
ATOM     24  O3  <0> A   1      -2.430   3.001  42.389  0.00  0.00    -0.690 OA
ATOM     25  O4  <0> A   1      -4.113   2.445  43.537  0.00  0.00    -0.684 OA
ENDBRANCH  22  23
ENDBRANCH  20  22
ENDBRANCH  17  18
ENDBRANCH  15  17
ENDBRANCH  12  13
BRANCH  12  27
ATOM     26  C1  <0> A   1      -7.738   6.495  43.778  0.00  0.00    +0.025 C 
ATOM     27  C2  <0> A   1      -7.708   5.123  44.456  0.00  0.00    +0.208 C 
BRANCH  27  28
ATOM     28  O8  <0> A   1      -6.493   4.450  44.116  0.00  0.00    -0.549 OA
ATOM     29  H32 <0> A   1      -5.891   4.325  44.862  0.00  0.00    +0.371 HD
ENDBRANCH  27  28
ENDBRANCH  12  27
ENDBRANCH   8  12
ENDBRANCH   1   9
BRANCH   6  30
ATOM     30  C15 <0> A   1     -12.936   7.530  44.114  0.00  0.00    +0.266 C 
BRANCH  30  31
ATOM     31  N5  <0> A   1     -13.869   6.483  44.541  0.00  0.00    -0.695 N 
ATOM     32  C23 <0> A   1     -14.579   5.799  43.624  0.00  0.00    +0.496 C 
ATOM     33  O7  <0> A   1     -14.446   6.048  42.444  0.00  0.00    -0.484 OA
ATOM     34  H27 <0> A   1     -13.975   6.284  45.485  0.00  0.00    +0.414 HD
BRANCH  32  35
ATOM     35  C24 <0> A   1     -15.539   4.723  44.064  0.00  0.00    +0.294 C 
BRANCH  35  36
ATOM     36  N6  <0> A   1     -16.880   5.300  44.226  0.00  0.00    -0.621 N 
ATOM     37  H30 <0> A   1     -16.925   6.187  43.749  0.00  0.00    +0.444 HD
ATOM     38  H31 <0> A   1     -17.566   4.672  43.834  0.00  0.00    +0.445 HD
ATOM     39  H33 <0> A   1     -17.071   5.435  45.208  0.00  0.00    +0.441 HD
ENDBRANCH  35  36
ENDBRANCH  32  35
ENDBRANCH  30  31
BRANCH  30  40
ATOM     40  C16 <0> A   1     -13.625   8.894  44.204  0.00  0.00    +0.110 C 
BRANCH  40  41
ATOM     41  C17 <0> A   1     -13.539   9.589  42.870  0.00  0.00    -0.095 A 
ATOM     42  C18 <0> A   1     -13.998  10.886  42.737  0.00  0.00    +0.053 A 
ATOM     43  C19 <0> A   1     -13.919  11.525  41.513  0.00  0.00    -0.003 A 
ATOM     44  C20 <0> A   1     -13.381  10.866  40.422  0.00  0.00    +0.103 A 
ATOM     45  C21 <0> A   1     -12.921   9.567  40.556  0.00  0.00    -0.018 A 
ATOM     46  C22 <0> A   1     -12.996   8.932  41.782  0.00  0.00    +0.031 A 
ATOM     47  F1  <0> A   1     -13.305  11.489  39.226  0.00  0.00    -0.135 F 
ENDBRANCH  40  41
ENDBRANCH  30  40
ENDBRANCH   6  30
TORSDOF 15
