REMARK VINA RESULT:      -6.1     10.196     11.937
REMARK  Name = CHEMBL60053
REMARK  8 active torsions:
REMARK  status: ('A' for Active; 'I' for Inactive)
REMARK    1  A    between atoms: C4_4  and  C7_7
REMARK    2  A    between atoms: C7_7  and  C8_8
REMARK    3  A    between atoms: C8_8  and  C9_9
REMARK    4  A    between atoms: C9_9  and  C10_11
REMARK    5  A    between atoms: C10_11  and  C11_12
REMARK    6  A    between atoms: C11_12  and  C12_14
REMARK    7  A    between atoms: C11_12  and  O4_18
REMARK    8  A    between atoms: C12_14  and  C13_15
REMARK                            x       y       z     vdW  Elec       q    Type
REMARK                         _______ _______ _______ _____ _____    ______ ____
ROOT
ATOM      1  C9  <0> A   1      -1.621   3.938  45.648  0.00  0.00    +0.349 C 
ATOM      2  O1  <0> A   1      -0.522   4.437  45.628  0.00  0.00    -0.429 OA
ENDROOT
BRANCH   1   3
ATOM      3  C8  <0> A   1      -1.880   2.651  44.908  0.00  0.00    +0.026 C 
BRANCH   3   4
ATOM      4  C7  <0> A   1      -2.786   2.928  43.706  0.00  0.00    +0.083 C 
BRANCH   4   8
ATOM      5  C1  <0> A   1      -6.754   1.611  44.581  0.00  0.00    -0.010 A 
ATOM      6  C2  <0> A   1      -6.468   2.964  44.537  0.00  0.00    +0.001 A 
ATOM      7  C3  <0> A   1      -5.184   3.389  44.255  0.00  0.00    +0.004 A 
ATOM      8  C4  <0> A   1      -4.186   2.464  44.016  0.00  0.00    -0.077 A 
ATOM      9  C5  <0> A   1      -4.472   1.111  44.059  0.00  0.00    +0.004 A 
ATOM     10  C6  <0> A   1      -5.756   0.686  44.340  0.00  0.00    +0.001 A 
ENDBRANCH   4   8
ENDBRANCH   3   4
ENDBRANCH   1   3
BRANCH   1  11
ATOM     11  C10 <0> A   1      -2.736   4.603  46.415  0.00  0.00    -0.015 C 
BRANCH  11  12
ATOM     12  C11 <0> A   1      -2.149   5.657  47.356  0.00  0.00    +0.240 C 
BRANCH  12  13
ATOM     13  O4  <0> A   1      -1.583   6.721  46.587  0.00  0.00    -0.532 OA
ATOM     14  H15 <0> A   1      -1.043   7.335  47.103  0.00  0.00    +0.351 HD
ENDBRANCH  12  13
BRANCH  12  15
ATOM     15  C12 <0> A   1      -3.256   6.211  48.255  0.00  0.00    -0.096 C 
BRANCH  15  16
ATOM     16  C13 <0> A   1      -3.650   7.585  47.776  0.00  0.00    +0.490 C 
ATOM     17  O2  <0> A   1      -3.176   8.575  48.307  0.00  0.00    -0.679 OA
ATOM     18  O3  <0> A   1      -4.443   7.706  46.858  0.00  0.00    -0.712 OA
ENDBRANCH  15  16
ENDBRANCH  12  15
ENDBRANCH  11  12
ENDBRANCH   1  11
TORSDOF 8
