REMARK  Name = CHEMBL83483
REMARK  14 active torsions:
REMARK  status: ('A' for Active; 'I' for Inactive)
REMARK    1  A    between atoms: C1_1  and  C2_2
REMARK    2  A    between atoms: C2_2  and  C3_3
REMARK    3  A    between atoms: C3_3  and  C4_4
REMARK    4  A    between atoms: C3_3  and  C5_5
REMARK    5  A    between atoms: C3_3  and  C6_6
REMARK    6  A    between atoms: C6_6  and  O2_8
REMARK    7  A    between atoms: O2_8  and  C7_9
REMARK    8  A    between atoms: C9_12  and  C24_35
REMARK    9  A    between atoms: C9_12  and  C25_36
REMARK   10  A    between atoms: C12_17  and  C17_24
REMARK   11  A    between atoms: C13_19  and  C16_23
REMARK   12  A    between atoms: C17_24  and  C18_25
REMARK   13  A    between atoms: C18_25  and  C19_26
REMARK   14  A    between atoms: C21_28  and  O6_34
REMARK                            x       y       z     vdW  Elec       q    Type
REMARK                         _______ _______ _______ _____ _____    ______ ____
ROOT
ATOM      1  C7  <0> A   1      -2.472  -4.152   0.003  0.00  0.00    +0.187 C 
ATOM      2  C8  <0> A   1      -2.376  -4.618   1.468  0.00  0.00    -0.010 C 
ATOM      3  C9  <0> A   1      -2.266  -6.138   1.544  0.00  0.00    +0.130 C 
ATOM      4  O3  <0> A   1      -3.223  -6.786   0.726  0.00  0.00    -0.370 OA
ATOM      5  C10 <0> A   1      -3.492  -6.329  -0.582  0.00  0.00    +0.218 C 
ATOM      6  C11 <0> A   1      -3.704  -4.806  -0.606  0.00  0.00    -0.016 C 
ATOM      7  C12 <0> A   1      -4.065  -4.372  -2.008  0.00  0.00    -0.002 C 
ATOM      8  C13 <0> A   1      -3.109  -4.842  -3.091  0.00  0.00    -0.016 C 
ATOM      9  C14 <0> A   1      -2.808  -6.332  -2.979  0.00  0.00    +0.020 C 
ATOM     10  C15 <0> A   1      -2.376  -6.695  -1.558  0.00  0.00    -0.013 C 
ATOM     11  C16 <0> A   1      -1.823  -4.021  -3.110  0.00  0.00    +0.014 C 
ATOM     12  C24 <0> A   1      -2.538  -6.553   3.007  0.00  0.00    +0.055 C 
ATOM     13  C25 <0> A   1      -0.843  -6.582   1.200  0.00  0.00    +0.016 C 
ENDROOT
BRANCH   1  14
ATOM     14  O2  <0> A   1      -2.566  -2.727   0.012  0.00  0.00    -0.333 OA
BRANCH  14  15
ATOM     15  C6  <0> A   1      -1.413  -2.041   0.005  0.00  0.00    +0.471 C 
ATOM     16  O1  <0> A   1      -0.358  -2.630  -0.009  0.00  0.00    -0.507 OA
BRANCH  15  17
ATOM     17  C3  <0> A   1      -1.433  -0.534   0.013  0.00  0.00    -0.056 C 
ATOM     18  C4  <0> A   1      -2.149  -0.040   1.272  0.00  0.00    +0.057 C 
ATOM     19  C5  <0> A   1      -2.173  -0.027  -1.227  0.00  0.00    +0.077 C 
BRANCH  17  21
ATOM     20  C1  <0> A   1      -0.019   1.526   0.010  0.00  0.00    +0.023 C 
ATOM     21  C2  <0> A   1       0.002  -0.004   0.002  0.00  0.00    +0.033 C 
ENDBRANCH  17  21
ENDBRANCH  15  17
ENDBRANCH  14  15
ENDBRANCH   1  14
BRANCH   7  22
ATOM     22  C17 <0> A   1      -4.297  -2.867  -2.120  0.00  0.00    +0.037 C 
BRANCH  22  23
ATOM     23  C18 <0> A   1      -4.778  -2.528  -3.532  0.00  0.00    +0.044 C 
BRANCH  23  24
ATOM     24  C19 <0> A   1      -5.010  -1.020  -3.644  0.00  0.00    +0.196 C 
ATOM     25  C20 <0> A   1      -5.604  -0.695  -5.017  0.00  0.00    +0.037 C 
ATOM     26  C21 <0> A   1      -5.797   0.820  -5.141  0.00  0.00    +0.182 C 
ATOM     27  C22 <0> A   1      -4.436   1.509  -4.974  0.00  0.00    +0.016 C 
ATOM     28  C23 <0> A   1      -3.801   1.002  -3.698  0.00  0.00    +0.495 C 
ATOM     29  O4  <0> A   1      -3.340   1.768  -2.885  0.00  0.00    -0.447 OA
ATOM     30  O5  <0> A   1      -3.764  -0.332  -3.493  0.00  0.00    -0.361 OA
BRANCH  26  31
ATOM     31  O6  <0> A   1      -6.693   1.273  -4.125  0.00  0.00    -0.563 OA
ATOM     32  H36 <0> A   1      -6.861   2.226  -4.145  0.00  0.00    +0.386 HD
ENDBRANCH  26  31
ENDBRANCH  23  24
ENDBRANCH  22  23
ENDBRANCH   7  22
TORSDOF 8
