REMARK VINA RESULT:      -8.1      2.786      9.174
REMARK  Name = CHEMBL387514
REMARK  15 active torsions:
REMARK  status: ('A' for Active; 'I' for Inactive)
REMARK    1  A    between atoms: C1_1  and  C2_2
REMARK    2  A    between atoms: C2_2  and  C3_3
REMARK    3  A    between atoms: C2_2  and  N1_4
REMARK    4  A    between atoms: C4_5  and  C25_29
REMARK    5  A    between atoms: C5_6  and  C19_22
REMARK    6  A    between atoms: N2_11  and  C12_15
REMARK    7  A    between atoms: C12_15  and  C13_16
REMARK    8  A    between atoms: C25_29  and  C26_30
REMARK    9  A    between atoms: C26_30  and  C27_31
REMARK   10  A    between atoms: C27_31  and  C28_33
REMARK   11  A    between atoms: C27_31  and  O5_41
REMARK   12  A    between atoms: C28_33  and  C29_34
REMARK   13  A    between atoms: C29_34  and  C30_36
REMARK   14  A    between atoms: C29_34  and  O4_40
REMARK   15  A    between atoms: C30_36  and  C31_37
REMARK                            x       y       z     vdW  Elec       q    Type
REMARK                         _______ _______ _______ _____ _____    ______ ____
ROOT
ATOM      1  N1  <0> A   1     -15.281   6.498  45.543  0.00  0.00    -0.392 N 
ATOM      2  C4  <0> A   1     -15.967   6.863  46.641  0.00  0.00    +0.099 C 
ATOM      3  C5  <0> A   1     -15.317   7.906  47.230  0.00  0.00    -0.158 C 
ATOM      4  C6  <0> A   1     -14.174   8.191  46.448  0.00  0.00    -0.074 C 
ATOM      5  C7  <0> A   1     -14.168   7.315  45.405  0.00  0.00    -0.042 C 
ATOM      6  C8  <0> A   1     -13.222   7.202  44.305  0.00  0.00    +0.595 C 
ATOM      7  O1  <0> A   1     -13.460   6.324  43.497  0.00  0.00    -0.567 OA
ATOM      8  N2  <0> A   1     -12.147   7.916  44.062  0.00  0.00    -0.574 N 
ATOM      9  C9  <0> A   1     -11.555   8.959  44.856  0.00  0.00    +0.260 C 
ATOM     10  C10 <0> A   1     -12.546   9.862  45.539  0.00  0.00    +0.021 C 
ATOM     11  C11 <0> A   1     -13.175   9.260  46.762  0.00  0.00    +0.099 C 
ENDROOT
BRANCH   3  12
ATOM     12  C19 <0> A   1     -15.734   8.615  48.466  0.00  0.00    -0.006 A 
ATOM     13  C20 <0> A   1     -16.474   9.793  48.380  0.00  0.00    +0.048 A 
ATOM     14  C21 <0> A   1     -16.860  10.448  49.531  0.00  0.00    -0.016 A 
ATOM     15  C22 <0> A   1     -16.512   9.938  50.771  0.00  0.00    +0.093 A 
ATOM     16  C23 <0> A   1     -15.775   8.768  50.861  0.00  0.00    -0.017 A 
ATOM     17  C24 <0> A   1     -15.391   8.102  49.715  0.00  0.00    +0.050 A 
ATOM     18  F1  <0> A   1     -16.890  10.584  51.896  0.00  0.00    -0.142 F 
ENDBRANCH   3  12
BRANCH   1  20
ATOM     19  C1  <0> A   1     -15.723   4.095  45.423  0.00  0.00    +0.037 C 
ATOM     20  C2  <0> A   1     -15.648   5.406  44.637  0.00  0.00    +0.244 C 
ATOM     21  C3  <0> A   1     -17.011   5.703  44.009  0.00  0.00    +0.037 C 
ENDBRANCH   1  20
BRANCH   8  22
ATOM     22  C12 <0> A   1     -11.455   7.607  42.809  0.00  0.00    +0.332 C 
BRANCH  22  23
ATOM     23  C13 <0> A   1     -12.036   8.441  41.696  0.00  0.00    -0.106 A 
ATOM     24  C14 <0> A   1     -12.346   7.854  40.483  0.00  0.00    +0.038 A 
ATOM     25  C15 <0> A   1     -12.878   8.620  39.462  0.00  0.00    -0.004 A 
ATOM     26  C16 <0> A   1     -13.099   9.970  39.653  0.00  0.00    +0.004 A 
ATOM     27  C17 <0> A   1     -12.789  10.556  40.867  0.00  0.00    -0.005 A 
ATOM     28  C18 <0> A   1     -12.262   9.790  41.889  0.00  0.00    +0.011 A 
ENDBRANCH  22  23
ENDBRANCH   8  22
BRANCH   2  29
ATOM     29  C25 <0> A   1     -17.238   6.225  47.136  0.00  0.00    +0.114 C 
BRANCH  29  30
ATOM     30  C26 <0> A   1     -18.434   7.095  46.740  0.00  0.00    -0.006 C 
BRANCH  30  31
ATOM     31  C27 <0> A   1     -19.489   7.048  47.848  0.00  0.00    +0.212 C 
BRANCH  31  32
ATOM     32  O5  <0> A   1     -20.481   6.073  47.519  0.00  0.00    -0.541 OA
ATOM     33  H36 <0> A   1     -20.141   5.169  47.463  0.00  0.00    +0.362 HD
ENDBRANCH  31  32
BRANCH  31  34
ATOM     34  C28 <0> A   1     -18.821   6.671  49.171  0.00  0.00    -0.051 C 
BRANCH  34  35
ATOM     35  C29 <0> A   1     -19.722   7.090  50.334  0.00  0.00    +0.230 C 
BRANCH  35  36
ATOM     36  O4  <0> A   1     -20.938   7.638  49.821  0.00  0.00    -0.528 OA
ATOM     37  H35 <0> A   1     -21.635   6.984  49.678  0.00  0.00    +0.349 HD
ENDBRANCH  35  36
BRANCH  35  38
ATOM     38  C30 <0> A   1     -20.040   5.868  51.199  0.00  0.00    -0.103 C 
BRANCH  38  39
ATOM     39  C31 <0> A   1     -21.405   5.340  50.840  0.00  0.00    +0.490 C 
ATOM     40  O2  <0> A   1     -21.542   4.612  49.872  0.00  0.00    -0.681 OA
ATOM     41  O3  <0> A   1     -22.372   5.640  51.519  0.00  0.00    -0.713 OA
ENDBRANCH  38  39
ENDBRANCH  35  38
ENDBRANCH  34  35
ENDBRANCH  31  34
ENDBRANCH  30  31
ENDBRANCH  29  30
ENDBRANCH   2  29
TORSDOF 13
