REMARK VINA RESULT:      -8.2     14.567     17.762
REMARK  Name = CHEMBL350895
REMARK  8 active torsions:
REMARK  status: ('A' for Active; 'I' for Inactive)
REMARK    1  A    between atoms: C1_1  and  C2_2
REMARK    2  A    between atoms: C2_2  and  C3_3
REMARK    3  A    between atoms: C4_4  and  C20_22
REMARK    4  A    between atoms: C5_5  and  C14_15
REMARK    5  A    between atoms: C7_7  and  C8_9
REMARK    6  A    between atoms: C20_22  and  C21_23
REMARK    7  A    between atoms: C21_23  and  C22_24
REMARK    8  A    between atoms: C24_26  and  O3_32
REMARK                            x       y       z     vdW  Elec       q    Type
REMARK                         _______ _______ _______ _____ _____    ______ ____
ROOT
ATOM      1  C3  <0> A   1     -27.241  -5.030  52.125  0.00  0.00    +0.150 A 
ATOM      2  C4  <0> A   1     -26.689  -3.766  52.140  0.00  0.00    -0.120 A 
ATOM      3  C5  <0> A   1     -25.376  -3.589  51.690  0.00  0.00    +0.004 A 
ATOM      4  C6  <0> A   1     -24.674  -4.709  51.241  0.00  0.00    -0.015 A 
ATOM      5  C7  <0> A   1     -25.304  -5.948  51.259  0.00  0.00    +0.174 A 
ATOM      6  N1  <0> A   1     -26.549  -6.069  51.700  0.00  0.00    -0.472 NA
ENDROOT
BRANCH   3   7
ATOM      7  C14 <0> A   1     -24.747  -2.245  51.690  0.00  0.00    -0.061 A 
ATOM      8  C15 <0> A   1     -24.243  -1.710  52.874  0.00  0.00    +0.065 A 
ATOM      9  C16 <0> A   1     -23.659  -0.460  52.869  0.00  0.00    -0.010 A 
ATOM     10  C17 <0> A   1     -23.573   0.263  51.690  0.00  0.00    +0.107 A 
ATOM     11  C18 <0> A   1     -24.073  -0.265  50.511  0.00  0.00    -0.011 A 
ATOM     12  C19 <0> A   1     -24.653  -1.517  50.505  0.00  0.00    +0.062 A 
ATOM     13  F1  <0> A   1     -23.002   1.487  51.690  0.00  0.00    -0.136 F 
ENDBRANCH   3   7
BRANCH   5  14
ATOM     14  C8  <0> A   1     -24.573  -7.150  50.785  0.00  0.00    -0.051 A 
ATOM     15  C9  <0> A   1     -24.434  -7.391  49.420  0.00  0.00    +0.024 A 
ATOM     16  C10 <0> A   1     -23.753  -8.510  48.985  0.00  0.00    +0.003 A 
ATOM     17  C11 <0> A   1     -23.211  -9.393  49.902  0.00  0.00    +0.016 A 
ATOM     18  C12 <0> A   1     -23.347  -9.159  51.258  0.00  0.00    +0.001 A 
ATOM     19  C13 <0> A   1     -24.020  -8.039  51.704  0.00  0.00    +0.056 A 
ENDBRANCH   5  14
BRANCH   1  21
ATOM     20  C1  <0> A   1     -28.679  -6.319  53.682  0.00  0.00    +0.034 C 
ATOM     21  C2  <0> A   1     -28.654  -5.228  52.610  0.00  0.00    +0.090 C 
ENDBRANCH   1  21
BRANCH   2  22
ATOM     22  C20 <0> A   1     -27.490  -2.589  52.635  0.00  0.00    +0.086 C 
BRANCH  22  23
ATOM     23  C21 <0> A   1     -28.083  -1.838  51.441  0.00  0.00    +0.059 C 
BRANCH  23  24
ATOM     24  C22 <0> A   1     -28.134  -0.341  51.755  0.00  0.00    +0.198 C 
ATOM     25  C23 <0> A   1     -27.714   0.455  50.516  0.00  0.00    +0.040 C 
ATOM     26  C24 <0> A   1     -27.727   1.951  50.845  0.00  0.00    +0.184 C 
ATOM     27  C25 <0> A   1     -26.752   2.212  52.000  0.00  0.00    +0.021 C 
ATOM     28  C26 <0> A   1     -27.085   1.260  53.129  0.00  0.00    +0.496 C 
ATOM     29  O1  <0> A   1     -27.211   1.659  54.261  0.00  0.00    -0.452 OA
ATOM     30  O2  <0> A   1     -27.237  -0.048  52.831  0.00  0.00    -0.366 OA
BRANCH  26  31
ATOM     31  O3  <0> A   1     -29.045   2.345  51.231  0.00  0.00    -0.563 OA
ATOM     32  H26 <0> A   1     -29.280   3.245  50.966  0.00  0.00    +0.387 HD
ENDBRANCH  26  31
ENDBRANCH  23  24
ENDBRANCH  22  23
ENDBRANCH   2  22
TORSDOF 7
