REMARK VINA RESULT:      -8.3      2.259      2.971
REMARK  Name = CHEMBL122937
REMARK  7 active torsions:
REMARK  status: ('A' for Active; 'I' for Inactive)
REMARK    1  A    between atoms: C1_1  and  C2_2
REMARK    2  A    between atoms: C2_2  and  C3_3
REMARK    3  A    between atoms: C2_2  and  C4_4
REMARK    4  A    between atoms: C5_5  and  C19_23
REMARK    5  A    between atoms: C6_6  and  C13_16
REMARK    6  A    between atoms: C20_24  and  C21_25
REMARK    7  A    between atoms: C23_28  and  O4_34
REMARK                            x       y       z     vdW  Elec       q    Type
REMARK                         _______ _______ _______ _____ _____    ______ ____
ROOT
ATOM      1  C4  <0> A   1     -28.941  -4.769  52.350  0.00  0.00    +0.152 A 
ATOM      2  C5  <0> A   1     -27.660  -4.268  52.070  0.00  0.00    -0.043 A 
ATOM      3  C6  <0> A   1     -27.465  -2.881  52.003  0.00  0.00    +0.014 A 
ATOM      4  C7  <0> A   1     -28.588  -2.047  52.226  0.00  0.00    -0.024 A 
ATOM      5  C8  <0> A   1     -28.475  -0.650  52.177  0.00  0.00    +0.016 A 
ATOM      6  C9  <0> A   1     -29.577   0.123  52.397  0.00  0.00    +0.130 A 
ATOM      7  C10 <0> A   1     -30.815  -0.460  52.670  0.00  0.00    +0.025 A 
ATOM      8  C11 <0> A   1     -30.956  -1.812  52.725  0.00  0.00    +0.121 A 
ATOM      9  C12 <0> A   1     -29.842  -2.641  52.504  0.00  0.00    +0.089 A 
ATOM     10  N1  <0> A   1     -29.962  -3.974  52.548  0.00  0.00    -0.108 N 
ATOM     11  O1  <0> A   1     -31.231  -4.541  52.821  0.00  0.00    -0.515 OA
ATOM     12  F1  <0> A   1     -29.469   1.469  52.348  0.00  0.00    -0.126 F 
ENDROOT
BRANCH   3  13
ATOM     13  C13 <0> A   1     -26.134  -2.310  51.711  0.00  0.00    -0.072 A 
ATOM     14  C14 <0> A   1     -25.809  -1.917  50.411  0.00  0.00    +0.080 A 
ATOM     15  C15 <0> A   1     -24.565  -1.384  50.144  0.00  0.00    -0.005 A 
ATOM     16  C16 <0> A   1     -23.637  -1.240  51.163  0.00  0.00    +0.115 A 
ATOM     17  C17 <0> A   1     -23.954  -1.630  52.456  0.00  0.00    -0.007 A 
ATOM     18  C18 <0> A   1     -25.197  -2.158  52.734  0.00  0.00    +0.064 A 
ATOM     19  F2  <0> A   1     -22.420  -0.718  50.897  0.00  0.00    -0.134 F 
ENDBRANCH   3  13
BRANCH   1  21
ATOM     20  C1  <0> A   1     -29.615  -6.646  53.825  0.00  0.00    +0.048 C 
ATOM     21  C2  <0> A   1     -29.147  -6.261  52.420  0.00  0.00    +0.053 C 
ATOM     22  C3  <0> A   1     -30.206  -6.678  51.398  0.00  0.00    +0.048 C 
ENDBRANCH   1  21
BRANCH   2  23
ATOM     23  C19 <0> A   1     -26.531  -5.191  51.847  0.00  0.00    +0.049 C 
ATOM     24  C20 <0> A   1     -26.258  -5.623  50.621  0.00  0.00    +0.013 C 
BRANCH  24  25
ATOM     25  C21 <0> A   1     -25.104  -6.565  50.394  0.00  0.00    +0.244 C 
ATOM     26  C22 <0> A   1     -25.468  -7.560  49.289  0.00  0.00    +0.052 C 
ATOM     27  C23 <0> A   1     -24.309  -8.543  49.088  0.00  0.00    +0.187 C 
ATOM     28  C24 <0> A   1     -24.052  -9.282  50.407  0.00  0.00    +0.025 C 
ATOM     29  C25 <0> A   1     -23.897  -8.254  51.506  0.00  0.00    +0.498 C 
ATOM     30  O2  <0> A   1     -22.966  -8.303  52.276  0.00  0.00    -0.448 OA
ATOM     31  O3  <0> A   1     -24.824  -7.280  51.602  0.00  0.00    -0.369 OA
BRANCH  27  32
ATOM     32  O4  <0> A   1     -23.135  -7.825  48.703  0.00  0.00    -0.564 OA
ATOM     33  H23 <0> A   1     -23.316  -6.998  48.235  0.00  0.00    +0.388 HD
ENDBRANCH  27  32
ENDBRANCH  24  25
ENDBRANCH   2  23
TORSDOF 5
