REMARK VINA RESULT:      -8.1      3.754      6.310
REMARK  Name = CHEMBL468205
REMARK  13 active torsions:
REMARK  status: ('A' for Active; 'I' for Inactive)
REMARK    1  A    between atoms: C1_1  and  C2_2
REMARK    2  A    between atoms: C2_2  and  C3_3
REMARK    3  A    between atoms: C2_2  and  C4_4
REMARK    4  A    between atoms: C5_5  and  C18_24
REMARK    5  A    between atoms: C6_6  and  C12_17
REMARK    6  A    between atoms: N4_14  and  C11_16
REMARK    7  A    between atoms: C19_25  and  C20_26
REMARK    8  A    between atoms: C20_26  and  C21_28
REMARK    9  A    between atoms: C20_26  and  O4_36
REMARK   10  A    between atoms: C21_28  and  C22_29
REMARK   11  A    between atoms: C22_29  and  C23_31
REMARK   12  A    between atoms: C22_29  and  O3_35
REMARK   13  A    between atoms: C23_31  and  C24_32
REMARK                            x       y       z     vdW  Elec       q    Type
REMARK                         _______ _______ _______ _____ _____    ______ ____
ROOT
ATOM      1  C4  <0> A   1     -12.899   9.681  48.258  0.00  0.00    +0.240 A 
ATOM      2  C5  <0> A   1     -12.924   9.367  46.897  0.00  0.00    -0.186 A 
ATOM      3  C6  <0> A   1     -12.212   8.230  46.463  0.00  0.00    +0.263 A 
ATOM      4  N1  <0> A   1     -11.549   7.507  47.362  0.00  0.00    -0.541 NA
ATOM      5  C7  <0> A   1     -11.558   7.846  48.642  0.00  0.00    +0.571 A 
ATOM      6  N2  <0> A   1     -12.212   8.911  49.082  0.00  0.00    -0.551 NA
ATOM      7  N3  <0> A   1     -10.856   7.068  49.546  0.00  0.00    -0.600 N 
ATOM      8  C8  <0> A   1     -10.153   5.941  49.102  0.00  0.00    +0.316 C 
ATOM      9  C9  <0> A   1     -10.068   5.490  47.775  0.00  0.00    -0.084 C 
ATOM     10  C10 <0> A   1      -9.301   4.378  47.762  0.00  0.00    +0.234 C 
ATOM     11  N4  <0> A   1      -8.910   4.129  49.030  0.00  0.00    -0.374 N 
ATOM     12  N5  <0> A   1      -9.451   5.125  49.853  0.00  0.00    -0.332 NA
ATOM     13  C11 <0> A   1      -8.065   3.015  49.467  0.00  0.00    +0.353 C 
ATOM     14  H10 <0> A   1     -10.851   7.302  50.487  0.00  0.00    +0.428 HD
ENDROOT
BRANCH   3  15
ATOM     15  C12 <0> A   1     -12.201   7.847  45.032  0.00  0.00    -0.072 A 
ATOM     16  C13 <0> A   1     -11.075   8.102  44.248  0.00  0.00    +0.099 A 
ATOM     17  C14 <0> A   1     -11.070   7.744  42.917  0.00  0.00    -0.014 A 
ATOM     18  C15 <0> A   1     -12.180   7.131  42.357  0.00  0.00    +0.120 A 
ATOM     19  C16 <0> A   1     -13.301   6.876  43.131  0.00  0.00    -0.024 A 
ATOM     20  C17 <0> A   1     -13.314   7.225  44.466  0.00  0.00    +0.090 A 
ATOM     21  F1  <0> A   1     -12.170   6.783  41.052  0.00  0.00    -0.136 F 
ENDBRANCH   3  15
BRANCH   1  23
ATOM     22  C1  <0> A   1     -14.356  10.521  50.082  0.00  0.00    +0.043 C 
ATOM     23  C2  <0> A   1     -13.643  10.885  48.778  0.00  0.00    +0.050 C 
ATOM     24  C3  <0> A   1     -12.653  12.022  49.037  0.00  0.00    +0.043 C 
ENDBRANCH   1  23
BRANCH   2  25
ATOM     25  C18 <0> A   1     -13.675  10.202  45.938  0.00  0.00    +0.014 C 
ATOM     26  C19 <0> A   1     -13.043  11.125  45.225  0.00  0.00    -0.039 C 
BRANCH  26  27
ATOM     27  C20 <0> A   1     -13.809  11.977  44.247  0.00  0.00    +0.252 C 
BRANCH  27  28
ATOM     28  O4  <0> A   1     -13.000  13.086  43.845  0.00  0.00    -0.537 OA
ATOM     29  H27 <0> A   1     -13.300  13.517  43.033  0.00  0.00    +0.366 HD
ENDBRANCH  27  28
BRANCH  27  30
ATOM     30  C21 <0> A   1     -14.176  11.142  43.019  0.00  0.00    -0.041 C 
BRANCH  30  31
ATOM     31  C22 <0> A   1     -13.305  11.565  41.835  0.00  0.00    +0.231 C 
BRANCH  31  32
ATOM     32  O3  <0> A   1     -12.060  10.866  41.885  0.00  0.00    -0.528 OA
ATOM     33  H26 <0> A   1     -11.911  10.387  42.712  0.00  0.00    +0.350 HD
ENDBRANCH  31  32
BRANCH  31  34
ATOM     34  C23 <0> A   1     -14.025  11.232  40.526  0.00  0.00    -0.102 C 
BRANCH  34  35
ATOM     35  C24 <0> A   1     -13.008  10.958  39.449  0.00  0.00    +0.490 C 
ATOM     36  O1  <0> A   1     -12.467  11.885  38.871  0.00  0.00    -0.681 OA
ATOM     37  O2  <0> A   1     -12.725   9.809  39.156  0.00  0.00    -0.713 OA
ENDBRANCH  34  35
ENDBRANCH  31  34
ENDBRANCH  30  31
ENDBRANCH  27  30
ENDBRANCH  26  27
ENDBRANCH   2  25
TORSDOF 10
