REMARK VINA RESULT:      -7.5     13.265     15.458
REMARK  Name = CHEMBL466547
REMARK  14 active torsions:
REMARK  status: ('A' for Active; 'I' for Inactive)
REMARK    1  A    between atoms: C1_1  and  C2_2
REMARK    2  A    between atoms: C2_2  and  C3_3
REMARK    3  A    between atoms: C2_2  and  C4_4
REMARK    4  A    between atoms: C5_5  and  C17_25
REMARK    5  A    between atoms: C6_6  and  C11_18
REMARK    6  A    between atoms: N3_10  and  C8_11
REMARK    7  A    between atoms: N7_16  and  C10_17
REMARK    8  A    between atoms: C18_26  and  C19_27
REMARK    9  A    between atoms: C19_27  and  C20_29
REMARK   10  A    between atoms: C19_27  and  O4_37
REMARK   11  A    between atoms: C20_29  and  C21_30
REMARK   12  A    between atoms: C21_30  and  C22_32
REMARK   13  A    between atoms: C21_30  and  O3_36
REMARK   14  A    between atoms: C22_32  and  C23_33
REMARK                            x       y       z     vdW  Elec       q    Type
REMARK                         _______ _______ _______ _____ _____    ______ ____
ROOT
ATOM      1  C4  <0> A   1      -3.616  10.279  53.957  0.00  0.00    +0.238 A 
ATOM      2  C5  <0> A   1      -2.525   9.762  53.253  0.00  0.00    -0.176 A 
ATOM      3  C6  <0> A   1      -1.228  10.103  53.691  0.00  0.00    +0.270 A 
ATOM      4  N1  <0> A   1      -1.098  10.898  54.750  0.00  0.00    -0.554 NA
ATOM      5  C7  <0> A   1      -2.163  11.362  55.383  0.00  0.00    +0.568 A 
ATOM      6  N2  <0> A   1      -3.396  11.066  54.996  0.00  0.00    -0.541 NA
ATOM      7  N3  <0> A   1      -1.984  12.187  56.482  0.00  0.00    -0.516 N 
ATOM      8  C8  <0> A   1      -3.148  12.713  57.199  0.00  0.00    +0.351 C 
ATOM      9  C9  <0> A   1      -0.705  12.515  56.902  0.00  0.00    +0.488 C 
ATOM     10  N4  <0> A   1      -0.030  13.594  56.578  0.00  0.00    -0.313 NA
ATOM     11  N5  <0> A   1       1.126  13.588  57.139  0.00  0.00    -0.032 NA
ATOM     12  N6  <0> A   1       1.272  12.522  57.850  0.00  0.00    -0.070 NA
ATOM     13  N7  <0> A   1       0.082  11.785  57.727  0.00  0.00    -0.371 N 
ATOM     14  C10 <0> A   1      -0.238  10.501  58.355  0.00  0.00    +0.383 C 
ENDROOT
BRANCH   3  15
ATOM     15  C11 <0> A   1      -0.034   9.586  52.985  0.00  0.00    -0.077 A 
ATOM     16  C12 <0> A   1       0.556   8.389  53.392  0.00  0.00    +0.099 A 
ATOM     17  C13 <0> A   1       1.669   7.912  52.731  0.00  0.00    -0.014 A 
ATOM     18  C14 <0> A   1       2.201   8.619  51.665  0.00  0.00    +0.123 A 
ATOM     19  C15 <0> A   1       1.618   9.809  51.257  0.00  0.00    -0.023 A 
ATOM     20  C16 <0> A   1       0.502  10.292  51.907  0.00  0.00    +0.091 A 
ATOM     21  F1  <0> A   1       3.291   8.148  51.021  0.00  0.00    -0.134 F 
ENDBRANCH   3  15
BRANCH   1  23
ATOM     22  C1  <0> A   1      -5.722   9.168  54.649  0.00  0.00    +0.045 C 
ATOM     23  C2  <0> A   1      -5.024   9.949  53.534  0.00  0.00    +0.052 C 
ATOM     24  C3  <0> A   1      -5.792  11.242  53.260  0.00  0.00    +0.045 C 
ENDBRANCH   1  23
BRANCH   2  25
ATOM     25  C17 <0> A   1      -2.723   8.884  52.084  0.00  0.00    +0.010 C 
ATOM     26  C18 <0> A   1      -2.867   9.409  50.875  0.00  0.00    -0.033 C 
BRANCH  26  27
ATOM     27  C19 <0> A   1      -3.070   8.513  49.681  0.00  0.00    +0.252 C 
BRANCH  27  28
ATOM     28  O4  <0> A   1      -2.935   9.279  48.482  0.00  0.00    -0.537 OA
ATOM     29  H27 <0> A   1      -3.484   8.965  47.751  0.00  0.00    +0.366 HD
ENDBRANCH  27  28
BRANCH  27  30
ATOM     30  C20 <0> A   1      -2.023   7.399  49.694  0.00  0.00    -0.041 C 
BRANCH  30  31
ATOM     31  C21 <0> A   1      -2.599   6.149  49.027  0.00  0.00    +0.232 C 
BRANCH  31  32
ATOM     32  O3  <0> A   1      -3.992   6.343  48.774  0.00  0.00    -0.528 OA
ATOM     33  H26 <0> A   1      -4.560   5.661  49.158  0.00  0.00    +0.350 HD
ENDBRANCH  31  32
BRANCH  31  34
ATOM     34  C22 <0> A   1      -1.870   5.895  47.705  0.00  0.00    -0.102 C 
BRANCH  34  35
ATOM     35  C23 <0> A   1      -2.801   6.185  46.555  0.00  0.00    +0.491 C 
ATOM     36  O1  <0> A   1      -2.986   7.335  46.196  0.00  0.00    -0.681 OA
ATOM     37  O2  <0> A   1      -3.371   5.270  45.987  0.00  0.00    -0.713 OA
ENDBRANCH  34  35
ENDBRANCH  31  34
ENDBRANCH  30  31
ENDBRANCH  27  30
ENDBRANCH  26  27
ENDBRANCH   2  25
TORSDOF 10
