REMARK VINA RESULT:      -8.4      1.522      2.335
REMARK  Name = CHEMBL488471
REMARK  15 active torsions:
REMARK  status: ('A' for Active; 'I' for Inactive)
REMARK    1  A    between atoms: C1_1  and  C2_2
REMARK    2  A    between atoms: C2_2  and  C3_3
REMARK    3  A    between atoms: C4_4  and  C19_26
REMARK    4  A    between atoms: N1_7  and  C7_8
REMARK    5  A    between atoms: C7_8  and  C8_9
REMARK    6  A    between atoms: C8_9  and  C9_10
REMARK    7  A    between atoms: C9_10  and  C10_12
REMARK    8  A    between atoms: C9_10  and  O4_20
REMARK    9  A    between atoms: C10_12  and  C11_13
REMARK   10  A    between atoms: C11_13  and  C12_15
REMARK   11  A    between atoms: C11_13  and  O3_19
REMARK   12  A    between atoms: C12_15  and  C13_16
REMARK   13  A    between atoms: N2_28  and  C20_29
REMARK   14  A    between atoms: C20_29  and  C21_30
REMARK   15  A    between atoms: C24_33  and  C27_36
REMARK                            x       y       z     vdW  Elec       q    Type
REMARK                         _______ _______ _______ _____ _____    ______ ____
ROOT
ATOM      1  C3  <0> A   1     -11.850   7.506  45.627  0.00  0.00    +0.082 C 
ATOM      2  C4  <0> A   1     -12.051   6.644  46.670  0.00  0.00    -0.225 C 
ATOM      3  C5  <0> A   1     -13.480   6.330  46.661  0.00  0.00    -0.124 C 
ATOM      4  C6  <0> A   1     -14.020   7.007  45.631  0.00  0.00    +0.025 C 
ATOM      5  N1  <0> A   1     -13.031   7.724  45.019  0.00  0.00    -0.427 N 
ATOM      6  C14 <0> A   1     -15.473   6.965  45.226  0.00  0.00    +0.101 C 
ATOM      7  C15 <0> A   1     -16.350   7.142  46.467  0.00  0.00    +0.019 C 
ATOM      8  C16 <0> A   1     -16.636   5.781  47.097  0.00  0.00    +0.003 C 
ATOM      9  C17 <0> A   1     -15.444   4.843  46.917  0.00  0.00    +0.010 C 
ATOM     10  C18 <0> A   1     -14.217   5.435  47.619  0.00  0.00    +0.088 C 
ENDROOT
BRANCH   2  11
ATOM     11  C19 <0> A   1     -11.038   6.136  47.610  0.00  0.00    +0.603 C 
ATOM     12  O5  <0> A   1     -10.694   6.816  48.559  0.00  0.00    -0.539 OA
ATOM     13  N2  <0> A   1     -10.492   4.919  47.420  0.00  0.00    -0.723 N 
ATOM     14  H28 <0> A   1     -10.767   4.377  46.664  0.00  0.00    +0.403 HD
BRANCH  13  15
ATOM     15  C20 <0> A   1      -9.485   4.415  48.355  0.00  0.00    +0.312 C 
BRANCH  15  16
ATOM     16  C21 <0> A   1      -8.180   4.212  47.627  0.00  0.00    -0.105 A 
ATOM     17  C22 <0> A   1      -8.154   4.213  46.244  0.00  0.00    +0.031 A 
ATOM     18  C23 <0> A   1      -6.962   4.028  45.574  0.00  0.00    +0.015 A 
ATOM     19  C24 <0> A   1      -5.783   3.841  46.292  0.00  0.00    -0.038 A 
ATOM     20  C25 <0> A   1      -5.815   3.842  47.685  0.00  0.00    +0.016 A 
ATOM     21  C26 <0> A   1      -7.011   4.033  48.346  0.00  0.00    +0.031 A 
BRANCH  19  22
ATOM     22  C27 <0> A   1      -4.499   3.642  45.576  0.00  0.00    -0.048 A 
ATOM     23  C28 <0> A   1      -4.466   2.916  44.388  0.00  0.00    +0.015 A 
ATOM     24  C29 <0> A   1      -3.269   2.735  43.726  0.00  0.00    +0.006 A 
ATOM     25  C30 <0> A   1      -2.102   3.272  44.240  0.00  0.00    +0.005 A 
ATOM     26  C31 <0> A   1      -2.129   3.993  45.420  0.00  0.00    +0.007 A 
ATOM     27  C32 <0> A   1      -3.322   4.186  46.086  0.00  0.00    +0.016 A 
ENDBRANCH  19  22
ENDBRANCH  15  16
ENDBRANCH  13  15
ENDBRANCH   2  11
BRANCH   1  29
ATOM     28  C1  <0> A   1     -10.407   9.512  45.840  0.00  0.00    +0.031 C 
ATOM     29  C2  <0> A   1     -10.529   8.115  45.229  0.00  0.00    +0.095 C 
ENDBRANCH   1  29
BRANCH   5  30
ATOM     30  C7  <0> A   1     -13.229   8.600  43.861  0.00  0.00    +0.290 C 
BRANCH  30  31
ATOM     31  C8  <0> A   1     -13.500   7.750  42.618  0.00  0.00    -0.017 C 
BRANCH  31  32
ATOM     32  C9  <0> A   1     -12.231   7.672  41.768  0.00  0.00    +0.216 C 
BRANCH  32  33
ATOM     33  O4  <0> A   1     -11.507   6.486  42.101  0.00  0.00    -0.541 OA
ATOM     34  H17 <0> A   1     -11.425   5.856  41.371  0.00  0.00    +0.366 HD
ENDBRANCH  32  33
BRANCH  32  35
ATOM     35  C10 <0> A   1     -12.610   7.638  40.286  0.00  0.00    -0.048 C 
BRANCH  35  36
ATOM     36  C11 <0> A   1     -12.552   9.054  39.712  0.00  0.00    +0.231 C 
BRANCH  36  37
ATOM     37  O3  <0> A   1     -12.227   8.991  38.321  0.00  0.00    -0.528 OA
ATOM     38  H16 <0> A   1     -12.821   9.501  37.755  0.00  0.00    +0.350 HD
ENDBRANCH  36  37
BRANCH  36  39
ATOM     39  C12 <0> A   1     -13.912   9.733  39.886  0.00  0.00    -0.102 C 
BRANCH  39  40
ATOM     40  C13 <0> A   1     -13.772  11.213  39.639  0.00  0.00    +0.490 C 
ATOM     41  O1  <0> A   1     -12.900  11.626  38.893  0.00  0.00    -0.681 OA
ATOM     42  O2  <0> A   1     -14.528  11.997  40.186  0.00  0.00    -0.713 OA
ENDBRANCH  39  40
ENDBRANCH  36  39
ENDBRANCH  35  36
ENDBRANCH  32  35
ENDBRANCH  31  32
ENDBRANCH  30  31
ENDBRANCH   5  30
TORSDOF 14
