REMARK VINA RESULT:      -7.2      2.400      5.105
REMARK  Name = CHEMBL443275
REMARK  14 active torsions:
REMARK  status: ('A' for Active; 'I' for Inactive)
REMARK    1  A    between atoms: C1_1  and  C2_2
REMARK    2  A    between atoms: C4_4  and  C27_34
REMARK    3  A    between atoms: C5_5  and  O1_22
REMARK    4  A    between atoms: C6_6  and  C8_8
REMARK    5  A    between atoms: C8_8  and  C9_9
REMARK    6  A    between atoms: C8_8  and  C15_16
REMARK    7  A    between atoms: O1_22  and  C21_23
REMARK    8  A    between atoms: C21_23  and  C22_24
REMARK    9  A    between atoms: C22_24  and  C23_25
REMARK   10  A    between atoms: C22_24  and  O5_33
REMARK   11  A    between atoms: C23_25  and  C24_26
REMARK   12  A    between atoms: C24_26  and  C25_28
REMARK   13  A    between atoms: C24_26  and  O4_32
REMARK   14  A    between atoms: C25_28  and  C26_29
REMARK                            x       y       z     vdW  Elec       q    Type
REMARK                         _______ _______ _______ _____ _____    ______ ____
ROOT
ATOM      1  C1  <0> A   1     -11.248   7.664  50.141  0.00  0.00    +0.087 C 
ATOM      2  C2  <0> A   1     -11.851   8.670  49.196  0.00  0.00    -0.088 A 
ATOM      3  C3  <0> A   1     -11.636  10.022  49.397  0.00  0.00    +0.009 A 
ATOM      4  C4  <0> A   1     -12.187  10.947  48.533  0.00  0.00    -0.097 A 
ATOM      5  C5  <0> A   1     -12.958  10.520  47.461  0.00  0.00    +0.097 A 
ATOM      6  C6  <0> A   1     -13.173   9.163  47.261  0.00  0.00    -0.075 A 
ATOM      7  C7  <0> A   1     -12.614   8.241  48.126  0.00  0.00    +0.013 A 
ATOM      8  C27 <0> A   1     -11.954  12.419  48.753  0.00  0.00    +0.096 C 
ENDROOT
BRANCH   6   9
ATOM      9  C8  <0> A   1     -14.010   8.695  46.099  0.00  0.00    +0.091 C 
BRANCH   9  10
ATOM     10  C9  <0> A   1     -15.160   7.867  46.609  0.00  0.00    -0.071 A 
ATOM     11  C10 <0> A   1     -16.268   8.487  47.157  0.00  0.00    +0.042 A 
ATOM     12  C11 <0> A   1     -17.325   7.729  47.624  0.00  0.00    -0.021 A 
ATOM     13  C12 <0> A   1     -17.274   6.348  47.543  0.00  0.00    +0.091 A 
ATOM     14  C13 <0> A   1     -16.164   5.728  46.995  0.00  0.00    -0.014 A 
ATOM     15  C14 <0> A   1     -15.112   6.488  46.522  0.00  0.00    +0.056 A 
ATOM     16  F1  <0> A   1     -18.307   5.606  48.001  0.00  0.00    -0.143 F 
ENDBRANCH   9  10
BRANCH   9  17
ATOM     17  C15 <0> A   1     -13.149   7.848  45.159  0.00  0.00    +0.000 C 
ATOM     18  C16 <0> A   1     -11.838   8.581  44.868  0.00  0.00    +0.010 C 
ATOM     19  C17 <0> A   1     -10.978   7.735  43.929  0.00  0.00    +0.003 C 
ATOM     20  C18 <0> A   1     -11.732   7.500  42.619  0.00  0.00    +0.001 C 
ATOM     21  C19 <0> A   1     -13.043   6.767  42.909  0.00  0.00    +0.003 C 
ATOM     22  C20 <0> A   1     -13.904   7.613  43.849  0.00  0.00    +0.013 C 
ENDBRANCH   9  17
ENDBRANCH   6   9
BRANCH   5  23
ATOM     23  O1  <0> A   1     -13.503  11.427  46.609  0.00  0.00    -0.318 OA
BRANCH  23  24
ATOM     24  C21 <0> A   1     -12.697  11.847  45.507  0.00  0.00    +0.147 C 
BRANCH  24  25
ATOM     25  C22 <0> A   1     -13.595  12.405  44.400  0.00  0.00    +0.224 C 
BRANCH  25  26
ATOM     26  O5  <0> A   1     -12.894  13.425  43.687  0.00  0.00    -0.531 OA
ATOM     27  H31 <0> A   1     -13.458  14.147  43.376  0.00  0.00    +0.363 HD
ENDBRANCH  25  26
BRANCH  25  28
ATOM     28  C23 <0> A   1     -13.977  11.279  43.437  0.00  0.00    -0.043 C 
BRANCH  28  29
ATOM     29  C24 <0> A   1     -13.296  11.510  42.087  0.00  0.00    +0.234 C 
BRANCH  29  30
ATOM     30  O4  <0> A   1     -12.033  10.843  42.069  0.00  0.00    -0.527 OA
ATOM     31  H30 <0> A   1     -11.785  10.496  41.200  0.00  0.00    +0.350 HD
ENDBRANCH  29  30
BRANCH  29  32
ATOM     32  C25 <0> A   1     -14.182  10.958  40.968  0.00  0.00    -0.101 C 
BRANCH  32  33
ATOM     33  C26 <0> A   1     -13.432  11.011  39.662  0.00  0.00    +0.491 C 
ATOM     34  O2  <0> A   1     -13.578  11.963  38.914  0.00  0.00    -0.680 OA
ATOM     35  O3  <0> A   1     -12.682  10.101  39.351  0.00  0.00    -0.713 OA
ENDBRANCH  32  33
ENDBRANCH  29  32
ENDBRANCH  28  29
ENDBRANCH  25  28
ENDBRANCH  24  25
ENDBRANCH  23  24
ENDBRANCH   5  23
TORSDOF 12
