REMARK VINA RESULT:      -6.9     22.480     24.127
REMARK  Name = CHEMBL39312
REMARK  12 active torsions:
REMARK  status: ('A' for Active; 'I' for Inactive)
REMARK    1  A    between atoms: C4_4  and  C7_7
REMARK    2  A    between atoms: C7_7  and  O1_8
REMARK    3  A    between atoms: O1_8  and  C8_9
REMARK    4  A    between atoms: C13_14  and  C14_15
REMARK    5  A    between atoms: C14_15  and  C15_16
REMARK    6  A    between atoms: C15_16  and  C16_17
REMARK    7  A    between atoms: C16_17  and  C17_19
REMARK    8  A    between atoms: C16_17  and  O5_27
REMARK    9  A    between atoms: C17_19  and  C18_20
REMARK   10  A    between atoms: C18_20  and  C19_22
REMARK   11  A    between atoms: C18_20  and  O4_26
REMARK   12  A    between atoms: C19_22  and  C20_23
REMARK                            x       y       z     vdW  Elec       q    Type
REMARK                         _______ _______ _______ _____ _____    ______ ____
ROOT
ATOM      1  C8  <0> A   1     -31.194  21.554  34.630  0.00  0.00    +0.159 A 
ATOM      2  C9  <0> A   1     -31.152  20.712  33.528  0.00  0.00    -0.056 A 
ATOM      3  C10 <0> A   1     -31.994  19.617  33.463  0.00  0.00    +0.009 A 
ATOM      4  C11 <0> A   1     -32.878  19.361  34.496  0.00  0.00    +0.006 A 
ATOM      5  C12 <0> A   1     -32.922  20.199  35.596  0.00  0.00    +0.011 A 
ATOM      6  C13 <0> A   1     -32.077  21.293  35.668  0.00  0.00    -0.094 A 
ATOM      7 Cl1  <0> A   1     -34.032  19.876  36.890  0.00  0.00    -0.040 Cl
ATOM      8 Cl2  <0> A   1     -31.942  18.564  32.085  0.00  0.00    -0.057 Cl
ENDROOT
BRANCH   1   9
ATOM      9  O1  <0> A   1     -30.367  22.631  34.696  0.00  0.00    -0.289 OA
BRANCH   9  10
ATOM     10  C7  <0> A   1     -29.861  23.136  33.458  0.00  0.00    +0.246 C 
BRANCH  10  14
ATOM     11  C1  <0> A   1     -25.772  24.269  33.951  0.00  0.00    +0.019 A 
ATOM     12  C2  <0> A   1     -26.259  23.970  32.692  0.00  0.00    +0.003 A 
ATOM     13  C3  <0> A   1     -27.582  23.603  32.533  0.00  0.00    +0.030 A 
ATOM     14  C4  <0> A   1     -28.418  23.535  33.632  0.00  0.00    -0.099 A 
ATOM     15  C5  <0> A   1     -27.931  23.834  34.891  0.00  0.00    +0.031 A 
ATOM     16  C6  <0> A   1     -26.608  24.202  35.050  0.00  0.00    +0.005 A 
ENDBRANCH  10  14
ENDBRANCH   9  10
ENDBRANCH   1   9
BRANCH   6  17
ATOM     17  C14 <0> A   1     -32.119  22.201  36.868  0.00  0.00    +0.097 C 
BRANCH  17  18
ATOM     18  C15 <0> A   1     -30.980  21.838  37.823  0.00  0.00    -0.007 C 
BRANCH  18  19
ATOM     19  C16 <0> A   1     -30.367  23.118  38.394  0.00  0.00    +0.211 C 
BRANCH  19  20
ATOM     20  O5  <0> A   1     -28.981  23.177  38.049  0.00  0.00    -0.540 OA
ATOM     21  H21 <0> A   1     -28.616  24.073  38.036  0.00  0.00    +0.364 HD
ENDBRANCH  19  20
BRANCH  19  22
ATOM     22  C17 <0> A   1     -31.089  24.334  37.812  0.00  0.00    -0.053 C 
BRANCH  22  23
ATOM     23  C18 <0> A   1     -30.881  25.540  38.731  0.00  0.00    +0.230 C 
BRANCH  23  24
ATOM     24  O4  <0> A   1     -29.943  25.201  39.754  0.00  0.00    -0.528 OA
ATOM     25  H20 <0> A   1     -29.205  24.657  39.447  0.00  0.00    +0.349 HD
ENDBRANCH  23  24
BRANCH  23  26
ATOM     26  C19 <0> A   1     -30.344  26.717  37.914  0.00  0.00    -0.103 C 
BRANCH  26  27
ATOM     27  C20 <0> A   1     -28.872  26.889  38.189  0.00  0.00    +0.490 C 
ATOM     28  O2  <0> A   1     -28.496  27.715  39.003  0.00  0.00    -0.681 OA
ATOM     29  O3  <0> A   1     -28.057  26.202  37.597  0.00  0.00    -0.714 OA
ENDBRANCH  26  27
ENDBRANCH  23  26
ENDBRANCH  22  23
ENDBRANCH  19  22
ENDBRANCH  18  19
ENDBRANCH  17  18
ENDBRANCH   6  17
TORSDOF 12
