REMARK VINA RESULT:      -7.7     15.070     19.200
REMARK  Name = CHEMBL122219
REMARK  13 active torsions:
REMARK  status: ('A' for Active; 'I' for Inactive)
REMARK    1  A    between atoms: C1_1  and  C2_2
REMARK    2  A    between atoms: C2_2  and  O1_3
REMARK    3  A    between atoms: O1_3  and  C3_4
REMARK    4  A    between atoms: C3_4  and  C4_6
REMARK    5  A    between atoms: C5_7  and  C24_33
REMARK    6  A    between atoms: C6_8  and  C21_30
REMARK    7  A    between atoms: N1_9  and  C14_18
REMARK    8  A    between atoms: C7_10  and  C8_11
REMARK    9  A    between atoms: C14_18  and  C15_19
REMARK   10  A    between atoms: C15_19  and  C16_20
REMARK   11  A    between atoms: C18_23  and  O5_29
REMARK   12  A    between atoms: C21_30  and  C22_31
REMARK   13  A    between atoms: C21_30  and  C23_32
REMARK                            x       y       z     vdW  Elec       q    Type
REMARK                         _______ _______ _______ _____ _____    ______ ____
ROOT
ATOM      1  C4  <0> A   1     -24.987  -4.429  51.165  0.00  0.00    -0.167 C 
ATOM      2  C5  <0> A   1     -25.502  -5.793  50.952  0.00  0.00    -0.087 C 
ATOM      3  C6  <0> A   1     -26.856  -5.692  50.927  0.00  0.00    +0.068 C 
ATOM      4  N1  <0> A   1     -27.213  -4.390  51.105  0.00  0.00    -0.419 N 
ATOM      5  C7  <0> A   1     -26.108  -3.610  51.256  0.00  0.00    +0.114 C 
ENDROOT
BRANCH   5   6
ATOM      6  C8  <0> A   1     -26.099  -2.151  51.475  0.00  0.00    -0.043 A 
ATOM      7  C9  <0> A   1     -26.168  -1.277  50.385  0.00  0.00    +0.056 A 
ATOM      8  C10 <0> A   1     -26.160   0.085  50.596  0.00  0.00    -0.006 A 
ATOM      9  C11 <0> A   1     -26.083   0.590  51.885  0.00  0.00    +0.110 A 
ATOM     10  C12 <0> A   1     -26.014  -0.272  52.968  0.00  0.00    -0.004 A 
ATOM     11  C13 <0> A   1     -26.027  -1.636  52.772  0.00  0.00    +0.073 A 
ATOM     12  F1  <0> A   1     -26.075   1.925  52.085  0.00  0.00    -0.135 F 
ENDBRANCH   5   6
BRANCH   2  13
ATOM     13  C24 <0> A   1     -24.701  -7.031  50.797  0.00  0.00    -0.017 A 
ATOM     14  C25 <0> A   1     -24.279  -7.735  51.924  0.00  0.00    +0.020 A 
ATOM     15  C26 <0> A   1     -23.532  -8.887  51.774  0.00  0.00    +0.003 A 
ATOM     16  C27 <0> A   1     -23.204  -9.342  50.509  0.00  0.00    +0.003 A 
ATOM     17  C28 <0> A   1     -23.620  -8.646  49.388  0.00  0.00    +0.003 A 
ATOM     18  C29 <0> A   1     -24.372  -7.497  49.526  0.00  0.00    +0.020 A 
ENDBRANCH   2  13
BRANCH   3  19
ATOM     19  C21 <0> A   1     -27.812  -6.841  50.733  0.00  0.00    +0.069 C 
ATOM     20  C22 <0> A   1     -28.476  -7.183  52.068  0.00  0.00    +0.031 C 
ATOM     21  C23 <0> A   1     -28.885  -6.444  49.716  0.00  0.00    +0.033 C 
ENDBRANCH   3  19
BRANCH   1  22
ATOM     22  C3  <0> A   1     -23.582  -4.022  51.267  0.00  0.00    +0.552 C 
ATOM     23  O2  <0> A   1     -22.863  -4.522  52.110  0.00  0.00    -0.499 OA
BRANCH  22  24
ATOM     24  O1  <0> A   1     -23.087  -3.091  50.424  0.00  0.00    -0.343 OA
BRANCH  24  26
ATOM     25  C1  <0> A   1     -22.618  -0.963  51.467  0.00  0.00    +0.061 C 
ATOM     26  C2  <0> A   1     -22.032  -2.265  50.918  0.00  0.00    +0.194 C 
ENDBRANCH  24  26
ENDBRANCH  22  24
ENDBRANCH   1  22
BRANCH   4  27
ATOM     27  C14 <0> A   1     -28.593  -3.898  51.134  0.00  0.00    +0.296 C 
BRANCH  27  28
ATOM     28  C15 <0> A   1     -29.084  -3.844  52.582  0.00  0.00    +0.052 C 
BRANCH  28  29
ATOM     29  C16 <0> A   1     -29.785  -2.508  52.833  0.00  0.00    +0.204 C 
ATOM     30  C17 <0> A   1     -29.532  -1.568  51.651  0.00  0.00    +0.046 C 
ATOM     31  C18 <0> A   1     -30.202  -0.217  51.925  0.00  0.00    +0.187 C 
ATOM     32  C19 <0> A   1     -29.614   0.376  53.211  0.00  0.00    +0.024 C 
ATOM     33  C20 <0> A   1     -29.708  -0.667  54.302  0.00  0.00    +0.498 C 
ATOM     34  O3  <0> A   1     -30.164  -0.393  55.387  0.00  0.00    -0.449 OA
ATOM     35  O4  <0> A   1     -29.269  -1.914  54.029  0.00  0.00    -0.370 OA
BRANCH  31  36
ATOM     36  O5  <0> A   1     -31.610  -0.403  52.081  0.00  0.00    -0.564 OA
ATOM     37  H20 <0> A   1     -32.146   0.305  51.697  0.00  0.00    +0.388 HD
ENDBRANCH  31  36
ENDBRANCH  28  29
ENDBRANCH  27  28
ENDBRANCH   4  27
TORSDOF 10
