REMARK VINA RESULT:      -8.3      3.038      5.133
REMARK  Name = CHEMBL122937
REMARK  7 active torsions:
REMARK  status: ('A' for Active; 'I' for Inactive)
REMARK    1  A    between atoms: C1_1  and  C2_2
REMARK    2  A    between atoms: C2_2  and  C3_3
REMARK    3  A    between atoms: C2_2  and  C4_4
REMARK    4  A    between atoms: C5_5  and  C19_23
REMARK    5  A    between atoms: C6_6  and  C13_16
REMARK    6  A    between atoms: C20_24  and  C21_25
REMARK    7  A    between atoms: C23_28  and  O4_34
REMARK                            x       y       z     vdW  Elec       q    Type
REMARK                         _______ _______ _______ _____ _____    ______ ____
ROOT
ATOM      1  C4  <0> A   1     -25.049  -1.361  51.970  0.00  0.00    +0.152 A 
ATOM      2  C5  <0> A   1     -25.822  -2.338  51.321  0.00  0.00    -0.043 A 
ATOM      3  C6  <0> A   1     -27.196  -2.123  51.150  0.00  0.00    +0.014 A 
ATOM      4  C7  <0> A   1     -27.741  -0.912  51.646  0.00  0.00    -0.024 A 
ATOM      5  C8  <0> A   1     -29.107  -0.624  51.513  0.00  0.00    +0.016 A 
ATOM      6  C9  <0> A   1     -29.598   0.551  52.004  0.00  0.00    +0.130 A 
ATOM      7  C10 <0> A   1     -28.757   1.467  52.635  0.00  0.00    +0.025 A 
ATOM      8  C11 <0> A   1     -27.427   1.215  52.779  0.00  0.00    +0.121 A 
ATOM      9  C12 <0> A   1     -26.886   0.016  52.286  0.00  0.00    +0.089 A 
ATOM     10  N1  <0> A   1     -25.581  -0.253  52.424  0.00  0.00    -0.108 N 
ATOM     11  O1  <0> A   1     -24.750   0.691  53.074  0.00  0.00    -0.515 OA
ATOM     12  F1  <0> A   1     -30.914   0.829  51.876  0.00  0.00    -0.126 F 
ENDROOT
BRANCH   3  13
ATOM     13  C13 <0> A   1     -28.047  -3.124  50.473  0.00  0.00    -0.072 A 
ATOM     14  C14 <0> A   1     -28.862  -3.975  51.222  0.00  0.00    +0.080 A 
ATOM     15  C15 <0> A   1     -29.654  -4.906  50.585  0.00  0.00    -0.005 A 
ATOM     16  C16 <0> A   1     -29.642  -5.000  49.203  0.00  0.00    +0.115 A 
ATOM     17  C17 <0> A   1     -28.834  -4.159  48.453  0.00  0.00    -0.007 A 
ATOM     18  C18 <0> A   1     -28.043  -3.220  49.080  0.00  0.00    +0.064 A 
ATOM     19  F2  <0> A   1     -30.419  -5.915  48.583  0.00  0.00    -0.134 F 
ENDBRANCH   3  13
BRANCH   1  21
ATOM     20  C1  <0> A   1     -22.786  -0.525  51.394  0.00  0.00    +0.048 C 
ATOM     21  C2  <0> A   1     -23.572  -1.596  52.154  0.00  0.00    +0.053 C 
ATOM     22  C3  <0> A   1     -23.225  -1.522  53.642  0.00  0.00    +0.048 C 
ENDBRANCH   1  21
BRANCH   2  23
ATOM     23  C19 <0> A   1     -25.193  -3.577  50.827  0.00  0.00    +0.049 C 
ATOM     24  C20 <0> A   1     -25.217  -4.677  51.571  0.00  0.00    +0.013 C 
BRANCH  24  25
ATOM     25  C21 <0> A   1     -24.576  -5.943  51.065  0.00  0.00    +0.244 C 
ATOM     26  C22 <0> A   1     -25.473  -6.578  49.999  0.00  0.00    +0.052 C 
ATOM     27  C23 <0> A   1     -24.840  -7.887  49.516  0.00  0.00    +0.187 C 
ATOM     28  C24 <0> A   1     -24.682  -8.834  50.713  0.00  0.00    +0.025 C 
ATOM     29  C25 <0> A   1     -23.961  -8.089  51.816  0.00  0.00    +0.498 C 
ATOM     30  O2  <0> A   1     -23.013  -8.581  52.380  0.00  0.00    -0.448 OA
ATOM     31  O3  <0> A   1     -24.406  -6.861  52.151  0.00  0.00    -0.369 OA
BRANCH  27  32
ATOM     32  O4  <0> A   1     -23.558  -7.615  48.946  0.00  0.00    -0.564 OA
ATOM     33  H23 <0> A   1     -23.418  -6.686  48.717  0.00  0.00    +0.388 HD
ENDBRANCH  27  32
ENDBRANCH  24  25
ENDBRANCH   2  23
TORSDOF 5
