REMARK VINA RESULT:      -7.5      2.978      4.940
REMARK  Name = CHEMBL253054
REMARK  16 active torsions:
REMARK  status: ('A' for Active; 'I' for Inactive)
REMARK    1  A    between atoms: C1_1  and  C2_2
REMARK    2  A    between atoms: C2_2  and  C3_3
REMARK    3  A    between atoms: C2_2  and  C4_4
REMARK    4  A    between atoms: C5_5  and  S1_35
REMARK    5  A    between atoms: C6_6  and  C21_29
REMARK    6  A    between atoms: C7_7  and  C15_22
REMARK    7  A    between atoms: N1_8  and  C8_9
REMARK    8  A    between atoms: C8_9  and  C9_10
REMARK    9  A    between atoms: C9_10  and  C10_11
REMARK   10  A    between atoms: C10_11  and  C11_13
REMARK   11  A    between atoms: C10_11  and  O4_21
REMARK   12  A    between atoms: C11_13  and  C12_14
REMARK   13  A    between atoms: C12_14  and  C13_16
REMARK   14  A    between atoms: C12_14  and  O3_20
REMARK   15  A    between atoms: C13_16  and  C14_17
REMARK   16  A    between atoms: S1_35  and  N2_38
REMARK                            x       y       z     vdW  Elec       q    Type
REMARK                         _______ _______ _______ _____ _____    ______ ____
ROOT
ATOM      1  C4  <0> A   1     -13.046   9.734  46.669  0.00  0.00    +0.173 C 
ATOM      2  C5  <0> A   1     -13.882   9.675  47.723  0.00  0.00    -0.737 C 
ATOM      3  C6  <0> A   1     -14.652   8.494  47.595  0.00  0.00    -0.022 C 
ATOM      4  C7  <0> A   1     -14.234   7.869  46.432  0.00  0.00    +0.059 C 
ATOM      5  N1  <0> A   1     -13.254   8.646  45.874  0.00  0.00    -0.412 N 
ENDROOT
BRANCH   4   6
ATOM      6  C15 <0> A   1     -14.756   6.598  45.889  0.00  0.00    -0.027 A 
ATOM      7  C16 <0> A   1     -16.003   6.564  45.261  0.00  0.00    +0.045 A 
ATOM      8  C17 <0> A   1     -16.485   5.374  44.755  0.00  0.00    -0.008 A 
ATOM      9  C18 <0> A   1     -15.734   4.215  44.871  0.00  0.00    +0.105 A 
ATOM     10  C19 <0> A   1     -14.496   4.243  45.492  0.00  0.00    -0.008 A 
ATOM     11  C20 <0> A   1     -14.001   5.427  45.996  0.00  0.00    +0.074 A 
ATOM     12  F1  <0> A   1     -16.212   3.053  44.375  0.00  0.00    -0.137 F 
ENDBRANCH   4   6
BRANCH   3  13
ATOM     13  C21 <0> A   1     -15.702   8.018  48.526  0.00  0.00    -0.034 A 
ATOM     14  C22 <0> A   1     -17.010   8.485  48.403  0.00  0.00    +0.061 A 
ATOM     15  C23 <0> A   1     -17.983   8.038  49.272  0.00  0.00    -0.000 A 
ATOM     16  C24 <0> A   1     -17.664   7.129  50.265  0.00  0.00    +0.003 A 
ATOM     17  C25 <0> A   1     -16.368   6.662  50.391  0.00  0.00    -0.009 A 
ATOM     18  C26 <0> A   1     -15.387   7.097  49.524  0.00  0.00    +0.017 A 
ENDBRANCH   3  13
BRANCH   1  20
ATOM     19  C1  <0> A   1     -10.726  10.216  45.934  0.00  0.00    +0.040 C 
ATOM     20  C2  <0> A   1     -12.046  10.831  46.407  0.00  0.00    +0.059 C 
ATOM     21  C3  <0> A   1     -12.587  11.769  45.326  0.00  0.00    +0.039 C 
ENDBRANCH   1  20
BRANCH   2  22
ATOM     22  S1  <0> A   1     -13.999  10.856  49.026  0.00  0.00    +2.731 S 
ATOM     23  O5  <0> A   1     -14.418  10.144  50.182  0.00  0.00    -0.945 OA
ATOM     24  O6  <0> A   1     -12.799  11.616  48.992  0.00  0.00    -0.960 OA
BRANCH  22  25
ATOM     25  N2  <0> A   1     -15.229  11.894  48.638  0.00  0.00    -1.039 NA
ATOM     26  C27 <0> A   1     -16.698  11.832  48.609  0.00  0.00    +0.286 C 
ATOM     27  C28 <0> A   1     -16.668  12.907  47.514  0.00  0.00    +0.030 C 
ATOM     28  C29 <0> A   1     -15.333  13.287  48.175  0.00  0.00    +0.290 C 
ENDBRANCH  22  25
ENDBRANCH   2  22
BRANCH   5  29
ATOM     29  C8  <0> A   1     -12.540   8.353  44.628  0.00  0.00    +0.294 C 
BRANCH  29  30
ATOM     30  C9  <0> A   1     -13.512   8.442  43.450  0.00  0.00    -0.015 C 
BRANCH  30  31
ATOM     31  C10 <0> A   1     -13.163   7.367  42.419  0.00  0.00    +0.218 C 
BRANCH  31  32
ATOM     32  O4  <0> A   1     -14.336   6.617  42.096  0.00  0.00    -0.540 OA
ATOM     33  H19 <0> A   1     -14.474   6.492  41.147  0.00  0.00    +0.366 HD
ENDBRANCH  31  32
BRANCH  31  34
ATOM     34  C11 <0> A   1     -12.619   8.031  41.153  0.00  0.00    -0.047 C 
BRANCH  34  35
ATOM     35  C12 <0> A   1     -13.006   9.511  41.148  0.00  0.00    +0.232 C 
BRANCH  35  36
ATOM     36  O3  <0> A   1     -11.822  10.313  41.131  0.00  0.00    -0.528 OA
ATOM     37  H18 <0> A   1     -11.490  10.505  40.244  0.00  0.00    +0.350 HD
ENDBRANCH  35  36
BRANCH  35  38
ATOM     38  C13 <0> A   1     -13.845   9.816  39.905  0.00  0.00    -0.102 C 
BRANCH  38  39
ATOM     39  C14 <0> A   1     -13.931  11.308  39.709  0.00  0.00    +0.491 C 
ATOM     40  O1  <0> A   1     -13.326  11.838  38.792  0.00  0.00    -0.681 OA
ATOM     41  O2  <0> A   1     -14.604  11.984  40.468  0.00  0.00    -0.712 OA
ENDBRANCH  38  39
ENDBRANCH  35  38
ENDBRANCH  34  35
ENDBRANCH  31  34
ENDBRANCH  30  31
ENDBRANCH  29  30
ENDBRANCH   5  29
TORSDOF 14
