REMARK VINA RESULT:      -6.9      2.555      5.421
REMARK  Name = CHEMBL101774
REMARK  17 active torsions:
REMARK  status: ('A' for Active; 'I' for Inactive)
REMARK    1  A    between atoms: C1_1  and  C2_2
REMARK    2  A    between atoms: C4_4  and  C25_32
REMARK    3  A    between atoms: C5_5  and  O1_20
REMARK    4  A    between atoms: C6_6  and  C8_8
REMARK    5  A    between atoms: C8_8  and  C9_9
REMARK    6  A    between atoms: C8_8  and  C13_13
REMARK    7  A    between atoms: C9_9  and  C10_10
REMARK    8  A    between atoms: C10_10  and  C11_11
REMARK    9  A    between atoms: C10_10  and  C12_12
REMARK   10  A    between atoms: O1_20  and  C19_21
REMARK   11  A    between atoms: C19_21  and  C20_22
REMARK   12  A    between atoms: C20_22  and  C21_23
REMARK   13  A    between atoms: C20_22  and  O5_31
REMARK   14  A    between atoms: C21_23  and  C22_24
REMARK   15  A    between atoms: C22_24  and  C23_26
REMARK   16  A    between atoms: C22_24  and  O4_30
REMARK   17  A    between atoms: C23_26  and  C24_27
REMARK                            x       y       z     vdW  Elec       q    Type
REMARK                         _______ _______ _______ _____ _____    ______ ____
ROOT
ATOM      1  C1  <0> A   1     -12.284  13.752  47.871  0.00  0.00    +0.087 C 
ATOM      2  C2  <0> A   1     -13.307  12.705  47.513  0.00  0.00    -0.087 A 
ATOM      3  C3  <0> A   1     -14.597  12.806  47.998  0.00  0.00    +0.008 A 
ATOM      4  C4  <0> A   1     -15.537  11.848  47.672  0.00  0.00    -0.094 A 
ATOM      5  C5  <0> A   1     -15.184  10.783  46.856  0.00  0.00    +0.096 A 
ATOM      6  C6  <0> A   1     -13.888  10.684  46.370  0.00  0.00    -0.076 A 
ATOM      7  C7  <0> A   1     -12.954  11.648  46.695  0.00  0.00    +0.012 A 
ATOM      8  C25 <0> A   1     -16.943  11.958  48.202  0.00  0.00    +0.096 C 
ENDROOT
BRANCH   6   9
ATOM      9  C8  <0> A   1     -13.502   9.528  45.484  0.00  0.00    +0.088 C 
BRANCH   9  10
ATOM     10  C13 <0> A   1     -13.337  10.015  44.067  0.00  0.00    -0.080 A 
ATOM     11  C14 <0> A   1     -14.079  11.091  43.616  0.00  0.00    +0.044 A 
ATOM     12  C15 <0> A   1     -13.930  11.540  42.318  0.00  0.00    -0.018 A 
ATOM     13  C16 <0> A   1     -13.035  10.911  41.468  0.00  0.00    +0.093 A 
ATOM     14  C17 <0> A   1     -12.292   9.833  41.920  0.00  0.00    -0.009 A 
ATOM     15  C18 <0> A   1     -12.440   9.390  43.221  0.00  0.00    +0.046 A 
ATOM     16  F1  <0> A   1     -12.887  11.348  40.198  0.00  0.00    -0.141 F 
ENDBRANCH   9  10
BRANCH   9  17
ATOM     17  C9  <0> A   1     -12.182   8.928  45.974  0.00  0.00    +0.032 C 
BRANCH  17  18
ATOM     18  C10 <0> A   1     -12.449   8.025  47.179  0.00  0.00    -0.023 C 
ATOM     19  C11 <0> A   1     -11.916   6.620  46.892  0.00  0.00    +0.018 C 
ATOM     20  C12 <0> A   1     -11.744   8.596  48.411  0.00  0.00    +0.011 C 
ENDBRANCH  17  18
ENDBRANCH   9  17
ENDBRANCH   6   9
BRANCH   5  21
ATOM     21  O1  <0> A   1     -16.106   9.837  46.534  0.00  0.00    -0.317 OA
BRANCH  21  22
ATOM     22  C19 <0> A   1     -16.407   8.858  47.530  0.00  0.00    +0.144 C 
BRANCH  22  23
ATOM     23  C20 <0> A   1     -15.908   7.488  47.067  0.00  0.00    +0.224 C 
BRANCH  23  24
ATOM     24  O5  <0> A   1     -15.562   6.698  48.206  0.00  0.00    -0.531 OA
ATOM     25  H29 <0> A   1     -15.511   5.749  48.026  0.00  0.00    +0.363 HD
ENDBRANCH  23  24
BRANCH  23  26
ATOM     26  C21 <0> A   1     -17.011   6.785  46.273  0.00  0.00    -0.044 C 
BRANCH  26  27
ATOM     27  C22 <0> A   1     -16.383   5.753  45.334  0.00  0.00    +0.235 C 
BRANCH  27  28
ATOM     28  O4  <0> A   1     -17.255   5.528  44.224  0.00  0.00    -0.527 OA
ATOM     29  H28 <0> A   1     -16.906   4.906  43.570  0.00  0.00    +0.350 HD
ENDBRANCH  27  28
BRANCH  27  30
ATOM     30  C23 <0> A   1     -15.038   6.277  44.827  0.00  0.00    -0.101 C 
BRANCH  30  31
ATOM     31  C24 <0> A   1     -14.712   5.629  43.506  0.00  0.00    +0.491 C 
ATOM     32  O2  <0> A   1     -14.320   4.475  43.474  0.00  0.00    -0.680 OA
ATOM     33  O3  <0> A   1     -14.839   6.258  42.470  0.00  0.00    -0.713 OA
ENDBRANCH  30  31
ENDBRANCH  27  30
ENDBRANCH  26  27
ENDBRANCH  23  26
ENDBRANCH  22  23
ENDBRANCH  21  22
ENDBRANCH   5  21
TORSDOF 13
