MODEL 1
REMARK VINA RESULT:      -8.1      0.000      0.000
REMARK  Name = CHEMBL333904
REMARK  15 active torsions:
REMARK  status: ('A' for Active; 'I' for Inactive)
REMARK    1  A    between atoms: C1_1  and  C2_2
REMARK    2  A    between atoms: C2_2  and  C3_3
REMARK    3  A    between atoms: C2_2  and  C4_4
REMARK    4  A    between atoms: C6_6  and  C22_30
REMARK    5  A    between atoms: C7_7  and  C16_23
REMARK    6  A    between atoms: N1_8  and  C8_9
REMARK    7  A    between atoms: C9_10  and  C10_11
REMARK    8  A    between atoms: C10_11  and  C11_13
REMARK    9  A    between atoms: C10_11  and  O4_22
REMARK   10  A    between atoms: C11_13  and  C12_14
REMARK   11  A    between atoms: C12_14  and  C13_16
REMARK   12  A    between atoms: C12_14  and  O3_21
REMARK   13  A    between atoms: C13_16  and  C14_17
REMARK   14  A    between atoms: C14_17  and  O2_19
REMARK   15  A    between atoms: O2_19  and  C15_20
REMARK                            x       y       z     vdW  Elec       q    Type
REMARK                         _______ _______ _______ _____ _____    ______ ____
ROOT
ATOM      1  C4  <0> A   1     -14.827   6.494  45.268  0.00  0.00    +0.043 C 
ATOM      2  C5  <0> A   1     -15.596   6.825  46.323  0.00  0.00    -0.020 C 
ATOM      3  C6  <0> A   1     -15.240   8.137  46.720  0.00  0.00    -0.112 C 
ATOM      4  C7  <0> A   1     -14.237   8.559  45.860  0.00  0.00    +0.072 C 
ATOM      5  N1  <0> A   1     -13.992   7.537  44.980  0.00  0.00    -0.389 N 
ENDROOT
BRANCH   4   6
ATOM      6  C16 <0> A   1     -13.554   9.867  45.891  0.00  0.00    -0.034 A 
ATOM      7  C17 <0> A   1     -12.472  10.073  46.749  0.00  0.00    +0.056 A 
ATOM      8  C18 <0> A   1     -11.837  11.297  46.772  0.00  0.00    -0.011 A 
ATOM      9  C19 <0> A   1     -12.272  12.322  45.946  0.00  0.00    +0.106 A 
ATOM     10  C20 <0> A   1     -13.345  12.123  45.092  0.00  0.00    -0.010 A 
ATOM     11  C21 <0> A   1     -13.983  10.902  45.056  0.00  0.00    +0.069 A 
ATOM     12  F1  <0> A   1     -11.645  13.519  45.974  0.00  0.00    -0.136 F 
ENDBRANCH   4   6
BRANCH   3  13
ATOM     13  C22 <0> A   1     -15.826   8.911  47.837  0.00  0.00    +0.041 A 
ATOM     14  C23 <0> A   1     -15.900   8.369  49.126  0.00  0.00    -0.031 A 
ATOM     15  C24 <0> A   1     -16.454   9.124  50.137  0.00  0.00    +0.255 A 
ATOM     16  N2  <0> A   1     -16.910  10.341  49.904  0.00  0.00    -0.490 NA
ATOM     17  C25 <0> A   1     -16.859  10.889  48.704  0.00  0.00    +0.255 A 
ATOM     18  C26 <0> A   1     -16.315  10.206  47.636  0.00  0.00    -0.031 A 
ENDBRANCH   3  13
BRANCH   1  20
ATOM     19  C1  <0> A   1     -14.185   4.100  45.366  0.00  0.00    +0.041 C 
ATOM     20  C2  <0> A   1     -14.874   5.181  44.530  0.00  0.00    +0.050 C 
ATOM     21  C3  <0> A   1     -16.333   4.785  44.286  0.00  0.00    +0.033 C 
ENDBRANCH   1  20
BRANCH   5  22
ATOM     22  C8  <0> A   1     -13.049   7.559  43.954  0.00  0.00    +0.201 C 
ATOM     23  C9  <0> A   1     -13.424   7.820  42.716  0.00  0.00    -0.056 C 
BRANCH  23  24
ATOM     24  C10 <0> A   1     -12.404   7.846  41.608  0.00  0.00    +0.268 C 
BRANCH  24  25
ATOM     25  O4  <0> A   1     -11.758   6.574  41.526  0.00  0.00    -0.538 OA
ATOM     26  H21 <0> A   1     -10.793   6.623  41.493  0.00  0.00    +0.370 HD
ENDBRANCH  24  25
BRANCH  24  27
ATOM     27  C11 <0> A   1     -13.102   8.148  40.280  0.00  0.00    -0.015 C 
BRANCH  27  28
ATOM     28  C12 <0> A   1     -12.256   9.133  39.472  0.00  0.00    +0.233 C 
BRANCH  28  29
ATOM     29  O3  <0> A   1     -12.773   9.227  38.143  0.00  0.00    -0.530 OA
ATOM     30  H20 <0> A   1     -12.674  10.102  37.744  0.00  0.00    +0.366 HD
ENDBRANCH  28  29
BRANCH  28  31
ATOM     31  C13 <0> A   1     -12.302  10.511  40.135  0.00  0.00    +0.073 C 
BRANCH  31  32
ATOM     32  C14 <0> A   1     -12.915  11.506  39.184  0.00  0.00    +0.456 C 
ATOM     33  O1  <0> A   1     -12.208  12.158  38.453  0.00  0.00    -0.486 OA
BRANCH  32  34
ATOM     34  O2  <0> A   1     -14.248  11.667  39.150  0.00  0.00    -0.359 OA
ATOM     35  C15 <0> A   1     -14.952  11.512  40.384  0.00  0.00    +0.258 C 
ENDBRANCH  32  34
ENDBRANCH  31  32
ENDBRANCH  28  31
ENDBRANCH  27  28
ENDBRANCH  24  27
ENDBRANCH  23  24
ENDBRANCH   5  22
TORSDOF 12
ENDMDL
MODEL 2
REMARK VINA RESULT:      -7.2      4.032      7.240
REMARK  Name = CHEMBL333904
REMARK  15 active torsions:
REMARK  status: ('A' for Active; 'I' for Inactive)
REMARK    1  A    between atoms: C1_1  and  C2_2
REMARK    2  A    between atoms: C2_2  and  C3_3
REMARK    3  A    between atoms: C2_2  and  C4_4
REMARK    4  A    between atoms: C6_6  and  C22_30
REMARK    5  A    between atoms: C7_7  and  C16_23
REMARK    6  A    between atoms: N1_8  and  C8_9
REMARK    7  A    between atoms: C9_10  and  C10_11
REMARK    8  A    between atoms: C10_11  and  C11_13
REMARK    9  A    between atoms: C10_11  and  O4_22
REMARK   10  A    between atoms: C11_13  and  C12_14
REMARK   11  A    between atoms: C12_14  and  C13_16
REMARK   12  A    between atoms: C12_14  and  O3_21
REMARK   13  A    between atoms: C13_16  and  C14_17
REMARK   14  A    between atoms: C14_17  and  O2_19
REMARK   15  A    between atoms: O2_19  and  C15_20
REMARK                            x       y       z     vdW  Elec       q    Type
REMARK                         _______ _______ _______ _____ _____    ______ ____
ROOT
ATOM      1  C4  <0> A   1     -14.354   6.817  44.674  0.00  0.00    +0.043 C 
ATOM      2  C5  <0> A   1     -14.212   7.345  43.444  0.00  0.00    -0.020 C 
ATOM      3  C6  <0> A   1     -13.754   8.676  43.596  0.00  0.00    -0.112 C 
ATOM      4  C7  <0> A   1     -13.635   8.906  44.958  0.00  0.00    +0.072 C 
ATOM      5  N1  <0> A   1     -14.012   7.757  45.605  0.00  0.00    -0.389 N 
ENDROOT
BRANCH   4   6
ATOM      6  C16 <0> A   1     -13.188  10.160  45.596  0.00  0.00    -0.034 A 
ATOM      7  C17 <0> A   1     -14.124  11.117  45.992  0.00  0.00    +0.056 A 
ATOM      8  C18 <0> A   1     -13.701  12.286  46.589  0.00  0.00    -0.011 A 
ATOM      9  C19 <0> A   1     -12.349  12.513  46.795  0.00  0.00    +0.106 A 
ATOM     10  C20 <0> A   1     -11.415  11.566  46.403  0.00  0.00    -0.010 A 
ATOM     11  C21 <0> A   1     -11.827  10.391  45.811  0.00  0.00    +0.069 A 
ATOM     12  F1  <0> A   1     -11.941  13.660  47.379  0.00  0.00    -0.136 F 
ENDBRANCH   4   6
BRANCH   3  13
ATOM     13  C22 <0> A   1     -13.459   9.638  42.511  0.00  0.00    +0.041 A 
ATOM     14  C23 <0> A   1     -14.183  10.830  42.390  0.00  0.00    -0.031 A 
ATOM     15  C24 <0> A   1     -13.875  11.698  41.364  0.00  0.00    +0.255 A 
ATOM     16  N2  <0> A   1     -12.914  11.417  40.503  0.00  0.00    -0.490 NA
ATOM     17  C25 <0> A   1     -12.208  10.304  40.581  0.00  0.00    +0.255 A 
ATOM     18  C26 <0> A   1     -12.445   9.383  41.581  0.00  0.00    -0.031 A 
ENDBRANCH   3  13
BRANCH   1  20
ATOM     19  C1  <0> A   1     -16.345   5.345  44.827  0.00  0.00    +0.041 C 
ATOM     20  C2  <0> A   1     -14.823   5.417  44.976  0.00  0.00    +0.050 C 
ATOM     21  C3  <0> A   1     -14.168   4.438  43.999  0.00  0.00    +0.033 C 
ENDBRANCH   1  20
BRANCH   5  22
ATOM     22  C8  <0> A   1     -14.038   7.576  46.987  0.00  0.00    +0.201 C 
ATOM     23  C9  <0> A   1     -15.123   7.878  47.673  0.00  0.00    -0.056 C 
BRANCH  23  24
ATOM     24  C10 <0> A   1     -15.151   7.681  49.166  0.00  0.00    +0.268 C 
BRANCH  24  25
ATOM     25  O4  <0> A   1     -15.520   8.907  49.801  0.00  0.00    -0.538 OA
ATOM     26  H21 <0> A   1     -16.463   9.113  49.742  0.00  0.00    +0.370 HD
ENDBRANCH  24  25
BRANCH  24  27
ATOM     27  C11 <0> A   1     -16.172   6.598  49.518  0.00  0.00    -0.015 C 
BRANCH  27  28
ATOM     28  C12 <0> A   1     -17.148   6.418  48.353  0.00  0.00    +0.233 C 
BRANCH  28  29
ATOM     29  O3  <0> A   1     -17.245   5.032  48.023  0.00  0.00    -0.530 OA
ATOM     30  H20 <0> A   1     -17.631   4.488  48.723  0.00  0.00    +0.366 HD
ENDBRANCH  28  29
BRANCH  28  31
ATOM     31  C13 <0> A   1     -18.526   6.945  48.755  0.00  0.00    +0.073 C 
BRANCH  31  32
ATOM     32  C14 <0> A   1     -19.528   6.601  47.683  0.00  0.00    +0.456 C 
ATOM     33  O1  <0> A   1     -19.351   6.976  46.548  0.00  0.00    -0.486 OA
BRANCH  32  34
ATOM     34  O2  <0> A   1     -20.616   5.876  47.989  0.00  0.00    -0.359 OA
ATOM     35  C15 <0> A   1     -20.602   5.181  49.239  0.00  0.00    +0.258 C 
ENDBRANCH  32  34
ENDBRANCH  31  32
ENDBRANCH  28  31
ENDBRANCH  27  28
ENDBRANCH  24  27
ENDBRANCH  23  24
ENDBRANCH   5  22
TORSDOF 12
ENDMDL
MODEL 3
REMARK VINA RESULT:      -7.2      2.882      5.085
REMARK  Name = CHEMBL333904
REMARK  15 active torsions:
REMARK  status: ('A' for Active; 'I' for Inactive)
REMARK    1  A    between atoms: C1_1  and  C2_2
REMARK    2  A    between atoms: C2_2  and  C3_3
REMARK    3  A    between atoms: C2_2  and  C4_4
REMARK    4  A    between atoms: C6_6  and  C22_30
REMARK    5  A    between atoms: C7_7  and  C16_23
REMARK    6  A    between atoms: N1_8  and  C8_9
REMARK    7  A    between atoms: C9_10  and  C10_11
REMARK    8  A    between atoms: C10_11  and  C11_13
REMARK    9  A    between atoms: C10_11  and  O4_22
REMARK   10  A    between atoms: C11_13  and  C12_14
REMARK   11  A    between atoms: C12_14  and  C13_16
REMARK   12  A    between atoms: C12_14  and  O3_21
REMARK   13  A    between atoms: C13_16  and  C14_17
REMARK   14  A    between atoms: C14_17  and  O2_19
REMARK   15  A    between atoms: O2_19  and  C15_20
REMARK                            x       y       z     vdW  Elec       q    Type
REMARK                         _______ _______ _______ _____ _____    ______ ____
ROOT
ATOM      1  C4  <0> A   1     -15.750  10.216  47.625  0.00  0.00    +0.043 C 
ATOM      2  C5  <0> A   1     -16.659   9.566  48.376  0.00  0.00    -0.020 C 
ATOM      3  C6  <0> A   1     -16.603   8.194  48.031  0.00  0.00    -0.112 C 
ATOM      4  C7  <0> A   1     -15.628   8.067  47.052  0.00  0.00    +0.072 C 
ATOM      5  N1  <0> A   1     -15.120   9.317  46.811  0.00  0.00    -0.389 N 
ENDROOT
BRANCH   4   6
ATOM      6  C16 <0> A   1     -15.218   6.814  46.387  0.00  0.00    -0.034 A 
ATOM      7  C17 <0> A   1     -15.953   6.320  45.308  0.00  0.00    +0.056 A 
ATOM      8  C18 <0> A   1     -15.564   5.150  44.690  0.00  0.00    -0.011 A 
ATOM      9  C19 <0> A   1     -14.446   4.465  45.139  0.00  0.00    +0.106 A 
ATOM     10  C20 <0> A   1     -13.712   4.951  46.209  0.00  0.00    -0.010 A 
ATOM     11  C21 <0> A   1     -14.088   6.123  46.831  0.00  0.00    +0.069 A 
ATOM     12  F1  <0> A   1     -14.070   3.320  44.529  0.00  0.00    -0.136 F 
ENDBRANCH   4   6
BRANCH   3  13
ATOM     13  C22 <0> A   1     -17.424   7.105  48.603  0.00  0.00    +0.041 A 
ATOM     14  C23 <0> A   1     -18.736   6.888  48.167  0.00  0.00    -0.031 A 
ATOM     15  C24 <0> A   1     -19.466   5.862  48.728  0.00  0.00    +0.255 A 
ATOM     16  N2  <0> A   1     -18.944   5.091  49.664  0.00  0.00    -0.490 NA
ATOM     17  C25 <0> A   1     -17.712   5.262  50.104  0.00  0.00    +0.255 A 
ATOM     18  C26 <0> A   1     -16.909   6.260  49.593  0.00  0.00    -0.031 A 
ENDBRANCH   3  13
BRANCH   1  20
ATOM     19  C1  <0> A   1     -16.800  12.457  47.795  0.00  0.00    +0.041 C 
ATOM     20  C2  <0> A   1     -15.477  11.698  47.669  0.00  0.00    +0.050 C 
ATOM     21  C3  <0> A   1     -14.589  12.016  48.875  0.00  0.00    +0.033 C 
ENDBRANCH   1  20
BRANCH   5  22
ATOM     22  C8  <0> A   1     -14.118   9.621  45.890  0.00  0.00    +0.201 C 
ATOM     23  C9  <0> A   1     -14.363  10.459  44.901  0.00  0.00    -0.056 C 
BRANCH  23  24
ATOM     24  C10 <0> A   1     -13.280  10.788  43.907  0.00  0.00    +0.268 C 
BRANCH  24  25
ATOM     25  O4  <0> A   1     -12.063  10.152  44.300  0.00  0.00    -0.538 OA
ATOM     26  H21 <0> A   1     -12.178   9.451  44.957  0.00  0.00    +0.370 HD
ENDBRANCH  24  25
BRANCH  24  27
ATOM     27  C11 <0> A   1     -13.691  10.288  42.521  0.00  0.00    -0.015 C 
BRANCH  27  28
ATOM     28  C12 <0> A   1     -13.016  11.144  41.448  0.00  0.00    +0.233 C 
BRANCH  28  29
ATOM     29  O3  <0> A   1     -11.656  10.733  41.296  0.00  0.00    -0.530 OA
ATOM     30  H20 <0> A   1     -11.097  10.937  42.058  0.00  0.00    +0.366 HD
ENDBRANCH  28  29
BRANCH  28  31
ATOM     31  C13 <0> A   1     -13.753  10.971  40.119  0.00  0.00    +0.073 C 
BRANCH  31  32
ATOM     32  C14 <0> A   1     -12.756  10.966  38.988  0.00  0.00    +0.456 C 
ATOM     33  O1  <0> A   1     -12.316  12.010  38.566  0.00  0.00    -0.486 OA
BRANCH  32  34
ATOM     34  O2  <0> A   1     -12.356   9.803  38.451  0.00  0.00    -0.359 OA
ATOM     35  C15 <0> A   1     -12.861   8.605  39.048  0.00  0.00    +0.258 C 
ENDBRANCH  32  34
ENDBRANCH  31  32
ENDBRANCH  28  31
ENDBRANCH  27  28
ENDBRANCH  24  27
ENDBRANCH  23  24
ENDBRANCH   5  22
TORSDOF 12
ENDMDL
MODEL 4
REMARK VINA RESULT:      -7.1      3.332      6.212
REMARK  Name = CHEMBL333904
REMARK  15 active torsions:
REMARK  status: ('A' for Active; 'I' for Inactive)
REMARK    1  A    between atoms: C1_1  and  C2_2
REMARK    2  A    between atoms: C2_2  and  C3_3
REMARK    3  A    between atoms: C2_2  and  C4_4
REMARK    4  A    between atoms: C6_6  and  C22_30
REMARK    5  A    between atoms: C7_7  and  C16_23
REMARK    6  A    between atoms: N1_8  and  C8_9
REMARK    7  A    between atoms: C9_10  and  C10_11
REMARK    8  A    between atoms: C10_11  and  C11_13
REMARK    9  A    between atoms: C10_11  and  O4_22
REMARK   10  A    between atoms: C11_13  and  C12_14
REMARK   11  A    between atoms: C12_14  and  C13_16
REMARK   12  A    between atoms: C12_14  and  O3_21
REMARK   13  A    between atoms: C13_16  and  C14_17
REMARK   14  A    between atoms: C14_17  and  O2_19
REMARK   15  A    between atoms: O2_19  and  C15_20
REMARK                            x       y       z     vdW  Elec       q    Type
REMARK                         _______ _______ _______ _____ _____    ______ ____
ROOT
ATOM      1  C4  <0> A   1     -13.610  10.397  43.053  0.00  0.00    +0.043 C 
ATOM      2  C5  <0> A   1     -13.628  11.517  43.800  0.00  0.00    -0.020 C 
ATOM      3  C6  <0> A   1     -13.451  11.135  45.152  0.00  0.00    -0.112 C 
ATOM      4  C7  <0> A   1     -13.330   9.754  45.167  0.00  0.00    +0.072 C 
ATOM      5  N1  <0> A   1     -13.436   9.317  43.872  0.00  0.00    -0.389 N 
ENDROOT
BRANCH   4   6
ATOM      6  C16 <0> A   1     -13.130   8.909  46.360  0.00  0.00    -0.034 A 
ATOM      7  C17 <0> A   1     -14.232   8.422  47.067  0.00  0.00    +0.056 A 
ATOM      8  C18 <0> A   1     -14.039   7.630  48.180  0.00  0.00    -0.011 A 
ATOM      9  C19 <0> A   1     -12.754   7.319  48.598  0.00  0.00    +0.106 A 
ATOM     10  C20 <0> A   1     -11.657   7.800  47.900  0.00  0.00    -0.010 A 
ATOM     11  C21 <0> A   1     -11.838   8.586  46.783  0.00  0.00    +0.069 A 
ATOM     12  F1  <0> A   1     -12.572   6.544  49.689  0.00  0.00    -0.136 F 
ENDBRANCH   4   6
BRANCH   3  13
ATOM     13  C22 <0> A   1     -13.404  12.037  46.325  0.00  0.00    +0.041 A 
ATOM     14  C23 <0> A   1     -14.557  12.308  47.071  0.00  0.00    -0.031 A 
ATOM     15  C24 <0> A   1     -14.468  13.154  48.156  0.00  0.00    +0.255 A 
ATOM     16  N2  <0> A   1     -13.317  13.705  48.493  0.00  0.00    -0.490 NA
ATOM     17  C25 <0> A   1     -12.207  13.477  47.817  0.00  0.00    +0.255 A 
ATOM     18  C26 <0> A   1     -12.205  12.638  46.722  0.00  0.00    -0.031 A 
ENDBRANCH   3  13
BRANCH   1  20
ATOM     19  C1  <0> A   1     -14.617  11.526  41.087  0.00  0.00    +0.041 C 
ATOM     20  C2  <0> A   1     -13.766  10.343  41.554  0.00  0.00    +0.050 C 
ATOM     21  C3  <0> A   1     -12.387  10.415  40.896  0.00  0.00    +0.033 C 
ENDBRANCH   1  20
BRANCH   5  22
ATOM     22  C8  <0> A   1     -13.371   7.988  43.457  0.00  0.00    +0.201 C 
ATOM     23  C9  <0> A   1     -14.431   7.210  43.562  0.00  0.00    -0.056 C 
BRANCH  23  24
ATOM     24  C10 <0> A   1     -14.360   5.774  43.112  0.00  0.00    +0.268 C 
BRANCH  24  25
ATOM     25  O4  <0> A   1     -12.995   5.356  43.066  0.00  0.00    -0.538 OA
ATOM     26  H21 <0> A   1     -12.531   5.614  42.257  0.00  0.00    +0.370 HD
ENDBRANCH  24  25
BRANCH  24  27
ATOM     27  C11 <0> A   1     -15.128   4.893  44.099  0.00  0.00    -0.015 C 
BRANCH  27  28
ATOM     28  C12 <0> A   1     -16.279   5.694  44.710  0.00  0.00    +0.233 C 
BRANCH  28  29
ATOM     29  O3  <0> A   1     -17.506   5.325  44.078  0.00  0.00    -0.530 OA
ATOM     30  H20 <0> A   1     -18.214   5.975  44.186  0.00  0.00    +0.366 HD
ENDBRANCH  28  29
BRANCH  28  31
ATOM     31  C13 <0> A   1     -16.369   5.398  46.208  0.00  0.00    +0.073 C 
BRANCH  31  32
ATOM     32  C14 <0> A   1     -17.367   6.331  46.846  0.00  0.00    +0.456 C 
ATOM     33  O1  <0> A   1     -18.167   6.921  46.159  0.00  0.00    -0.486 OA
BRANCH  32  34
ATOM     34  O2  <0> A   1     -17.367   6.504  48.177  0.00  0.00    -0.359 OA
ATOM     35  C15 <0> A   1     -17.744   5.381  48.978  0.00  0.00    +0.258 C 
ENDBRANCH  32  34
ENDBRANCH  31  32
ENDBRANCH  28  31
ENDBRANCH  27  28
ENDBRANCH  24  27
ENDBRANCH  23  24
ENDBRANCH   5  22
TORSDOF 12
ENDMDL
MODEL 5
REMARK VINA RESULT:      -7.1     16.991     20.162
REMARK  Name = CHEMBL333904
REMARK  15 active torsions:
REMARK  status: ('A' for Active; 'I' for Inactive)
REMARK    1  A    between atoms: C1_1  and  C2_2
REMARK    2  A    between atoms: C2_2  and  C3_3
REMARK    3  A    between atoms: C2_2  and  C4_4
REMARK    4  A    between atoms: C6_6  and  C22_30
REMARK    5  A    between atoms: C7_7  and  C16_23
REMARK    6  A    between atoms: N1_8  and  C8_9
REMARK    7  A    between atoms: C9_10  and  C10_11
REMARK    8  A    between atoms: C10_11  and  C11_13
REMARK    9  A    between atoms: C10_11  and  O4_22
REMARK   10  A    between atoms: C11_13  and  C12_14
REMARK   11  A    between atoms: C12_14  and  C13_16
REMARK   12  A    between atoms: C12_14  and  O3_21
REMARK   13  A    between atoms: C13_16  and  C14_17
REMARK   14  A    between atoms: C14_17  and  O2_19
REMARK   15  A    between atoms: O2_19  and  C15_20
REMARK                            x       y       z     vdW  Elec       q    Type
REMARK                         _______ _______ _______ _____ _____    ______ ____
ROOT
ATOM      1  C4  <0> A   1     -25.832  -2.902  50.940  0.00  0.00    +0.043 C 
ATOM      2  C5  <0> A   1     -27.057  -3.446  50.813  0.00  0.00    -0.020 C 
ATOM      3  C6  <0> A   1     -26.897  -4.849  50.708  0.00  0.00    -0.112 C 
ATOM      4  C7  <0> A   1     -25.536  -5.104  50.779  0.00  0.00    +0.072 C 
ATOM      5  N1  <0> A   1     -24.897  -3.899  50.915  0.00  0.00    -0.389 N 
ENDROOT
BRANCH   4   6
ATOM      6  C16 <0> A   1     -24.893  -6.431  50.713  0.00  0.00    -0.034 A 
ATOM      7  C17 <0> A   1     -24.654  -7.034  49.476  0.00  0.00    +0.056 A 
ATOM      8  C18 <0> A   1     -24.051  -8.273  49.421  0.00  0.00    -0.011 A 
ATOM      9  C19 <0> A   1     -23.683  -8.921  50.590  0.00  0.00    +0.106 A 
ATOM     10  C20 <0> A   1     -23.918  -8.327  51.820  0.00  0.00    -0.010 A 
ATOM     11  C21 <0> A   1     -24.514  -7.086  51.888  0.00  0.00    +0.069 A 
ATOM     12  F1  <0> A   1     -23.093 -10.134  50.530  0.00  0.00    -0.136 F 
ENDBRANCH   4   6
BRANCH   3  13
ATOM     13  C22 <0> A   1     -27.975  -5.851  50.554  0.00  0.00    +0.041 A 
ATOM     14  C23 <0> A   1     -28.505  -6.149  49.292  0.00  0.00    -0.031 A 
ATOM     15  C24 <0> A   1     -29.508  -7.089  49.194  0.00  0.00    +0.255 A 
ATOM     16  N2  <0> A   1     -29.970  -7.704  50.268  0.00  0.00    -0.490 NA
ATOM     17  C25 <0> A   1     -29.498  -7.452  51.475  0.00  0.00    +0.255 A 
ATOM     18  C26 <0> A   1     -28.489  -6.530  51.663  0.00  0.00    -0.031 A 
ENDBRANCH   3  13
BRANCH   1  20
ATOM     19  C1  <0> A   1     -26.400  -0.642  50.091  0.00  0.00    +0.041 C 
ATOM     20  C2  <0> A   1     -25.538  -1.431  51.080  0.00  0.00    +0.050 C 
ATOM     21  C3  <0> A   1     -25.857  -0.980  52.507  0.00  0.00    +0.033 C 
ENDBRANCH   1  20
BRANCH   5  22
ATOM     22  C8  <0> A   1     -23.518  -3.720  51.017  0.00  0.00    +0.201 C 
ATOM     23  C9  <0> A   1     -22.946  -3.660  52.204  0.00  0.00    -0.056 C 
BRANCH  23  24
ATOM     24  C10 <0> A   1     -21.456  -3.468  52.314  0.00  0.00    +0.268 C 
BRANCH  24  25
ATOM     25  O4  <0> A   1     -20.919  -3.161  51.026  0.00  0.00    -0.538 OA
ATOM     26  H21 <0> A   1     -20.289  -3.815  50.695  0.00  0.00    +0.370 HD
ENDBRANCH  24  25
BRANCH  24  27
ATOM     27  C11 <0> A   1     -21.160  -2.316  53.276  0.00  0.00    -0.015 C 
BRANCH  27  28
ATOM     28  C12 <0> A   1     -20.221  -2.802  54.381  0.00  0.00    +0.233 C 
BRANCH  28  29
ATOM     29  O3  <0> A   1     -20.724  -4.021  54.933  0.00  0.00    -0.530 OA
ATOM     30  H20 <0> A   1     -21.572  -3.925  55.388  0.00  0.00    +0.366 HD
ENDBRANCH  28  29
BRANCH  28  31
ATOM     31  C13 <0> A   1     -18.828  -3.042  53.799  0.00  0.00    +0.073 C 
BRANCH  31  32
ATOM     32  C14 <0> A   1     -18.387  -4.449  54.114  0.00  0.00    +0.456 C 
ATOM     33  O1  <0> A   1     -18.547  -5.328  53.301  0.00  0.00    -0.486 OA
BRANCH  32  34
ATOM     34  O2  <0> A   1     -17.815  -4.724  55.296  0.00  0.00    -0.359 OA
ATOM     35  C15 <0> A   1     -16.919  -3.743  55.828  0.00  0.00    +0.258 C 
ENDBRANCH  32  34
ENDBRANCH  31  32
ENDBRANCH  28  31
ENDBRANCH  27  28
ENDBRANCH  24  27
ENDBRANCH  23  24
ENDBRANCH   5  22
TORSDOF 12
ENDMDL
MODEL 6
REMARK VINA RESULT:      -7.0     16.888     20.268
REMARK  Name = CHEMBL333904
REMARK  15 active torsions:
REMARK  status: ('A' for Active; 'I' for Inactive)
REMARK    1  A    between atoms: C1_1  and  C2_2
REMARK    2  A    between atoms: C2_2  and  C3_3
REMARK    3  A    between atoms: C2_2  and  C4_4
REMARK    4  A    between atoms: C6_6  and  C22_30
REMARK    5  A    between atoms: C7_7  and  C16_23
REMARK    6  A    between atoms: N1_8  and  C8_9
REMARK    7  A    between atoms: C9_10  and  C10_11
REMARK    8  A    between atoms: C10_11  and  C11_13
REMARK    9  A    between atoms: C10_11  and  O4_22
REMARK   10  A    between atoms: C11_13  and  C12_14
REMARK   11  A    between atoms: C12_14  and  C13_16
REMARK   12  A    between atoms: C12_14  and  O3_21
REMARK   13  A    between atoms: C13_16  and  C14_17
REMARK   14  A    between atoms: C14_17  and  O2_19
REMARK   15  A    between atoms: O2_19  and  C15_20
REMARK                            x       y       z     vdW  Elec       q    Type
REMARK                         _______ _______ _______ _____ _____    ______ ____
ROOT
ATOM      1  C4  <0> A   1     -28.238  -4.653  52.436  0.00  0.00    +0.043 C 
ATOM      2  C5  <0> A   1     -28.925  -3.529  52.715  0.00  0.00    -0.020 C 
ATOM      3  C6  <0> A   1     -28.042  -2.433  52.556  0.00  0.00    -0.112 C 
ATOM      4  C7  <0> A   1     -26.817  -2.958  52.174  0.00  0.00    +0.072 C 
ATOM      5  N1  <0> A   1     -26.952  -4.321  52.111  0.00  0.00    -0.389 N 
ENDROOT
BRANCH   4   6
ATOM      6  C16 <0> A   1     -25.588  -2.189  51.893  0.00  0.00    -0.034 A 
ATOM      7  C17 <0> A   1     -25.322  -1.742  50.597  0.00  0.00    +0.056 A 
ATOM      8  C18 <0> A   1     -24.174  -1.023  50.340  0.00  0.00    -0.011 A 
ATOM      9  C19 <0> A   1     -23.284  -0.744  51.366  0.00  0.00    +0.106 A 
ATOM     10  C20 <0> A   1     -23.543  -1.184  52.654  0.00  0.00    -0.010 A 
ATOM     11  C21 <0> A   1     -24.691  -1.898  52.923  0.00  0.00    +0.069 A 
ATOM     12  F1  <0> A   1     -22.161  -0.039  51.108  0.00  0.00    -0.136 F 
ENDBRANCH   4   6
BRANCH   3  13
ATOM     13  C22 <0> A   1     -28.365  -1.003  52.757  0.00  0.00    +0.041 A 
ATOM     14  C23 <0> A   1     -28.182  -0.394  54.004  0.00  0.00    -0.031 A 
ATOM     15  C24 <0> A   1     -28.496   0.941  54.147  0.00  0.00    +0.255 A 
ATOM     16  N2  <0> A   1     -28.963   1.641  53.130  0.00  0.00    -0.490 NA
ATOM     17  C25 <0> A   1     -29.150   1.105  51.939  0.00  0.00    +0.255 A 
ATOM     18  C26 <0> A   1     -28.856  -0.222  51.706  0.00  0.00    -0.031 A 
ENDBRANCH   3  13
BRANCH   1  20
ATOM     19  C1  <0> A   1     -29.053  -6.451  53.937  0.00  0.00    +0.041 C 
ATOM     20  C2  <0> A   1     -28.794  -6.053  52.482  0.00  0.00    +0.050 C 
ATOM     21  C3  <0> A   1     -30.107  -6.105  51.697  0.00  0.00    +0.033 C 
ENDBRANCH   1  20
BRANCH   5  22
ATOM     22  C8  <0> A   1     -25.945  -5.220  51.766  0.00  0.00    +0.201 C 
ATOM     23  C9  <0> A   1     -25.779  -5.575  50.506  0.00  0.00    -0.056 C 
BRANCH  23  24
ATOM     24  C10 <0> A   1     -24.690  -6.547  50.133  0.00  0.00    +0.268 C 
BRANCH  24  25
ATOM     25  O4  <0> A   1     -23.843  -6.769  51.263  0.00  0.00    -0.538 OA
ATOM     26  H21 <0> A   1     -22.903  -6.629  51.085  0.00  0.00    +0.370 HD
ENDBRANCH  24  25
BRANCH  24  27
ATOM     27  C11 <0> A   1     -25.316  -7.873  49.699  0.00  0.00    -0.015 C 
BRANCH  27  28
ATOM     28  C12 <0> A   1     -24.381  -8.582  48.718  0.00  0.00    +0.233 C 
BRANCH  28  29
ATOM     29  O3  <0> A   1     -23.255  -7.746  48.443  0.00  0.00    -0.530 OA
ATOM     30  H20 <0> A   1     -23.317  -7.268  47.605  0.00  0.00    +0.366 HD
ENDBRANCH  28  29
BRANCH  28  31
ATOM     31  C13 <0> A   1     -23.901  -9.898  49.332  0.00  0.00    +0.073 C 
BRANCH  31  32
ATOM     32  C14 <0> A   1     -24.895 -10.988  49.025  0.00  0.00    +0.456 C 
ATOM     33  O1  <0> A   1     -25.509 -10.971  47.984  0.00  0.00    -0.486 OA
BRANCH  32  34
ATOM     34  O2  <0> A   1     -25.097 -11.980  49.908  0.00  0.00    -0.359 OA
ATOM     35  C15 <0> A   1     -24.665 -11.750  51.251  0.00  0.00    +0.258 C 
ENDBRANCH  32  34
ENDBRANCH  31  32
ENDBRANCH  28  31
ENDBRANCH  27  28
ENDBRANCH  24  27
ENDBRANCH  23  24
ENDBRANCH   5  22
TORSDOF 12
ENDMDL
MODEL 7
REMARK VINA RESULT:      -7.0      1.696      2.204
REMARK  Name = CHEMBL333904
REMARK  15 active torsions:
REMARK  status: ('A' for Active; 'I' for Inactive)
REMARK    1  A    between atoms: C1_1  and  C2_2
REMARK    2  A    between atoms: C2_2  and  C3_3
REMARK    3  A    between atoms: C2_2  and  C4_4
REMARK    4  A    between atoms: C6_6  and  C22_30
REMARK    5  A    between atoms: C7_7  and  C16_23
REMARK    6  A    between atoms: N1_8  and  C8_9
REMARK    7  A    between atoms: C9_10  and  C10_11
REMARK    8  A    between atoms: C10_11  and  C11_13
REMARK    9  A    between atoms: C10_11  and  O4_22
REMARK   10  A    between atoms: C11_13  and  C12_14
REMARK   11  A    between atoms: C12_14  and  C13_16
REMARK   12  A    between atoms: C12_14  and  O3_21
REMARK   13  A    between atoms: C13_16  and  C14_17
REMARK   14  A    between atoms: C14_17  and  O2_19
REMARK   15  A    between atoms: O2_19  and  C15_20
REMARK                            x       y       z     vdW  Elec       q    Type
REMARK                         _______ _______ _______ _____ _____    ______ ____
ROOT
ATOM      1  C4  <0> A   1     -15.297   6.235  45.611  0.00  0.00    +0.043 C 
ATOM      2  C5  <0> A   1     -16.056   6.071  46.711  0.00  0.00    -0.020 C 
ATOM      3  C6  <0> A   1     -15.997   7.271  47.459  0.00  0.00    -0.112 C 
ATOM      4  C7  <0> A   1     -15.177   8.142  46.757  0.00  0.00    +0.072 C 
ATOM      5  N1  <0> A   1     -14.752   7.489  45.629  0.00  0.00    -0.389 N 
ENDROOT
BRANCH   4   6
ATOM      6  C16 <0> A   1     -14.823   9.519  47.155  0.00  0.00    -0.034 A 
ATOM      7  C17 <0> A   1     -13.658   9.759  47.886  0.00  0.00    +0.056 A 
ATOM      8  C18 <0> A   1     -13.331  11.048  48.253  0.00  0.00    -0.011 A 
ATOM      9  C19 <0> A   1     -14.158  12.103  47.898  0.00  0.00    +0.106 A 
ATOM     10  C20 <0> A   1     -15.315  11.870  47.172  0.00  0.00    -0.010 A 
ATOM     11  C21 <0> A   1     -15.648  10.587  46.795  0.00  0.00    +0.069 A 
ATOM     12  F1  <0> A   1     -13.832  13.363  48.261  0.00  0.00    -0.136 F 
ENDBRANCH   4   6
BRANCH   3  13
ATOM     13  C22 <0> A   1     -16.679   7.546  48.743  0.00  0.00    +0.041 A 
ATOM     14  C23 <0> A   1     -15.952   7.664  49.933  0.00  0.00    -0.031 A 
ATOM     15  C24 <0> A   1     -16.628   7.920  51.107  0.00  0.00    +0.255 A 
ATOM     16  N2  <0> A   1     -17.942   8.052  51.118  0.00  0.00    -0.490 NA
ATOM     17  C25 <0> A   1     -18.665   7.947  50.019  0.00  0.00    +0.255 A 
ATOM     18  C26 <0> A   1     -18.069   7.698  48.800  0.00  0.00    -0.031 A 
ENDBRANCH   3  13
BRANCH   1  20
ATOM     19  C1  <0> A   1     -14.202   4.073  45.086  0.00  0.00    +0.041 C 
ATOM     20  C2  <0> A   1     -15.077   5.201  44.537  0.00  0.00    +0.050 C 
ATOM     21  C3  <0> A   1     -16.427   4.631  44.095  0.00  0.00    +0.033 C 
ENDBRANCH   1  20
BRANCH   5  22
ATOM     22  C8  <0> A   1     -13.905   8.018  44.656  0.00  0.00    +0.201 C 
ATOM     23  C9  <0> A   1     -12.612   7.765  44.697  0.00  0.00    -0.056 C 
BRANCH  23  24
ATOM     24  C10 <0> A   1     -11.697   8.337  43.644  0.00  0.00    +0.268 C 
BRANCH  24  25
ATOM     25  O4  <0> A   1     -10.532   7.518  43.531  0.00  0.00    -0.538 OA
ATOM     26  H21 <0> A   1     -10.499   6.788  44.165  0.00  0.00    +0.370 HD
ENDBRANCH  24  25
BRANCH  24  27
ATOM     27  C11 <0> A   1     -12.427   8.372  42.300  0.00  0.00    -0.015 C 
BRANCH  27  28
ATOM     28  C12 <0> A   1     -12.740   9.822  41.928  0.00  0.00    +0.233 C 
BRANCH  28  29
ATOM     29  O3  <0> A   1     -11.556  10.456  41.442  0.00  0.00    -0.530 OA
ATOM     30  H20 <0> A   1     -10.850  10.526  42.100  0.00  0.00    +0.366 HD
ENDBRANCH  28  29
BRANCH  28  31
ATOM     31  C13 <0> A   1     -13.815   9.849  40.840  0.00  0.00    +0.073 C 
BRANCH  31  32
ATOM     32  C14 <0> A   1     -13.329  10.669  39.673  0.00  0.00    +0.456 C 
ATOM     33  O1  <0> A   1     -13.664  11.825  39.565  0.00  0.00    -0.486 OA
BRANCH  32  34
ATOM     34  O2  <0> A   1     -12.523  10.115  38.753  0.00  0.00    -0.359 OA
ATOM     35  C15 <0> A   1     -12.553   8.690  38.638  0.00  0.00    +0.258 C 
ENDBRANCH  32  34
ENDBRANCH  31  32
ENDBRANCH  28  31
ENDBRANCH  27  28
ENDBRANCH  24  27
ENDBRANCH  23  24
ENDBRANCH   5  22
TORSDOF 12
ENDMDL
MODEL 8
REMARK VINA RESULT:      -7.0      4.709      7.964
REMARK  Name = CHEMBL333904
REMARK  15 active torsions:
REMARK  status: ('A' for Active; 'I' for Inactive)
REMARK    1  A    between atoms: C1_1  and  C2_2
REMARK    2  A    between atoms: C2_2  and  C3_3
REMARK    3  A    between atoms: C2_2  and  C4_4
REMARK    4  A    between atoms: C6_6  and  C22_30
REMARK    5  A    between atoms: C7_7  and  C16_23
REMARK    6  A    between atoms: N1_8  and  C8_9
REMARK    7  A    between atoms: C9_10  and  C10_11
REMARK    8  A    between atoms: C10_11  and  C11_13
REMARK    9  A    between atoms: C10_11  and  O4_22
REMARK   10  A    between atoms: C11_13  and  C12_14
REMARK   11  A    between atoms: C12_14  and  C13_16
REMARK   12  A    between atoms: C12_14  and  O3_21
REMARK   13  A    between atoms: C13_16  and  C14_17
REMARK   14  A    between atoms: C14_17  and  O2_19
REMARK   15  A    between atoms: O2_19  and  C15_20
REMARK                            x       y       z     vdW  Elec       q    Type
REMARK                         _______ _______ _______ _____ _____    ______ ____
ROOT
ATOM      1  C4  <0> A   1     -14.833   6.503  45.307  0.00  0.00    +0.043 C 
ATOM      2  C5  <0> A   1     -14.361   7.027  44.160  0.00  0.00    -0.020 C 
ATOM      3  C6  <0> A   1     -14.022   8.379  44.411  0.00  0.00    -0.112 C 
ATOM      4  C7  <0> A   1     -14.312   8.625  45.744  0.00  0.00    +0.072 C 
ATOM      5  N1  <0> A   1     -14.814   7.466  46.277  0.00  0.00    -0.389 N 
ENDROOT
BRANCH   4   6
ATOM      6  C16 <0> A   1     -14.121   9.903  46.457  0.00  0.00    -0.034 A 
ATOM      7  C17 <0> A   1     -15.189  10.791  46.603  0.00  0.00    +0.056 A 
ATOM      8  C18 <0> A   1     -15.006  11.983  47.272  0.00  0.00    -0.011 A 
ATOM      9  C19 <0> A   1     -13.763  12.301  47.799  0.00  0.00    +0.106 A 
ATOM     10  C20 <0> A   1     -12.700  11.423  47.657  0.00  0.00    -0.010 A 
ATOM     11  C21 <0> A   1     -12.874  10.226  46.996  0.00  0.00    +0.069 A 
ATOM     12  F1  <0> A   1     -13.589  13.470  48.452  0.00  0.00    -0.136 F 
ENDBRANCH   4   6
BRANCH   3  13
ATOM     13  C22 <0> A   1     -13.464   9.344  43.438  0.00  0.00    +0.041 A 
ATOM     14  C23 <0> A   1     -12.397   8.990  42.604  0.00  0.00    -0.031 A 
ATOM     15  C24 <0> A   1     -11.909   9.921  41.712  0.00  0.00    +0.255 A 
ATOM     16  N2  <0> A   1     -12.433  11.131  41.639  0.00  0.00    -0.490 NA
ATOM     17  C25 <0> A   1     -13.439  11.505  42.407  0.00  0.00    +0.255 A 
ATOM     18  C26 <0> A   1     -13.993  10.635  43.322  0.00  0.00    -0.031 A 
ENDBRANCH   3  13
BRANCH   1  20
ATOM     19  C1  <0> A   1     -16.341   4.752  44.408  0.00  0.00    +0.041 C 
ATOM     20  C2  <0> A   1     -15.312   5.086  45.489  0.00  0.00    +0.050 C 
ATOM     21  C3  <0> A   1     -14.123   4.128  45.376  0.00  0.00    +0.033 C 
ENDBRANCH   1  20
BRANCH   5  22
ATOM     22  C8  <0> A   1     -15.232   7.294  47.596  0.00  0.00    +0.201 C 
ATOM     23  C9  <0> A   1     -16.496   7.488  47.919  0.00  0.00    -0.056 C 
BRANCH  23  24
ATOM     24  C10 <0> A   1     -16.948   7.302  49.345  0.00  0.00    +0.268 C 
BRANCH  24  25
ATOM     25  O4  <0> A   1     -16.027   7.951  50.224  0.00  0.00    -0.538 OA
ATOM     26  H21 <0> A   1     -15.157   7.531  50.263  0.00  0.00    +0.370 HD
ENDBRANCH  24  25
BRANCH  24  27
ATOM     27  C11 <0> A   1     -18.338   7.913  49.522  0.00  0.00    -0.015 C 
BRANCH  27  28
ATOM     28  C12 <0> A   1     -19.250   6.911  50.232  0.00  0.00    +0.233 C 
BRANCH  28  29
ATOM     29  O3  <0> A   1     -20.594   7.397  50.220  0.00  0.00    -0.530 OA
ATOM     30  H20 <0> A   1     -20.681   8.302  49.892  0.00  0.00    +0.366 HD
ENDBRANCH  28  29
BRANCH  28  31
ATOM     31  C13 <0> A   1     -19.188   5.564  49.511  0.00  0.00    +0.073 C 
BRANCH  31  32
ATOM     32  C14 <0> A   1     -20.508   5.294  48.835  0.00  0.00    +0.456 C 
ATOM     33  O1  <0> A   1     -20.774   5.837  47.789  0.00  0.00    -0.486 OA
BRANCH  32  34
ATOM     34  O2  <0> A   1     -21.389   4.450  49.396  0.00  0.00    -0.359 OA
ATOM     35  C15 <0> A   1     -20.853   3.379  50.178  0.00  0.00    +0.258 C 
ENDBRANCH  32  34
ENDBRANCH  31  32
ENDBRANCH  28  31
ENDBRANCH  27  28
ENDBRANCH  24  27
ENDBRANCH  23  24
ENDBRANCH   5  22
TORSDOF 12
ENDMDL
MODEL 9
REMARK VINA RESULT:      -7.0     16.529     19.943
REMARK  Name = CHEMBL333904
REMARK  15 active torsions:
REMARK  status: ('A' for Active; 'I' for Inactive)
REMARK    1  A    between atoms: C1_1  and  C2_2
REMARK    2  A    between atoms: C2_2  and  C3_3
REMARK    3  A    between atoms: C2_2  and  C4_4
REMARK    4  A    between atoms: C6_6  and  C22_30
REMARK    5  A    between atoms: C7_7  and  C16_23
REMARK    6  A    between atoms: N1_8  and  C8_9
REMARK    7  A    between atoms: C9_10  and  C10_11
REMARK    8  A    between atoms: C10_11  and  C11_13
REMARK    9  A    between atoms: C10_11  and  O4_22
REMARK   10  A    between atoms: C11_13  and  C12_14
REMARK   11  A    between atoms: C12_14  and  C13_16
REMARK   12  A    between atoms: C12_14  and  O3_21
REMARK   13  A    between atoms: C13_16  and  C14_17
REMARK   14  A    between atoms: C14_17  and  O2_19
REMARK   15  A    between atoms: O2_19  and  C15_20
REMARK                            x       y       z     vdW  Elec       q    Type
REMARK                         _______ _______ _______ _____ _____    ______ ____
ROOT
ATOM      1  C4  <0> A   1     -27.895  -4.204  50.140  0.00  0.00    +0.043 C 
ATOM      2  C5  <0> A   1     -28.502  -3.031  50.401  0.00  0.00    -0.020 C 
ATOM      3  C6  <0> A   1     -27.522  -2.139  50.898  0.00  0.00    -0.112 C 
ATOM      4  C7  <0> A   1     -26.321  -2.833  50.918  0.00  0.00    +0.072 C 
ATOM      5  N1  <0> A   1     -26.569  -4.100  50.455  0.00  0.00    -0.389 N 
ENDROOT
BRANCH   4   6
ATOM      6  C16 <0> A   1     -25.016  -2.305  51.362  0.00  0.00    -0.034 A 
ATOM      7  C17 <0> A   1     -24.094  -1.837  50.424  0.00  0.00    +0.056 A 
ATOM      8  C18 <0> A   1     -22.876  -1.344  50.844  0.00  0.00    -0.011 A 
ATOM      9  C19 <0> A   1     -22.567  -1.314  52.196  0.00  0.00    +0.106 A 
ATOM     10  C20 <0> A   1     -23.479  -1.777  53.131  0.00  0.00    -0.010 A 
ATOM     11  C21 <0> A   1     -24.702  -2.266  52.722  0.00  0.00    +0.069 A 
ATOM     12  F1  <0> A   1     -21.373  -0.830  52.602  0.00  0.00    -0.136 F 
ENDBRANCH   4   6
BRANCH   3  13
ATOM     13  C22 <0> A   1     -27.735  -0.736  51.316  0.00  0.00    +0.041 A 
ATOM     14  C23 <0> A   1     -28.220  -0.432  52.594  0.00  0.00    -0.031 A 
ATOM     15  C24 <0> A   1     -28.404   0.889  52.942  0.00  0.00    +0.255 A 
ATOM     16  N2  <0> A   1     -28.132   1.860  52.089  0.00  0.00    -0.490 NA
ATOM     17  C25 <0> A   1     -27.675   1.616  50.875  0.00  0.00    +0.255 A 
ATOM     18  C26 <0> A   1     -27.455   0.324  50.447  0.00  0.00    -0.031 A 
ENDBRANCH   3  13
BRANCH   1  20
ATOM     19  C1  <0> A   1     -29.057  -6.307  50.756  0.00  0.00    +0.041 C 
ATOM     20  C2  <0> A   1     -28.570  -5.437  49.595  0.00  0.00    +0.050 C 
ATOM     21  C3  <0> A   1     -29.764  -5.024  48.731  0.00  0.00    +0.033 C 
ENDBRANCH   1  20
BRANCH   5  22
ATOM     22  C8  <0> A   1     -25.622  -5.114  50.322  0.00  0.00    +0.201 C 
ATOM     23  C9  <0> A   1     -25.353  -5.904  51.343  0.00  0.00    -0.056 C 
BRANCH  23  24
ATOM     24  C10 <0> A   1     -24.331  -7.002  51.199  0.00  0.00    +0.268 C 
BRANCH  24  25
ATOM     25  O4  <0> A   1     -23.704  -7.236  52.462  0.00  0.00    -0.538 OA
ATOM     26  H21 <0> A   1     -24.229  -7.775  53.069  0.00  0.00    +0.370 HD
ENDBRANCH  24  25
BRANCH  24  27
ATOM     27  C11 <0> A   1     -25.021  -8.283  50.728  0.00  0.00    -0.015 C 
BRANCH  27  28
ATOM     28  C12 <0> A   1     -24.379  -8.758  49.424  0.00  0.00    +0.233 C 
BRANCH  28  29
ATOM     29  O3  <0> A   1     -23.598  -7.701  48.863  0.00  0.00    -0.530 OA
ATOM     30  H20 <0> A   1     -24.110  -7.073  48.335  0.00  0.00    +0.366 HD
ENDBRANCH  28  29
BRANCH  28  31
ATOM     31  C13 <0> A   1     -23.479  -9.962  49.706  0.00  0.00    +0.073 C 
BRANCH  31  32
ATOM     32  C14 <0> A   1     -24.193 -11.228  49.306  0.00  0.00    +0.456 C 
ATOM     33  O1  <0> A   1     -23.846 -11.830  48.317  0.00  0.00    -0.486 OA
BRANCH  32  34
ATOM     34  O2  <0> A   1     -25.212 -11.688  50.049  0.00  0.00    -0.359 OA
ATOM     35  C15 <0> A   1     -24.918 -12.048  51.401  0.00  0.00    +0.258 C 
ENDBRANCH  32  34
ENDBRANCH  31  32
ENDBRANCH  28  31
ENDBRANCH  27  28
ENDBRANCH  24  27
ENDBRANCH  23  24
ENDBRANCH   5  22
TORSDOF 12
ENDMDL
MODEL 10
REMARK VINA RESULT:      -7.0      1.371      2.131
REMARK  Name = CHEMBL333904
REMARK  15 active torsions:
REMARK  status: ('A' for Active; 'I' for Inactive)
REMARK    1  A    between atoms: C1_1  and  C2_2
REMARK    2  A    between atoms: C2_2  and  C3_3
REMARK    3  A    between atoms: C2_2  and  C4_4
REMARK    4  A    between atoms: C6_6  and  C22_30
REMARK    5  A    between atoms: C7_7  and  C16_23
REMARK    6  A    between atoms: N1_8  and  C8_9
REMARK    7  A    between atoms: C9_10  and  C10_11
REMARK    8  A    between atoms: C10_11  and  C11_13
REMARK    9  A    between atoms: C10_11  and  O4_22
REMARK   10  A    between atoms: C11_13  and  C12_14
REMARK   11  A    between atoms: C12_14  and  C13_16
REMARK   12  A    between atoms: C12_14  and  O3_21
REMARK   13  A    between atoms: C13_16  and  C14_17
REMARK   14  A    between atoms: C14_17  and  O2_19
REMARK   15  A    between atoms: O2_19  and  C15_20
REMARK                            x       y       z     vdW  Elec       q    Type
REMARK                         _______ _______ _______ _____ _____    ______ ____
ROOT
ATOM      1  C4  <0> A   1     -15.267   6.116  46.293  0.00  0.00    +0.043 C 
ATOM      2  C5  <0> A   1     -15.811   6.549  47.446  0.00  0.00    -0.020 C 
ATOM      3  C6  <0> A   1     -15.328   7.859  47.684  0.00  0.00    -0.112 C 
ATOM      4  C7  <0> A   1     -14.484   8.173  46.630  0.00  0.00    +0.072 C 
ATOM      5  N1  <0> A   1     -14.453   7.091  45.789  0.00  0.00    -0.389 N 
ENDROOT
BRANCH   4   6
ATOM      6  C16 <0> A   1     -13.748   9.440  46.449  0.00  0.00    -0.034 A 
ATOM      7  C17 <0> A   1     -14.422  10.589  46.028  0.00  0.00    +0.056 A 
ATOM      8  C18 <0> A   1     -13.730  11.770  45.863  0.00  0.00    -0.011 A 
ATOM      9  C19 <0> A   1     -12.367  11.818  46.113  0.00  0.00    +0.106 A 
ATOM     10  C20 <0> A   1     -11.693  10.682  46.531  0.00  0.00    -0.010 A 
ATOM     11  C21 <0> A   1     -12.376   9.497  46.705  0.00  0.00    +0.069 A 
ATOM     12  F1  <0> A   1     -11.694  12.978  45.949  0.00  0.00    -0.136 F 
ENDBRANCH   4   6
BRANCH   3  13
ATOM     13  C22 <0> A   1     -15.660   8.726  48.836  0.00  0.00    +0.041 A 
ATOM     14  C23 <0> A   1     -16.856   9.453  48.867  0.00  0.00    -0.031 A 
ATOM     15  C24 <0> A   1     -17.125  10.249  49.960  0.00  0.00    +0.255 A 
ATOM     16  N2  <0> A   1     -16.274  10.331  50.966  0.00  0.00    -0.490 NA
ATOM     17  C25 <0> A   1     -15.136   9.663  50.976  0.00  0.00    +0.255 A 
ATOM     18  C26 <0> A   1     -14.790   8.838  49.926  0.00  0.00    -0.031 A 
ENDBRANCH   3  13
BRANCH   1  20
ATOM     19  C1  <0> A   1     -16.290   4.947  44.359  0.00  0.00    +0.041 C 
ATOM     20  C2  <0> A   1     -15.511   4.768  45.664  0.00  0.00    +0.050 C 
ATOM     21  C3  <0> A   1     -14.169   4.093  45.368  0.00  0.00    +0.033 C 
ENDBRANCH   1  20
BRANCH   5  22
ATOM     22  C8  <0> A   1     -13.717   7.002  44.608  0.00  0.00    +0.201 C 
ATOM     23  C9  <0> A   1     -14.040   7.748  43.570  0.00  0.00    -0.056 C 
BRANCH  23  24
ATOM     24  C10 <0> A   1     -13.243   7.653  42.295  0.00  0.00    +0.268 C 
BRANCH  24  25
ATOM     25  O4  <0> A   1     -13.804   6.640  41.458  0.00  0.00    -0.538 OA
ATOM     26  H21 <0> A   1     -13.954   5.796  41.905  0.00  0.00    +0.370 HD
ENDBRANCH  24  25
BRANCH  24  27
ATOM     27  C11 <0> A   1     -13.285   8.997  41.566  0.00  0.00    -0.015 C 
BRANCH  27  28
ATOM     28  C12 <0> A   1     -13.312  10.133  42.591  0.00  0.00    +0.233 C 
BRANCH  28  29
ATOM     29  O3  <0> A   1     -12.022  10.742  42.661  0.00  0.00    -0.530 OA
ATOM     30  H20 <0> A   1     -11.604  10.876  41.799  0.00  0.00    +0.366 HD
ENDBRANCH  28  29
BRANCH  28  31
ATOM     31  C13 <0> A   1     -14.347  11.177  42.169  0.00  0.00    +0.073 C 
BRANCH  31  32
ATOM     32  C14 <0> A   1     -14.191  11.475  40.700  0.00  0.00    +0.456 C 
ATOM     33  O1  <0> A   1     -15.141  11.379  39.960  0.00  0.00    -0.486 OA
BRANCH  32  34
ATOM     34  O2  <0> A   1     -12.997  11.849  40.215  0.00  0.00    -0.359 OA
ATOM     35  C15 <0> A   1     -12.608  11.298  38.954  0.00  0.00    +0.258 C 
ENDBRANCH  32  34
ENDBRANCH  31  32
ENDBRANCH  28  31
ENDBRANCH  27  28
ENDBRANCH  24  27
ENDBRANCH  23  24
ENDBRANCH   5  22
TORSDOF 12
ENDMDL
