REMARK VINA RESULT:      -7.8      2.889      6.422
REMARK  Name = CHEMBL120949
REMARK  9 active torsions:
REMARK  status: ('A' for Active; 'I' for Inactive)
REMARK    1  A    between atoms: C1_1  and  C2_2
REMARK    2  A    between atoms: C2_2  and  C3_3
REMARK    3  A    between atoms: C2_2  and  C4_4
REMARK    4  A    between atoms: C6_6  and  C21_28
REMARK    5  A    between atoms: C7_7  and  C15_21
REMARK    6  A    between atoms: N1_8  and  C8_9
REMARK    7  A    between atoms: C8_9  and  C9_10
REMARK    8  A    between atoms: C9_10  and  C10_11
REMARK    9  A    between atoms: C12_14  and  O3_20
REMARK                            x       y       z     vdW  Elec       q    Type
REMARK                         _______ _______ _______ _____ _____    ______ ____
ROOT
ATOM      1  C4  <0> A   1     -12.748  10.217  46.006  0.00  0.00    +0.044 C 
ATOM      2  C5  <0> A   1     -12.359  10.152  44.719  0.00  0.00    -0.033 C 
ATOM      3  C6  <0> A   1     -12.851   8.938  44.182  0.00  0.00    -0.106 C 
ATOM      4  C7  <0> A   1     -13.539   8.299  45.200  0.00  0.00    +0.064 C 
ATOM      5  N1  <0> A   1     -13.461   9.095  46.313  0.00  0.00    -0.427 N 
ENDROOT
BRANCH   4   6
ATOM      6  C15 <0> A   1     -14.225   6.995  45.106  0.00  0.00    -0.028 A 
ATOM      7  C16 <0> A   1     -15.309   6.835  44.242  0.00  0.00    +0.043 A 
ATOM      8  C17 <0> A   1     -15.946   5.614  44.157  0.00  0.00    -0.008 A 
ATOM      9  C18 <0> A   1     -15.510   4.547  44.927  0.00  0.00    +0.104 A 
ATOM     10  C19 <0> A   1     -14.433   4.701  45.786  0.00  0.00    -0.007 A 
ATOM     11  C20 <0> A   1     -13.786   5.915  45.875  0.00  0.00    +0.068 A 
ATOM     12  F1  <0> A   1     -16.137   3.354  44.840  0.00  0.00    -0.137 F 
ENDBRANCH   4   6
BRANCH   3  13
ATOM     13  C21 <0> A   1     -12.666   8.445  42.797  0.00  0.00    -0.053 A 
ATOM     14  C22 <0> A   1     -13.241   9.126  41.717  0.00  0.00    +0.065 A 
ATOM     15  C23 <0> A   1     -13.039   8.625  40.443  0.00  0.00    -0.035 A 
ATOM     16  C24 <0> A   1     -12.282   7.479  40.279  0.00  0.00    +0.243 A 
ATOM     17  N2  <0> A   1     -11.753   6.858  41.316  0.00  0.00    -0.481 NA
ATOM     18  C25 <0> A   1     -11.912   7.300  42.546  0.00  0.00    +0.260 A 
ENDBRANCH   3  13
BRANCH   1  20
ATOM     19  C1  <0> A   1     -11.117  11.061  47.672  0.00  0.00    +0.040 C 
ATOM     20  C2  <0> A   1     -12.440  11.345  46.957  0.00  0.00    +0.048 C 
ATOM     21  C3  <0> A   1     -12.327  12.655  46.175  0.00  0.00    +0.032 C 
ENDBRANCH   1  20
BRANCH   5  22
ATOM     22  C8  <0> A   1     -14.050   8.791  47.620  0.00  0.00    +0.292 C 
BRANCH  22  23
ATOM     23  C9  <0> A   1     -15.441   9.421  47.710  0.00  0.00    +0.052 C 
BRANCH  23  24
ATOM     24  C10 <0> A   1     -16.460   8.351  48.106  0.00  0.00    +0.203 C 
ATOM     25  C11 <0> A   1     -15.746   7.207  48.833  0.00  0.00    +0.045 C 
ATOM     26  C12 <0> A   1     -16.763   6.119  49.191  0.00  0.00    +0.186 C 
ATOM     27  C13 <0> A   1     -17.413   5.604  47.901  0.00  0.00    +0.024 C 
ATOM     28  C14 <0> A   1     -17.930   6.794  47.122  0.00  0.00    +0.497 C 
ATOM     29  O1  <0> A   1     -19.056   6.809  46.683  0.00  0.00    -0.449 OA
ATOM     30  O2  <0> A   1     -17.097   7.839  46.930  0.00  0.00    -0.370 OA
BRANCH  26  31
ATOM     31  O3  <0> A   1     -17.766   6.665  50.050  0.00  0.00    -0.564 OA
ATOM     32  H19 <0> A   1     -18.512   7.063  49.580  0.00  0.00    +0.388 HD
ENDBRANCH  26  31
ENDBRANCH  23  24
ENDBRANCH  22  23
ENDBRANCH   5  22
TORSDOF 7
