REMARK VINA RESULT:      -8.1     17.647     21.238
REMARK  Name = CHEMBL333687
REMARK  11 active torsions:
REMARK  status: ('A' for Active; 'I' for Inactive)
REMARK    1  A    between atoms: C1_1  and  C2_2
REMARK    2  A    between atoms: C2_2  and  C3_3
REMARK    3  A    between atoms: C2_2  and  C4_4
REMARK    4  A    between atoms: C5_5  and  C27_34
REMARK    5  A    between atoms: C6_6  and  C21_28
REMARK    6  A    between atoms: C7_7  and  C15_21
REMARK    7  A    between atoms: N1_8  and  C8_9
REMARK    8  A    between atoms: C8_9  and  C9_10
REMARK    9  A    between atoms: C9_10  and  C10_11
REMARK   10  A    between atoms: C12_14  and  O3_20
REMARK   11  A    between atoms: N2_36  and  C28_37
REMARK                            x       y       z     vdW  Elec       q    Type
REMARK                         _______ _______ _______ _____ _____    ______ ____
ROOT
ATOM      1  C4  <0> A   1     -28.496  -4.180  52.053  0.00  0.00    +0.099 C 
ATOM      2  C5  <0> A   1     -27.146  -4.389  52.031  0.00  0.00    -0.208 C 
ATOM      3  C6  <0> A   1     -26.522  -3.060  51.928  0.00  0.00    -0.067 C 
ATOM      4  C7  <0> A   1     -27.566  -2.156  51.896  0.00  0.00    +0.066 C 
ATOM      5  N1  <0> A   1     -28.741  -2.858  51.968  0.00  0.00    -0.421 N 
ENDROOT
BRANCH   4   6
ATOM      6  C15 <0> A   1     -27.438  -0.688  51.798  0.00  0.00    -0.032 A 
ATOM      7  C16 <0> A   1     -27.256   0.078  52.952  0.00  0.00    +0.049 A 
ATOM      8  C17 <0> A   1     -27.137   1.449  52.854  0.00  0.00    -0.012 A 
ATOM      9  C18 <0> A   1     -27.197   2.065  51.615  0.00  0.00    +0.107 A 
ATOM     10  C19 <0> A   1     -27.377   1.311  50.466  0.00  0.00    -0.009 A 
ATOM     11  C20 <0> A   1     -27.493  -0.062  50.552  0.00  0.00    +0.078 A 
ATOM     12  F1  <0> A   1     -27.080   3.409  51.525  0.00  0.00    -0.137 F 
ENDBRANCH   4   6
BRANCH   3  13
ATOM     13  C21 <0> A   1     -25.075  -2.755  51.871  0.00  0.00    -0.015 A 
ATOM     14  C22 <0> A   1     -24.430  -2.203  52.978  0.00  0.00    +0.018 A 
ATOM     15  C23 <0> A   1     -23.081  -1.921  52.918  0.00  0.00    +0.001 A 
ATOM     16  C24 <0> A   1     -22.367  -2.186  51.764  0.00  0.00    +0.003 A 
ATOM     17  C25 <0> A   1     -22.999  -2.733  50.662  0.00  0.00    +0.004 A 
ATOM     18  C26 <0> A   1     -24.347  -3.024  50.711  0.00  0.00    +0.022 A 
ENDBRANCH   3  13
BRANCH   2  19
ATOM     19  C27 <0> A   1     -26.454  -5.686  52.098  0.00  0.00    +0.607 C 
ATOM     20  O4  <0> A   1     -26.405  -6.297  53.148  0.00  0.00    -0.509 OA
ATOM     21  N2  <0> A   1     -25.874  -6.198  50.993  0.00  0.00    -0.668 N 
ATOM     22  H28 <0> A   1     -25.846  -5.677  50.175  0.00  0.00    +0.410 HD
BRANCH  21  23
ATOM     23  C28 <0> A   1     -25.314  -7.478  51.027  0.00  0.00    +0.149 A 
ATOM     24  C29 <0> A   1     -26.019  -8.560  50.516  0.00  0.00    -0.024 A 
ATOM     25  C30 <0> A   1     -25.464  -9.823  50.550  0.00  0.00    +0.024 A 
ATOM     26  C31 <0> A   1     -24.207 -10.013  51.093  0.00  0.00    -0.014 A 
ATOM     27  C32 <0> A   1     -23.501  -8.938  51.604  0.00  0.00    +0.024 A 
ATOM     28  C33 <0> A   1     -24.049  -7.671  51.567  0.00  0.00    +0.014 A 
ENDBRANCH  21  23
ENDBRANCH   2  19
BRANCH   1  30
ATOM     29  C1  <0> A   1     -29.268  -6.335  51.100  0.00  0.00    +0.041 C 
ATOM     30  C2  <0> A   1     -29.545  -5.257  52.150  0.00  0.00    +0.048 C 
ATOM     31  C3  <0> A   1     -29.507  -5.882  53.545  0.00  0.00    +0.038 C 
ENDBRANCH   1  30
BRANCH   5  32
ATOM     32  C8  <0> A   1     -30.076  -2.255  51.957  0.00  0.00    +0.298 C 
BRANCH  32  33
ATOM     33  C9  <0> A   1     -30.462  -1.846  53.380  0.00  0.00    +0.052 C 
BRANCH  33  34
ATOM     34  C10 <0> A   1     -31.064  -0.439  53.360  0.00  0.00    +0.204 C 
ATOM     35  C11 <0> A   1     -30.877   0.177  51.970  0.00  0.00    +0.046 C 
ATOM     36  C12 <0> A   1     -31.443   1.600  51.966  0.00  0.00    +0.187 C 
ATOM     37  C13 <0> A   1     -30.703   2.432  53.020  0.00  0.00    +0.025 C 
ATOM     38  C14 <0> A   1     -30.747   1.682  54.333  0.00  0.00    +0.497 C 
ATOM     39  O1  <0> A   1     -31.080   2.236  55.353  0.00  0.00    -0.448 OA
ATOM     40  O2  <0> A   1     -30.404   0.378  54.332  0.00  0.00    -0.370 OA
BRANCH  36  41
ATOM     41  O3  <0> A   1     -32.837   1.562  52.275  0.00  0.00    -0.564 OA
ATOM     42  H18 <0> A   1     -33.288   2.410  52.167  0.00  0.00    +0.388 HD
ENDBRANCH  36  41
ENDBRANCH  33  34
ENDBRANCH  32  33
ENDBRANCH   5  32
TORSDOF 9
