REMARK VINA RESULT:      -8.0     16.575     20.346
REMARK  Name = CHEMBL468862
REMARK  13 active torsions:
REMARK  status: ('A' for Active; 'I' for Inactive)
REMARK    1  A    between atoms: C1_1  and  C2_2
REMARK    2  A    between atoms: C2_2  and  C3_3
REMARK    3  A    between atoms: C2_2  and  C4_4
REMARK    4  A    between atoms: C5_5  and  C22_29
REMARK    5  A    between atoms: C6_6  and  C16_22
REMARK    6  A    between atoms: C9_13  and  C10_16
REMARK    7  A    between atoms: C23_30  and  C24_31
REMARK    8  A    between atoms: C24_31  and  C25_33
REMARK    9  A    between atoms: C24_31  and  O4_41
REMARK   10  A    between atoms: C25_33  and  C26_34
REMARK   11  A    between atoms: C26_34  and  C27_36
REMARK   12  A    between atoms: C26_34  and  O3_40
REMARK   13  A    between atoms: C27_36  and  C28_37
REMARK                            x       y       z     vdW  Elec       q    Type
REMARK                         _______ _______ _______ _____ _____    ______ ____
ROOT
ATOM      1  C4  <0> A   1     -29.766  -4.273  53.083  0.00  0.00    +0.232 A 
ATOM      2  C5  <0> A   1     -28.913  -3.248  52.664  0.00  0.00    -0.176 A 
ATOM      3  C6  <0> A   1     -27.757  -3.601  51.936  0.00  0.00    +0.261 A 
ATOM      4  N1  <0> A   1     -27.530  -4.886  51.679  0.00  0.00    -0.504 NA
ATOM      5  C7  <0> A   1     -28.370  -5.820  52.097  0.00  0.00    +0.553 A 
ATOM      6  N2  <0> A   1     -29.461  -5.523  52.789  0.00  0.00    -0.545 NA
ATOM      7  N3  <0> A   1     -28.096  -7.147  51.809  0.00  0.00    -0.590 N 
ATOM      8  C8  <0> A   1     -26.950  -7.483  51.087  0.00  0.00    +0.489 C 
ATOM      9  N4  <0> A   1     -26.675  -8.736  50.799  0.00  0.00    -0.546 NA
ATOM     10  C9  <0> A   1     -25.569  -8.980  50.111  0.00  0.00    +0.116 C 
ATOM     11  S1  <0> A   1     -24.934  -7.441  49.881  0.00  0.00    +0.290 S 
ATOM     12  N5  <0> A   1     -26.115  -6.553  50.672  0.00  0.00    -0.436 NA
ATOM     13  H10 <0> A   1     -28.703  -7.842  52.109  0.00  0.00    +0.438 HD
ENDROOT
BRANCH   3  14
ATOM     14  C16 <0> A   1     -26.816  -2.560  51.465  0.00  0.00    -0.071 A 
ATOM     15  C17 <0> A   1     -25.786  -2.119  52.296  0.00  0.00    +0.096 A 
ATOM     16  C18 <0> A   1     -24.911  -1.151  51.853  0.00  0.00    -0.016 A 
ATOM     17  C19 <0> A   1     -25.054  -0.613  50.582  0.00  0.00    +0.120 A 
ATOM     18  C20 <0> A   1     -26.076  -1.047  49.753  0.00  0.00    -0.027 A 
ATOM     19  C21 <0> A   1     -26.952  -2.020  50.186  0.00  0.00    +0.099 A 
ATOM     20  F1  <0> A   1     -24.194   0.335  50.152  0.00  0.00    -0.136 F 
ENDBRANCH   3  14
BRANCH  10  21
ATOM     21  C10 <0> A   1     -25.029 -10.281  49.659  0.00  0.00    -0.031 A 
ATOM     22  C11 <0> A   1     -24.698 -10.475  48.318  0.00  0.00    +0.073 A 
ATOM     23  C12 <0> A   1     -24.194 -11.691  47.905  0.00  0.00    +0.008 A 
ATOM     24  C13 <0> A   1     -24.018 -12.716  48.816  0.00  0.00    +0.036 A 
ATOM     25  C14 <0> A   1     -24.344 -12.531  50.147  0.00  0.00    +0.015 A 
ATOM     26  C15 <0> A   1     -24.844 -11.317  50.575  0.00  0.00    +0.047 A 
ENDBRANCH  10  21
BRANCH   1  28
ATOM     27  C1  <0> A   1     -32.241  -4.436  53.086  0.00  0.00    +0.043 C 
ATOM     28  C2  <0> A   1     -31.015  -3.953  53.864  0.00  0.00    +0.052 C 
ATOM     29  C3  <0> A   1     -30.962  -4.659  55.221  0.00  0.00    +0.044 C 
ENDBRANCH   1  28
BRANCH   2  30
ATOM     30  C22 <0> A   1     -29.211  -1.836  52.974  0.00  0.00    +0.012 C 
ATOM     31  C23 <0> A   1     -29.915  -1.103  52.120  0.00  0.00    -0.035 C 
BRANCH  31  32
ATOM     32  C24 <0> A   1     -30.219   0.338  52.437  0.00  0.00    +0.253 C 
BRANCH  32  33
ATOM     33  O4  <0> A   1     -30.191   0.530  53.853  0.00  0.00    -0.537 OA
ATOM     34  H27 <0> A   1     -29.485   0.045  54.303  0.00  0.00    +0.366 HD
ENDBRANCH  32  33
BRANCH  32  35
ATOM     35  C25 <0> A   1     -29.171   1.237  51.781  0.00  0.00    -0.041 C 
BRANCH  35  36
ATOM     36  C26 <0> A   1     -29.675   2.682  51.766  0.00  0.00    +0.232 C 
BRANCH  36  37
ATOM     37  O3  <0> A   1     -30.943   2.751  52.421  0.00  0.00    -0.528 OA
ATOM     38  H26 <0> A   1     -30.883   2.873  53.379  0.00  0.00    +0.350 HD
ENDBRANCH  36  37
BRANCH  36  39
ATOM     39  C27 <0> A   1     -28.674   3.579  52.497  0.00  0.00    -0.102 C 
BRANCH  39  40
ATOM     40  C28 <0> A   1     -29.054   3.675  53.952  0.00  0.00    +0.490 C 
ATOM     41  O1  <0> A   1     -29.764   4.588  54.337  0.00  0.00    -0.681 OA
ATOM     42  O2  <0> A   1     -28.653   2.839  54.744  0.00  0.00    -0.713 OA
ENDBRANCH  39  40
ENDBRANCH  36  39
ENDBRANCH  35  36
ENDBRANCH  32  35
ENDBRANCH  31  32
ENDBRANCH   2  30
TORSDOF 11
