REMARK VINA RESULT:      -8.1      1.407      2.315
REMARK  Name = CHEMBL488299
REMARK  15 active torsions:
REMARK  status: ('A' for Active; 'I' for Inactive)
REMARK    1  A    between atoms: C1_1  and  C2_2
REMARK    2  A    between atoms: C2_2  and  C3_3
REMARK    3  A    between atoms: C2_2  and  C4_4
REMARK    4  A    between atoms: C5_5  and  C20_27
REMARK    5  A    between atoms: N1_8  and  C8_9
REMARK    6  A    between atoms: C8_9  and  C9_10
REMARK    7  A    between atoms: C9_10  and  C10_11
REMARK    8  A    between atoms: C10_11  and  C11_13
REMARK    9  A    between atoms: C10_11  and  O4_21
REMARK   10  A    between atoms: C11_13  and  C12_14
REMARK   11  A    between atoms: C12_14  and  C13_16
REMARK   12  A    between atoms: C12_14  and  O3_20
REMARK   13  A    between atoms: C13_16  and  C14_17
REMARK   14  A    between atoms: N2_29  and  C21_30
REMARK   15  A    between atoms: C21_30  and  C22_31
REMARK                            x       y       z     vdW  Elec       q    Type
REMARK                         _______ _______ _______ _____ _____    ______ ____
ROOT
ATOM      1  C4  <0> A   1     -15.742   6.715  45.997  0.00  0.00    +0.087 C 
ATOM      2  C5  <0> A   1     -16.593   7.531  46.694  0.00  0.00    -0.224 C 
ATOM      3  C6  <0> A   1     -15.853   8.771  46.933  0.00  0.00    -0.124 C 
ATOM      4  C7  <0> A   1     -14.642   8.613  46.371  0.00  0.00    +0.024 C 
ATOM      5  N1  <0> A   1     -14.577   7.368  45.819  0.00  0.00    -0.428 N 
ATOM      6  C15 <0> A   1     -13.549   9.654  46.354  0.00  0.00    +0.101 C 
ATOM      7  C16 <0> A   1     -13.389  10.244  47.757  0.00  0.00    +0.019 C 
ATOM      8  C17 <0> A   1     -14.323  11.439  47.926  0.00  0.00    +0.003 C 
ATOM      9  C18 <0> A   1     -15.615  11.226  47.141  0.00  0.00    +0.010 C 
ATOM     10  C19 <0> A   1     -16.340   9.987  47.674  0.00  0.00    +0.088 C 
ENDROOT
BRANCH   2  11
ATOM     11  C20 <0> A   1     -17.970   7.224  47.114  0.00  0.00    +0.606 C 
ATOM     12  O5  <0> A   1     -18.844   7.089  46.279  0.00  0.00    -0.537 OA
ATOM     13  N2  <0> A   1     -18.262   7.095  48.423  0.00  0.00    -0.723 N 
ATOM     14  H30 <0> A   1     -17.565   7.204  49.088  0.00  0.00    +0.403 HD
BRANCH  13  15
ATOM     15  C21 <0> A   1     -19.633   6.790  48.840  0.00  0.00    +0.311 C 
BRANCH  15  16
ATOM     16  C22 <0> A   1     -19.683   5.399  49.420  0.00  0.00    -0.107 A 
ATOM     17  C23 <0> A   1     -18.513   4.760  49.785  0.00  0.00    +0.023 A 
ATOM     18  C24 <0> A   1     -18.558   3.485  50.316  0.00  0.00    +0.001 A 
ATOM     19  C25 <0> A   1     -19.774   2.849  50.484  0.00  0.00    +0.009 A 
ATOM     20  C26 <0> A   1     -20.945   3.489  50.121  0.00  0.00    +0.002 A 
ATOM     21  C27 <0> A   1     -20.900   4.765  49.593  0.00  0.00    +0.024 A 
ENDBRANCH  15  16
ENDBRANCH  13  15
ENDBRANCH   2  11
BRANCH   1  23
ATOM     22  C1  <0> A   1     -16.393   5.357  44.027  0.00  0.00    +0.037 C 
ATOM     23  C2  <0> A   1     -16.053   5.320  45.518  0.00  0.00    +0.047 C 
ATOM     24  C3  <0> A   1     -14.835   4.421  45.743  0.00  0.00    +0.034 C 
ENDBRANCH   1  23
BRANCH   5  25
ATOM     25  C8  <0> A   1     -13.408   6.819  45.126  0.00  0.00    +0.290 C 
BRANCH  25  26
ATOM     26  C9  <0> A   1     -13.465   7.206  43.647  0.00  0.00    -0.017 C 
BRANCH  26  27
ATOM     27  C10 <0> A   1     -12.247   8.066  43.298  0.00  0.00    +0.216 C 
BRANCH  27  28
ATOM     28  O4  <0> A   1     -11.056   7.395  43.714  0.00  0.00    -0.541 OA
ATOM     29  H19 <0> A   1     -11.211   6.522  44.101  0.00  0.00    +0.366 HD
ENDBRANCH  27  28
BRANCH  27  30
ATOM     30  C11 <0> A   1     -12.202   8.296  41.786  0.00  0.00    -0.048 C 
BRANCH  30  31
ATOM     31  C12 <0> A   1     -12.873   9.630  41.454  0.00  0.00    +0.231 C 
BRANCH  31  32
ATOM     32  O3  <0> A   1     -12.048  10.705  41.907  0.00  0.00    -0.528 OA
ATOM     33  H18 <0> A   1     -12.051  10.826  42.867  0.00  0.00    +0.350 HD
ENDBRANCH  31  32
BRANCH  31  34
ATOM     34  C13 <0> A   1     -13.068   9.740  39.940  0.00  0.00    -0.102 C 
BRANCH  34  35
ATOM     35  C14 <0> A   1     -13.246  11.187  39.560  0.00  0.00    +0.490 C 
ATOM     36  O1  <0> A   1     -12.408  11.744  38.871  0.00  0.00    -0.681 OA
ATOM     37  O2  <0> A   1     -14.227  11.800  39.942  0.00  0.00    -0.712 OA
ENDBRANCH  34  35
ENDBRANCH  31  34
ENDBRANCH  30  31
ENDBRANCH  27  30
ENDBRANCH  26  27
ENDBRANCH  25  26
ENDBRANCH   5  25
TORSDOF 13
