MODEL 1
REMARK VINA RESULT:      -7.7      0.000      0.000
REMARK  Name = CHEMBL313129
REMARK  17 active torsions:
REMARK  status: ('A' for Active; 'I' for Inactive)
REMARK    1  A    between atoms: C1_1  and  C2_2
REMARK    2  A    between atoms: C2_2  and  C3_3
REMARK    3  A    between atoms: C3_3  and  C4_4
REMARK    4  A    between atoms: C3_3  and  C5_5
REMARK    5  A    between atoms: C3_3  and  C6_6
REMARK    6  A    between atoms: C6_6  and  O2_8
REMARK    7  A    between atoms: O2_8  and  C7_9
REMARK    8  A    between atoms: C9_12  and  C33_46
REMARK    9  A    between atoms: C10_14  and  O6_37
REMARK   10  A    between atoms: C13_19  and  C18_26
REMARK   11  A    between atoms: C14_21  and  C17_25
REMARK   12  A    between atoms: C18_26  and  C19_27
REMARK   13  A    between atoms: C19_27  and  C20_28
REMARK   14  A    between atoms: C22_30  and  O5_36
REMARK   15  A    between atoms: O6_37  and  C25_38
REMARK   16  A    between atoms: C25_38  and  C26_39
REMARK   17  A    between atoms: C26_39  and  C27_40
REMARK                            x       y       z     vdW  Elec       q    Type
REMARK                         _______ _______ _______ _____ _____    ______ ____
ROOT
ATOM      1  C7  <0> A   1     -13.996   9.059  48.197  0.00  0.00    +0.184 C 
ATOM      2  C8  <0> A   1     -15.271   9.617  48.851  0.00  0.00    +0.014 C 
ATOM      3  C9  <0> A   1     -15.798   8.615  49.876  0.00  0.00    +0.002 C 
ATOM      4  C10 <0> A   1     -16.131   7.298  49.175  0.00  0.00    +0.163 C 
ATOM      5  C11 <0> A   1     -14.889   6.744  48.488  0.00  0.00    -0.020 C 
ATOM      6  C12 <0> A   1     -14.324   7.758  47.483  0.00  0.00    +0.029 C 
ATOM      7  C13 <0> A   1     -13.156   7.108  46.764  0.00  0.00    -0.008 C 
ATOM      8  C14 <0> A   1     -12.077   6.560  47.681  0.00  0.00    -0.020 C 
ATOM      9  C15 <0> A   1     -12.635   5.735  48.831  0.00  0.00    +0.012 C 
ATOM     10  C16 <0> A   1     -13.806   6.429  49.521  0.00  0.00    +0.013 C 
ATOM     11  C17 <0> A   1     -11.146   7.657  48.188  0.00  0.00    +0.014 C 
ATOM     12  C33 <0> A   1     -17.062   9.174  50.535  0.00  0.00    +0.028 C 
ENDROOT
BRANCH   1  13
ATOM     13  O2  <0> A   1     -13.511  10.055  47.295  0.00  0.00    -0.335 OA
BRANCH  13  14
ATOM     14  C6  <0> A   1     -12.889  11.115  47.833  0.00  0.00    +0.472 C 
ATOM     15  O1  <0> A   1     -12.123  10.961  48.755  0.00  0.00    -0.509 OA
BRANCH  14  16
ATOM     16  C3  <0> A   1     -13.146  12.497  47.289  0.00  0.00    -0.057 C 
ATOM     17  C4  <0> A   1     -12.224  12.753  46.094  0.00  0.00    +0.056 C 
ATOM     18  C5  <0> A   1     -12.868  13.533  48.379  0.00  0.00    +0.077 C 
BRANCH  16  20
ATOM     19  C1  <0> A   1     -15.447  13.180  47.982  0.00  0.00    +0.022 C 
ATOM     20  C2  <0> A   1     -14.604  12.606  46.842  0.00  0.00    +0.033 C 
ENDBRANCH  16  20
ENDBRANCH  14  16
ENDBRANCH  13  14
ENDBRANCH   1  13
BRANCH   7  21
ATOM     21  C18 <0> A   1     -12.543   8.018  45.702  0.00  0.00    +0.035 C 
BRANCH  21  22
ATOM     22  C19 <0> A   1     -13.615   8.400  44.678  0.00  0.00    +0.042 C 
BRANCH  22  23
ATOM     23  C20 <0> A   1     -12.950   8.700  43.333  0.00  0.00    +0.196 C 
ATOM     24  C21 <0> A   1     -13.631   9.910  42.686  0.00  0.00    +0.037 C 
ATOM     25  C22 <0> A   1     -12.991  10.183  41.321  0.00  0.00    +0.182 C 
ATOM     26  C23 <0> A   1     -13.161   8.941  40.436  0.00  0.00    +0.016 C 
ATOM     27  C24 <0> A   1     -12.654   7.739  41.203  0.00  0.00    +0.495 C 
ATOM     28  O3  <0> A   1     -11.886   6.956  40.694  0.00  0.00    -0.447 OA
ATOM     29  O4  <0> A   1     -13.083   7.566  42.470  0.00  0.00    -0.361 OA
BRANCH  25  30
ATOM     30  O5  <0> A   1     -11.600  10.465  41.492  0.00  0.00    -0.563 OA
ATOM     31  H38 <0> A   1     -11.340  10.620  42.411  0.00  0.00    +0.386 HD
ENDBRANCH  25  30
ENDBRANCH  22  23
ENDBRANCH  21  22
ENDBRANCH   7  21
BRANCH   4  32
ATOM     32  O6  <0> A   1     -17.162   7.518  48.209  0.00  0.00    -0.371 OA
BRANCH  32  33
ATOM     33  C25 <0> A   1     -17.597   6.330  47.543  0.00  0.00    +0.166 C 
BRANCH  33  34
ATOM     34  C26 <0> A   1     -17.586   6.561  46.030  0.00  0.00    +0.083 C 
BRANCH  34  35
ATOM     35  C27 <0> A   1     -16.484   5.745  45.406  0.00  0.00    -0.083 A 
ATOM     36  C28 <0> A   1     -16.118   5.970  44.092  0.00  0.00    +0.007 A 
ATOM     37  C29 <0> A   1     -15.107   5.221  43.519  0.00  0.00    +0.004 A 
ATOM     38  C30 <0> A   1     -14.461   4.250  44.260  0.00  0.00    -0.000 A 
ATOM     39  C31 <0> A   1     -14.827   4.026  45.575  0.00  0.00    +0.004 A 
ATOM     40  C32 <0> A   1     -15.834   4.777  46.149  0.00  0.00    +0.007 A 
ENDBRANCH  34  35
ENDBRANCH  33  34
ENDBRANCH  32  33
ENDBRANCH   4  32
TORSDOF 12
ENDMDL
MODEL 2
REMARK VINA RESULT:      -7.6     10.948     14.555
REMARK  Name = CHEMBL313129
REMARK  17 active torsions:
REMARK  status: ('A' for Active; 'I' for Inactive)
REMARK    1  A    between atoms: C1_1  and  C2_2
REMARK    2  A    between atoms: C2_2  and  C3_3
REMARK    3  A    between atoms: C3_3  and  C4_4
REMARK    4  A    between atoms: C3_3  and  C5_5
REMARK    5  A    between atoms: C3_3  and  C6_6
REMARK    6  A    between atoms: C6_6  and  O2_8
REMARK    7  A    between atoms: O2_8  and  C7_9
REMARK    8  A    between atoms: C9_12  and  C33_46
REMARK    9  A    between atoms: C10_14  and  O6_37
REMARK   10  A    between atoms: C13_19  and  C18_26
REMARK   11  A    between atoms: C14_21  and  C17_25
REMARK   12  A    between atoms: C18_26  and  C19_27
REMARK   13  A    between atoms: C19_27  and  C20_28
REMARK   14  A    between atoms: C22_30  and  O5_36
REMARK   15  A    between atoms: O6_37  and  C25_38
REMARK   16  A    between atoms: C25_38  and  C26_39
REMARK   17  A    between atoms: C26_39  and  C27_40
REMARK                            x       y       z     vdW  Elec       q    Type
REMARK                         _______ _______ _______ _____ _____    ______ ____
ROOT
ATOM      1  C7  <0> A   1      -3.289   6.083  50.659  0.00  0.00    +0.184 C 
ATOM      2  C8  <0> A   1      -3.239   6.104  52.196  0.00  0.00    +0.014 C 
ATOM      3  C9  <0> A   1      -2.995   7.534  52.677  0.00  0.00    +0.002 C 
ATOM      4  C10 <0> A   1      -1.661   8.035  52.127  0.00  0.00    +0.163 C 
ATOM      5  C11 <0> A   1      -1.673   7.988  50.604  0.00  0.00    -0.020 C 
ATOM      6  C12 <0> A   1      -1.958   6.563  50.104  0.00  0.00    +0.029 C 
ATOM      7  C13 <0> A   1      -1.857   6.566  48.590  0.00  0.00    -0.008 C 
ATOM      8  C14 <0> A   1      -2.736   7.593  47.900  0.00  0.00    -0.020 C 
ATOM      9  C15 <0> A   1      -2.646   8.975  48.531  0.00  0.00    +0.012 C 
ATOM     10  C16 <0> A   1      -2.753   8.920  50.052  0.00  0.00    +0.013 C 
ATOM     11  C17 <0> A   1      -4.185   7.126  47.796  0.00  0.00    +0.014 C 
ATOM     12  C33 <0> A   1      -2.955   7.557  54.208  0.00  0.00    +0.028 C 
ENDROOT
BRANCH   1  13
ATOM     13  O2  <0> A   1      -3.579   4.741  50.263  0.00  0.00    -0.335 OA
BRANCH  13  14
ATOM     14  C6  <0> A   1      -4.855   4.339  50.356  0.00  0.00    +0.472 C 
ATOM     15  O1  <0> A   1      -5.690   4.801  49.614  0.00  0.00    -0.509 OA
BRANCH  14  16
ATOM     16  C3  <0> A   1      -5.250   3.312  51.386  0.00  0.00    -0.057 C 
ATOM     17  C4  <0> A   1      -6.206   3.946  52.399  0.00  0.00    +0.056 C 
ATOM     18  C5  <0> A   1      -3.999   2.810  52.110  0.00  0.00    +0.077 C 
BRANCH  16  20
ATOM     19  C1  <0> A   1      -5.418   0.821  51.272  0.00  0.00    +0.022 C 
ATOM     20  C2  <0> A   1      -5.944   2.137  50.695  0.00  0.00    +0.033 C 
ENDBRANCH  16  20
ENDBRANCH  14  16
ENDBRANCH  13  14
ENDBRANCH   1  13
BRANCH   7  21
ATOM     21  C18 <0> A   1      -2.077   5.181  47.987  0.00  0.00    +0.035 C 
BRANCH  21  22
ATOM     22  C19 <0> A   1      -1.607   5.177  46.531  0.00  0.00    +0.042 C 
BRANCH  22  23
ATOM     23  C20 <0> A   1      -2.070   3.888  45.849  0.00  0.00    +0.196 C 
ATOM     24  C21 <0> A   1      -1.021   3.449  44.823  0.00  0.00    +0.037 C 
ATOM     25  C22 <0> A   1      -1.507   2.181  44.112  0.00  0.00    +0.182 C 
ATOM     26  C23 <0> A   1      -2.839   2.481  43.415  0.00  0.00    +0.016 C 
ATOM     27  C24 <0> A   1      -3.777   3.100  44.429  0.00  0.00    +0.495 C 
ATOM     28  O3  <0> A   1      -4.907   2.692  44.562  0.00  0.00    -0.447 OA
ATOM     29  O4  <0> A   1      -3.315   4.120  45.183  0.00  0.00    -0.361 OA
BRANCH  25  30
ATOM     30  O5  <0> A   1      -1.690   1.136  45.070  0.00  0.00    -0.563 OA
ATOM     31  H38 <0> A   1      -0.864   0.755  45.400  0.00  0.00    +0.386 HD
ENDBRANCH  25  30
ENDBRANCH  22  23
ENDBRANCH  21  22
ENDBRANCH   7  21
BRANCH   4  32
ATOM     32  O6  <0> A   1      -0.599   7.218  52.628  0.00  0.00    -0.371 OA
BRANCH  32  33
ATOM     33  C25 <0> A   1       0.554   7.954  53.042  0.00  0.00    +0.166 C 
BRANCH  33  34
ATOM     34  C26 <0> A   1       1.290   8.484  51.809  0.00  0.00    +0.083 C 
BRANCH  34  35
ATOM     35  C27 <0> A   1       2.737   8.065  51.869  0.00  0.00    -0.083 A 
ATOM     36  C28 <0> A   1       3.550   8.231  50.765  0.00  0.00    +0.007 A 
ATOM     37  C29 <0> A   1       4.877   7.847  50.820  0.00  0.00    +0.004 A 
ATOM     38  C30 <0> A   1       5.390   7.296  51.979  0.00  0.00    -0.000 A 
ATOM     39  C31 <0> A   1       4.575   7.131  53.085  0.00  0.00    +0.004 A 
ATOM     40  C32 <0> A   1       3.251   7.519  53.031  0.00  0.00    +0.007 A 
ENDBRANCH  34  35
ENDBRANCH  33  34
ENDBRANCH  32  33
ENDBRANCH   4  32
TORSDOF 12
ENDMDL
MODEL 3
REMARK VINA RESULT:      -7.6      1.031      1.758
REMARK  Name = CHEMBL313129
REMARK  17 active torsions:
REMARK  status: ('A' for Active; 'I' for Inactive)
REMARK    1  A    between atoms: C1_1  and  C2_2
REMARK    2  A    between atoms: C2_2  and  C3_3
REMARK    3  A    between atoms: C3_3  and  C4_4
REMARK    4  A    between atoms: C3_3  and  C5_5
REMARK    5  A    between atoms: C3_3  and  C6_6
REMARK    6  A    between atoms: C6_6  and  O2_8
REMARK    7  A    between atoms: O2_8  and  C7_9
REMARK    8  A    between atoms: C9_12  and  C33_46
REMARK    9  A    between atoms: C10_14  and  O6_37
REMARK   10  A    between atoms: C13_19  and  C18_26
REMARK   11  A    between atoms: C14_21  and  C17_25
REMARK   12  A    between atoms: C18_26  and  C19_27
REMARK   13  A    between atoms: C19_27  and  C20_28
REMARK   14  A    between atoms: C22_30  and  O5_36
REMARK   15  A    between atoms: O6_37  and  C25_38
REMARK   16  A    between atoms: C25_38  and  C26_39
REMARK   17  A    between atoms: C26_39  and  C27_40
REMARK                            x       y       z     vdW  Elec       q    Type
REMARK                         _______ _______ _______ _____ _____    ______ ____
ROOT
ATOM      1  C7  <0> A   1     -14.776   9.362  48.691  0.00  0.00    +0.184 C 
ATOM      2  C8  <0> A   1     -16.192   9.848  49.044  0.00  0.00    +0.014 C 
ATOM      3  C9  <0> A   1     -16.818   8.896  50.062  0.00  0.00    +0.002 C 
ATOM      4  C10 <0> A   1     -16.908   7.495  49.458  0.00  0.00    +0.163 C 
ATOM      5  C11 <0> A   1     -15.519   7.006  49.064  0.00  0.00    -0.020 C 
ATOM      6  C12 <0> A   1     -14.860   7.976  48.073  0.00  0.00    +0.029 C 
ATOM      7  C13 <0> A   1     -13.530   7.382  47.646  0.00  0.00    -0.008 C 
ATOM      8  C14 <0> A   1     -12.600   7.028  48.792  0.00  0.00    -0.020 C 
ATOM      9  C15 <0> A   1     -13.294   6.259  49.907  0.00  0.00    +0.012 C 
ATOM     10  C16 <0> A   1     -14.626   6.894  50.300  0.00  0.00    +0.013 C 
ATOM     11  C17 <0> A   1     -11.871   8.252  49.336  0.00  0.00    +0.014 C 
ATOM     12  C33 <0> A   1     -18.223   9.385  50.422  0.00  0.00    +0.028 C 
ENDROOT
BRANCH   1  13
ATOM     13  O2  <0> A   1     -14.214  10.315  47.787  0.00  0.00    -0.335 OA
BRANCH  13  14
ATOM     14  C6  <0> A   1     -13.430  11.268  48.315  0.00  0.00    +0.472 C 
ATOM     15  O1  <0> A   1     -13.511  11.533  49.491  0.00  0.00    -0.509 OA
BRANCH  14  16
ATOM     16  C3  <0> A   1     -12.449  12.007  47.442  0.00  0.00    -0.057 C 
ATOM     17  C4  <0> A   1     -12.310  13.448  47.938  0.00  0.00    +0.056 C 
ATOM     18  C5  <0> A   1     -12.954  12.011  45.999  0.00  0.00    +0.077 C 
BRANCH  16  20
ATOM     19  C1  <0> A   1     -10.669  10.882  46.097  0.00  0.00    +0.022 C 
ATOM     20  C2  <0> A   1     -11.087  11.313  47.504  0.00  0.00    +0.033 C 
ENDBRANCH  16  20
ENDBRANCH  14  16
ENDBRANCH  13  14
ENDBRANCH   1  13
BRANCH   7  21
ATOM     21  C18 <0> A   1     -12.806   8.247  46.618  0.00  0.00    +0.035 C 
BRANCH  21  22
ATOM     22  C19 <0> A   1     -12.062   7.349  45.627  0.00  0.00    +0.042 C 
BRANCH  22  23
ATOM     23  C20 <0> A   1     -12.085   7.992  44.239  0.00  0.00    +0.196 C 
ATOM     24  C21 <0> A   1     -13.289   8.931  44.132  0.00  0.00    +0.037 C 
ATOM     25  C22 <0> A   1     -13.333   9.541  42.726  0.00  0.00    +0.182 C 
ATOM     26  C23 <0> A   1     -13.447   8.410  41.697  0.00  0.00    +0.016 C 
ATOM     27  C24 <0> A   1     -12.350   7.404  41.973  0.00  0.00    +0.495 C 
ATOM     28  O3  <0> A   1     -11.638   7.001  41.084  0.00  0.00    -0.447 OA
ATOM     29  O4  <0> A   1     -12.189   6.971  43.241  0.00  0.00    -0.361 OA
BRANCH  25  30
ATOM     30  O5  <0> A   1     -12.136  10.287  42.491  0.00  0.00    -0.563 OA
ATOM     31  H38 <0> A   1     -11.489   9.828  41.938  0.00  0.00    +0.386 HD
ENDBRANCH  25  30
ENDBRANCH  22  23
ENDBRANCH  21  22
ENDBRANCH   7  21
BRANCH   4  32
ATOM     32  O6  <0> A   1     -17.755   7.524  48.306  0.00  0.00    -0.371 OA
BRANCH  32  33
ATOM     33  C25 <0> A   1     -17.753   6.309  47.552  0.00  0.00    +0.166 C 
BRANCH  33  34
ATOM     34  C26 <0> A   1     -17.597   6.633  46.065  0.00  0.00    +0.083 C 
BRANCH  34  35
ATOM     35  C27 <0> A   1     -16.456   5.830  45.493  0.00  0.00    -0.083 A 
ATOM     36  C28 <0> A   1     -15.777   4.930  46.292  0.00  0.00    +0.007 A 
ATOM     37  C29 <0> A   1     -14.731   4.193  45.768  0.00  0.00    +0.004 A 
ATOM     38  C30 <0> A   1     -14.365   4.358  44.446  0.00  0.00    -0.000 A 
ATOM     39  C31 <0> A   1     -15.045   5.259  43.646  0.00  0.00    +0.004 A 
ATOM     40  C32 <0> A   1     -16.093   5.991  44.169  0.00  0.00    +0.007 A 
ENDBRANCH  34  35
ENDBRANCH  33  34
ENDBRANCH  32  33
ENDBRANCH   4  32
TORSDOF 12
ENDMDL
MODEL 4
REMARK VINA RESULT:      -7.6     14.812     19.066
REMARK  Name = CHEMBL313129
REMARK  17 active torsions:
REMARK  status: ('A' for Active; 'I' for Inactive)
REMARK    1  A    between atoms: C1_1  and  C2_2
REMARK    2  A    between atoms: C2_2  and  C3_3
REMARK    3  A    between atoms: C3_3  and  C4_4
REMARK    4  A    between atoms: C3_3  and  C5_5
REMARK    5  A    between atoms: C3_3  and  C6_6
REMARK    6  A    between atoms: C6_6  and  O2_8
REMARK    7  A    between atoms: O2_8  and  C7_9
REMARK    8  A    between atoms: C9_12  and  C33_46
REMARK    9  A    between atoms: C10_14  and  O6_37
REMARK   10  A    between atoms: C13_19  and  C18_26
REMARK   11  A    between atoms: C14_21  and  C17_25
REMARK   12  A    between atoms: C18_26  and  C19_27
REMARK   13  A    between atoms: C19_27  and  C20_28
REMARK   14  A    between atoms: C22_30  and  O5_36
REMARK   15  A    between atoms: O6_37  and  C25_38
REMARK   16  A    between atoms: C25_38  and  C26_39
REMARK   17  A    between atoms: C26_39  and  C27_40
REMARK                            x       y       z     vdW  Elec       q    Type
REMARK                         _______ _______ _______ _____ _____    ______ ____
ROOT
ATOM      1  C7  <0> A   1     -28.365  -2.326  52.665  0.00  0.00    +0.184 C 
ATOM      2  C8  <0> A   1     -29.168  -1.720  53.829  0.00  0.00    +0.014 C 
ATOM      3  C9  <0> A   1     -29.295  -0.211  53.629  0.00  0.00    +0.002 C 
ATOM      4  C10 <0> A   1     -27.901   0.417  53.603  0.00  0.00    +0.163 C 
ATOM      5  C11 <0> A   1     -27.073  -0.196  52.480  0.00  0.00    -0.020 C 
ATOM      6  C12 <0> A   1     -26.972  -1.719  52.646  0.00  0.00    +0.029 C 
ATOM      7  C13 <0> A   1     -26.055  -2.252  51.559  0.00  0.00    -0.008 C 
ATOM      8  C14 <0> A   1     -26.457  -1.862  50.148  0.00  0.00    -0.020 C 
ATOM      9  C15 <0> A   1     -26.791  -0.384  50.010  0.00  0.00    +0.012 C 
ATOM     10  C16 <0> A   1     -27.713   0.103  51.124  0.00  0.00    +0.013 C 
ATOM     11  C17 <0> A   1     -27.588  -2.736  49.614  0.00  0.00    +0.014 C 
ATOM     12  C33 <0> A   1     -30.103   0.392  54.781  0.00  0.00    +0.028 C 
ENDROOT
BRANCH   1  13
ATOM     13  O2  <0> A   1     -28.328  -3.740  52.868  0.00  0.00    -0.335 OA
BRANCH  13  14
ATOM     14  C6  <0> A   1     -29.295  -4.465  52.285  0.00  0.00    +0.472 C 
ATOM     15  O1  <0> A   1     -30.186  -3.912  51.684  0.00  0.00    -0.509 OA
BRANCH  14  16
ATOM     16  C3  <0> A   1     -29.271  -5.969  52.379  0.00  0.00    -0.057 C 
ATOM     17  C4  <0> A   1     -27.986  -6.415  53.082  0.00  0.00    +0.056 C 
ATOM     18  C5  <0> A   1     -29.317  -6.568  50.973  0.00  0.00    +0.077 C 
BRANCH  16  20
ATOM     19  C1  <0> A   1     -30.261  -6.161  54.665  0.00  0.00    +0.022 C 
ATOM     20  C2  <0> A   1     -30.483  -6.450  53.179  0.00  0.00    +0.033 C 
ENDBRANCH  16  20
ENDBRANCH  14  16
ENDBRANCH  13  14
ENDBRANCH   1  13
BRANCH   7  21
ATOM     21  C18 <0> A   1     -25.845  -3.761  51.658  0.00  0.00    +0.035 C 
BRANCH  21  22
ATOM     22  C19 <0> A   1     -24.421  -4.108  51.218  0.00  0.00    +0.042 C 
BRANCH  22  23
ATOM     23  C20 <0> A   1     -24.392  -5.535  50.668  0.00  0.00    +0.196 C 
ATOM     24  C21 <0> A   1     -25.780  -5.906  50.138  0.00  0.00    +0.037 C 
ATOM     25  C22 <0> A   1     -25.758  -7.350  49.625  0.00  0.00    +0.182 C 
ATOM     26  C23 <0> A   1     -25.363  -8.281  50.779  0.00  0.00    +0.016 C 
ATOM     27  C24 <0> A   1     -24.086  -7.754  51.398  0.00  0.00    +0.495 C 
ATOM     28  O3  <0> A   1     -23.147  -8.486  51.604  0.00  0.00    -0.447 OA
ATOM     29  O4  <0> A   1     -24.026  -6.443  51.712  0.00  0.00    -0.361 OA
BRANCH  25  30
ATOM     30  O5  <0> A   1     -24.806  -7.467  48.565  0.00  0.00    -0.563 OA
ATOM     31  H38 <0> A   1     -24.651  -8.376  48.275  0.00  0.00    +0.386 HD
ENDBRANCH  25  30
ENDBRANCH  22  23
ENDBRANCH  21  22
ENDBRANCH   7  21
BRANCH   4  32
ATOM     32  O6  <0> A   1     -27.254   0.195  54.859  0.00  0.00    -0.371 OA
BRANCH  32  33
ATOM     33  C25 <0> A   1     -26.033   0.921  55.020  0.00  0.00    +0.166 C 
BRANCH  33  34
ATOM     34  C26 <0> A   1     -24.915  -0.044  55.422  0.00  0.00    +0.083 C 
BRANCH  34  35
ATOM     35  C27 <0> A   1     -24.030  -0.311  54.232  0.00  0.00    -0.083 A 
ATOM     36  C28 <0> A   1     -23.285  -1.474  54.173  0.00  0.00    +0.007 A 
ATOM     37  C29 <0> A   1     -22.473  -1.720  53.081  0.00  0.00    +0.004 A 
ATOM     38  C30 <0> A   1     -22.408  -0.803  52.049  0.00  0.00    -0.000 A 
ATOM     39  C31 <0> A   1     -23.154   0.360  52.108  0.00  0.00    +0.004 A 
ATOM     40  C32 <0> A   1     -23.968   0.603  53.197  0.00  0.00    +0.007 A 
ENDBRANCH  34  35
ENDBRANCH  33  34
ENDBRANCH  32  33
ENDBRANCH   4  32
TORSDOF 12
ENDMDL
MODEL 5
REMARK VINA RESULT:      -7.4      1.687      6.368
REMARK  Name = CHEMBL313129
REMARK  17 active torsions:
REMARK  status: ('A' for Active; 'I' for Inactive)
REMARK    1  A    between atoms: C1_1  and  C2_2
REMARK    2  A    between atoms: C2_2  and  C3_3
REMARK    3  A    between atoms: C3_3  and  C4_4
REMARK    4  A    between atoms: C3_3  and  C5_5
REMARK    5  A    between atoms: C3_3  and  C6_6
REMARK    6  A    between atoms: C6_6  and  O2_8
REMARK    7  A    between atoms: O2_8  and  C7_9
REMARK    8  A    between atoms: C9_12  and  C33_46
REMARK    9  A    between atoms: C10_14  and  O6_37
REMARK   10  A    between atoms: C13_19  and  C18_26
REMARK   11  A    between atoms: C14_21  and  C17_25
REMARK   12  A    between atoms: C18_26  and  C19_27
REMARK   13  A    between atoms: C19_27  and  C20_28
REMARK   14  A    between atoms: C22_30  and  O5_36
REMARK   15  A    between atoms: O6_37  and  C25_38
REMARK   16  A    between atoms: C25_38  and  C26_39
REMARK   17  A    between atoms: C26_39  and  C27_40
REMARK                            x       y       z     vdW  Elec       q    Type
REMARK                         _______ _______ _______ _____ _____    ______ ____
ROOT
ATOM      1  C7  <0> A   1     -16.067   6.876  46.778  0.00  0.00    +0.184 C 
ATOM      2  C8  <0> A   1     -16.406   5.987  45.570  0.00  0.00    +0.014 C 
ATOM      3  C9  <0> A   1     -15.227   5.063  45.271  0.00  0.00    +0.002 C 
ATOM      4  C10 <0> A   1     -13.993   5.903  44.942  0.00  0.00    +0.163 C 
ATOM      5  C11 <0> A   1     -13.659   6.820  46.112  0.00  0.00    -0.020 C 
ATOM      6  C12 <0> A   1     -14.851   7.728  46.451  0.00  0.00    +0.029 C 
ATOM      7  C13 <0> A   1     -14.420   8.680  47.552  0.00  0.00    -0.008 C 
ATOM      8  C14 <0> A   1     -13.856   8.003  48.788  0.00  0.00    -0.020 C 
ATOM      9  C15 <0> A   1     -12.832   6.926  48.462  0.00  0.00    +0.012 C 
ATOM     10  C16 <0> A   1     -13.310   5.995  47.351  0.00  0.00    +0.013 C 
ATOM     11  C17 <0> A   1     -14.957   7.462  49.695  0.00  0.00    +0.014 C 
ATOM     12  C33 <0> A   1     -15.568   4.170  44.074  0.00  0.00    +0.028 C 
ENDROOT
BRANCH   1  13
ATOM     13  O2  <0> A   1     -17.219   7.674  47.053  0.00  0.00    -0.335 OA
BRANCH  13  14
ATOM     14  C6  <0> A   1     -18.374   7.026  47.270  0.00  0.00    +0.472 C 
ATOM     15  O1  <0> A   1     -19.161   6.877  46.365  0.00  0.00    -0.509 OA
BRANCH  14  16
ATOM     16  C3  <0> A   1     -18.689   6.484  48.639  0.00  0.00    -0.057 C 
ATOM     17  C4  <0> A   1     -20.143   6.006  48.676  0.00  0.00    +0.056 C 
ATOM     18  C5  <0> A   1     -18.488   7.585  49.682  0.00  0.00    +0.077 C 
BRANCH  16  20
ATOM     19  C1  <0> A   1     -18.558   4.188  49.615  0.00  0.00    +0.022 C 
ATOM     20  C2  <0> A   1     -17.758   5.311  48.951  0.00  0.00    +0.033 C 
ENDBRANCH  16  20
ENDBRANCH  14  16
ENDBRANCH  13  14
ENDBRANCH   1  13
BRANCH   7  21
ATOM     21  C18 <0> A   1     -15.521   9.665  47.937  0.00  0.00    +0.035 C 
BRANCH  21  22
ATOM     22  C19 <0> A   1     -15.290  10.996  47.217  0.00  0.00    +0.042 C 
BRANCH  22  23
ATOM     23  C20 <0> A   1     -13.846  11.451  47.437  0.00  0.00    +0.196 C 
ATOM     24  C21 <0> A   1     -13.706  12.038  48.845  0.00  0.00    +0.037 C 
ATOM     25  C22 <0> A   1     -12.269  12.530  49.047  0.00  0.00    +0.182 C 
ATOM     26  C23 <0> A   1     -11.956  13.599  47.992  0.00  0.00    +0.016 C 
ATOM     27  C24 <0> A   1     -12.302  13.036  46.630  0.00  0.00    +0.495 C 
ATOM     28  O3  <0> A   1     -11.520  13.108  45.711  0.00  0.00    -0.447 OA
ATOM     29  O4  <0> A   1     -13.507  12.451  46.471  0.00  0.00    -0.361 OA
BRANCH  25  30
ATOM     30  O5  <0> A   1     -11.362  11.434  48.905  0.00  0.00    -0.563 OA
ATOM     31  H38 <0> A   1     -11.103  11.027  49.743  0.00  0.00    +0.386 HD
ENDBRANCH  25  30
ENDBRANCH  22  23
ENDBRANCH  21  22
ENDBRANCH   7  21
BRANCH   4  32
ATOM     32  O6  <0> A   1     -14.244   6.684  43.771  0.00  0.00    -0.371 OA
BRANCH  32  33
ATOM     33  C25 <0> A   1     -13.135   6.756  42.872  0.00  0.00    +0.166 C 
BRANCH  33  34
ATOM     34  C26 <0> A   1     -12.279   7.977  43.215  0.00  0.00    +0.083 C 
BRANCH  34  35
ATOM     35  C27 <0> A   1     -13.007   9.232  42.803  0.00  0.00    -0.083 A 
ATOM     36  C28 <0> A   1     -13.242   9.485  41.465  0.00  0.00    +0.007 A 
ATOM     37  C29 <0> A   1     -13.910  10.636  41.087  0.00  0.00    +0.004 A 
ATOM     38  C30 <0> A   1     -14.340  11.532  42.048  0.00  0.00    -0.000 A 
ATOM     39  C31 <0> A   1     -14.105  11.277  43.387  0.00  0.00    +0.004 A 
ATOM     40  C32 <0> A   1     -13.442  10.125  43.764  0.00  0.00    +0.007 A 
ENDBRANCH  34  35
ENDBRANCH  33  34
ENDBRANCH  32  33
ENDBRANCH   4  32
TORSDOF 12
ENDMDL
MODEL 6
REMARK VINA RESULT:      -7.3      1.798      5.873
REMARK  Name = CHEMBL313129
REMARK  17 active torsions:
REMARK  status: ('A' for Active; 'I' for Inactive)
REMARK    1  A    between atoms: C1_1  and  C2_2
REMARK    2  A    between atoms: C2_2  and  C3_3
REMARK    3  A    between atoms: C3_3  and  C4_4
REMARK    4  A    between atoms: C3_3  and  C5_5
REMARK    5  A    between atoms: C3_3  and  C6_6
REMARK    6  A    between atoms: C6_6  and  O2_8
REMARK    7  A    between atoms: O2_8  and  C7_9
REMARK    8  A    between atoms: C9_12  and  C33_46
REMARK    9  A    between atoms: C10_14  and  O6_37
REMARK   10  A    between atoms: C13_19  and  C18_26
REMARK   11  A    between atoms: C14_21  and  C17_25
REMARK   12  A    between atoms: C18_26  and  C19_27
REMARK   13  A    between atoms: C19_27  and  C20_28
REMARK   14  A    between atoms: C22_30  and  O5_36
REMARK   15  A    between atoms: O6_37  and  C25_38
REMARK   16  A    between atoms: C25_38  and  C26_39
REMARK   17  A    between atoms: C26_39  and  C27_40
REMARK                            x       y       z     vdW  Elec       q    Type
REMARK                         _______ _______ _______ _____ _____    ______ ____
ROOT
ATOM      1  C7  <0> A   1     -15.375   8.721  47.860  0.00  0.00    +0.184 C 
ATOM      2  C8  <0> A   1     -15.058   7.828  49.071  0.00  0.00    +0.014 C 
ATOM      3  C9  <0> A   1     -15.342   8.599  50.360  0.00  0.00    +0.002 C 
ATOM      4  C10 <0> A   1     -14.458   9.845  50.412  0.00  0.00    +0.163 C 
ATOM      5  C11 <0> A   1     -14.728  10.728  49.200  0.00  0.00    -0.020 C 
ATOM      6  C12 <0> A   1     -14.486   9.953  47.896  0.00  0.00    +0.029 C 
ATOM      7  C13 <0> A   1     -14.674  10.913  46.736  0.00  0.00    -0.008 C 
ATOM      8  C14 <0> A   1     -16.009  11.637  46.724  0.00  0.00    -0.020 C 
ATOM      9  C15 <0> A   1     -16.383  12.219  48.079  0.00  0.00    +0.012 C 
ATOM     10  C16 <0> A   1     -16.177  11.217  49.212  0.00  0.00    +0.013 C 
ATOM     11  C17 <0> A   1     -17.128  10.760  46.171  0.00  0.00    +0.014 C 
ATOM     12  C33 <0> A   1     -15.036   7.707  51.566  0.00  0.00    +0.028 C 
ENDROOT
BRANCH   1  13
ATOM     13  O2  <0> A   1     -15.152   7.937  46.686  0.00  0.00    -0.335 OA
BRANCH  13  14
ATOM     14  C6  <0> A   1     -16.116   7.070  46.339  0.00  0.00    +0.472 C 
ATOM     15  O1  <0> A   1     -17.243   7.225  46.748  0.00  0.00    -0.509 OA
BRANCH  14  16
ATOM     16  C3  <0> A   1     -15.795   5.906  45.438  0.00  0.00    -0.057 C 
ATOM     17  C4  <0> A   1     -16.968   5.659  44.486  0.00  0.00    +0.056 C 
ATOM     18  C5  <0> A   1     -15.557   4.656  46.287  0.00  0.00    +0.077 C 
BRANCH  16  20
ATOM     19  C1  <0> A   1     -14.861   6.143  43.134  0.00  0.00    +0.022 C 
ATOM     20  C2  <0> A   1     -14.537   6.219  44.627  0.00  0.00    +0.033 C 
ENDBRANCH  16  20
ENDBRANCH  14  16
ENDBRANCH  13  14
ENDBRANCH   1  13
BRANCH   7  21
ATOM     21  C18 <0> A   1     -14.410  10.256  45.383  0.00  0.00    +0.035 C 
BRANCH  21  22
ATOM     22  C19 <0> A   1     -14.018  11.327  44.362  0.00  0.00    +0.042 C 
BRANCH  22  23
ATOM     23  C20 <0> A   1     -13.173  10.692  43.257  0.00  0.00    +0.196 C 
ATOM     24  C21 <0> A   1     -13.928  10.773  41.927  0.00  0.00    +0.037 C 
ATOM     25  C22 <0> A   1     -13.096  10.100  40.830  0.00  0.00    +0.182 C 
ATOM     26  C23 <0> A   1     -12.858   8.635  41.216  0.00  0.00    +0.016 C 
ATOM     27  C24 <0> A   1     -12.295   8.600  42.621  0.00  0.00    +0.495 C 
ATOM     28  O3  <0> A   1     -11.311   7.948  42.880  0.00  0.00    -0.447 OA
ATOM     29  O4  <0> A   1     -12.922   9.319  43.575  0.00  0.00    -0.361 OA
BRANCH  25  30
ATOM     30  O5  <0> A   1     -11.842  10.773  40.698  0.00  0.00    -0.563 OA
ATOM     31  H38 <0> A   1     -11.586  11.284  41.478  0.00  0.00    +0.386 HD
ENDBRANCH  25  30
ENDBRANCH  22  23
ENDBRANCH  21  22
ENDBRANCH   7  21
BRANCH   4  32
ATOM     32  O6  <0> A   1     -13.082   9.454  50.430  0.00  0.00    -0.371 OA
BRANCH  32  33
ATOM     33  C25 <0> A   1     -12.223  10.384  51.096  0.00  0.00    +0.166 C 
BRANCH  33  34
ATOM     34  C26 <0> A   1     -10.967  10.611  50.252  0.00  0.00    +0.083 C 
BRANCH  34  35
ATOM     35  C27 <0> A   1     -11.313  11.458  49.055  0.00  0.00    -0.083 A 
ATOM     36  C28 <0> A   1     -11.944  12.676  49.229  0.00  0.00    +0.007 A 
ATOM     37  C29 <0> A   1     -12.261  13.453  48.130  0.00  0.00    +0.004 A 
ATOM     38  C30 <0> A   1     -11.948  13.012  46.858  0.00  0.00    -0.000 A 
ATOM     39  C31 <0> A   1     -11.316  11.794  46.684  0.00  0.00    +0.004 A 
ATOM     40  C32 <0> A   1     -10.995  11.020  47.783  0.00  0.00    +0.007 A 
ENDBRANCH  34  35
ENDBRANCH  33  34
ENDBRANCH  32  33
ENDBRANCH   4  32
TORSDOF 12
ENDMDL
MODEL 7
REMARK VINA RESULT:      -7.2     14.668     18.077
REMARK  Name = CHEMBL313129
REMARK  17 active torsions:
REMARK  status: ('A' for Active; 'I' for Inactive)
REMARK    1  A    between atoms: C1_1  and  C2_2
REMARK    2  A    between atoms: C2_2  and  C3_3
REMARK    3  A    between atoms: C3_3  and  C4_4
REMARK    4  A    between atoms: C3_3  and  C5_5
REMARK    5  A    between atoms: C3_3  and  C6_6
REMARK    6  A    between atoms: C6_6  and  O2_8
REMARK    7  A    between atoms: O2_8  and  C7_9
REMARK    8  A    between atoms: C9_12  and  C33_46
REMARK    9  A    between atoms: C10_14  and  O6_37
REMARK   10  A    between atoms: C13_19  and  C18_26
REMARK   11  A    between atoms: C14_21  and  C17_25
REMARK   12  A    between atoms: C18_26  and  C19_27
REMARK   13  A    between atoms: C19_27  and  C20_28
REMARK   14  A    between atoms: C22_30  and  O5_36
REMARK   15  A    between atoms: O6_37  and  C25_38
REMARK   16  A    between atoms: C25_38  and  C26_39
REMARK   17  A    between atoms: C26_39  and  C27_40
REMARK                            x       y       z     vdW  Elec       q    Type
REMARK                         _______ _______ _______ _____ _____    ______ ____
ROOT
ATOM      1  C7  <0> A   1     -26.376  -1.418  52.848  0.00  0.00    +0.184 C 
ATOM      2  C8  <0> A   1     -26.645  -0.966  54.293  0.00  0.00    +0.014 C 
ATOM      3  C9  <0> A   1     -26.035   0.417  54.517  0.00  0.00    +0.002 C 
ATOM      4  C10 <0> A   1     -24.526   0.349  54.287  0.00  0.00    +0.163 C 
ATOM      5  C11 <0> A   1     -24.233  -0.133  52.871  0.00  0.00    -0.020 C 
ATOM      6  C12 <0> A   1     -24.876  -1.505  52.619  0.00  0.00    +0.029 C 
ATOM      7  C13 <0> A   1     -24.465  -1.970  51.234  0.00  0.00    -0.008 C 
ATOM      8  C14 <0> A   1     -24.775  -0.987  50.119  0.00  0.00    -0.020 C 
ATOM      9  C15 <0> A   1     -24.353   0.438  50.447  0.00  0.00    +0.012 C 
ATOM     10  C16 <0> A   1     -24.789   0.858  51.848  0.00  0.00    +0.013 C 
ATOM     11  C17 <0> A   1     -26.240  -1.046  49.697  0.00  0.00    +0.014 C 
ATOM     12  C33 <0> A   1     -26.312   0.871  55.952  0.00  0.00    +0.028 C 
ENDROOT
BRANCH   1  13
ATOM     13  O2  <0> A   1     -27.016  -2.683  52.674  0.00  0.00    -0.335 OA
BRANCH  13  14
ATOM     14  C6  <0> A   1     -28.323  -2.670  52.370  0.00  0.00    +0.472 C 
ATOM     15  O1  <0> A   1     -28.835  -1.658  51.952  0.00  0.00    -0.509 OA
BRANCH  14  16
ATOM     16  C3  <0> A   1     -29.153  -3.914  52.550  0.00  0.00    -0.057 C 
ATOM     17  C4  <0> A   1     -30.110  -4.065  51.365  0.00  0.00    +0.056 C 
ATOM     18  C5  <0> A   1     -29.959  -3.806  53.845  0.00  0.00    +0.077 C 
BRANCH  16  20
ATOM     19  C1  <0> A   1     -28.771  -6.118  53.664  0.00  0.00    +0.022 C 
ATOM     20  C2  <0> A   1     -28.234  -5.135  52.622  0.00  0.00    +0.033 C 
ENDBRANCH  16  20
ENDBRANCH  14  16
ENDBRANCH  13  14
ENDBRANCH   1  13
BRANCH   7  21
ATOM     21  C18 <0> A   1     -25.013  -3.354  50.895  0.00  0.00    +0.035 C 
BRANCH  21  22
ATOM     22  C19 <0> A   1     -24.209  -4.420  51.643  0.00  0.00    +0.042 C 
BRANCH  22  23
ATOM     23  C20 <0> A   1     -24.259  -5.736  50.866  0.00  0.00    +0.196 C 
ATOM     24  C21 <0> A   1     -25.678  -5.960  50.333  0.00  0.00    +0.037 C 
ATOM     25  C22 <0> A   1     -25.735  -7.299  49.590  0.00  0.00    +0.182 C 
ATOM     26  C23 <0> A   1     -25.348  -8.422  50.561  0.00  0.00    +0.016 C 
ATOM     27  C24 <0> A   1     -24.032  -8.055  51.211  0.00  0.00    +0.495 C 
ATOM     28  O3  <0> A   1     -23.121  -8.848  51.261  0.00  0.00    -0.447 OA
ATOM     29  O4  <0> A   1     -23.904  -6.818  51.733  0.00  0.00    -0.361 OA
BRANCH  25  30
ATOM     30  O5  <0> A   1     -24.820  -7.277  48.491  0.00  0.00    -0.563 OA
ATOM     31  H38 <0> A   1     -25.160  -6.826  47.706  0.00  0.00    +0.386 HD
ENDBRANCH  25  30
ENDBRANCH  22  23
ENDBRANCH  21  22
ENDBRANCH   7  21
BRANCH   4  32
ATOM     32  O6  <0> A   1     -23.938  -0.546  55.234  0.00  0.00    -0.371 OA
BRANCH  32  33
ATOM     33  C25 <0> A   1     -22.516  -0.436  55.333  0.00  0.00    +0.166 C 
BRANCH  33  34
ATOM     34  C26 <0> A   1     -21.946  -1.720  55.939  0.00  0.00    +0.083 C 
BRANCH  34  35
ATOM     35  C27 <0> A   1     -21.160  -2.465  54.891  0.00  0.00    -0.083 A 
ATOM     36  C28 <0> A   1     -21.424  -2.254  53.550  0.00  0.00    +0.007 A 
ATOM     37  C29 <0> A   1     -20.703  -2.937  52.588  0.00  0.00    +0.004 A 
ATOM     38  C30 <0> A   1     -19.719  -3.830  52.967  0.00  0.00    -0.000 A 
ATOM     39  C31 <0> A   1     -19.454  -4.041  54.308  0.00  0.00    +0.004 A 
ATOM     40  C32 <0> A   1     -20.172  -3.355  55.269  0.00  0.00    +0.007 A 
ENDBRANCH  34  35
ENDBRANCH  33  34
ENDBRANCH  32  33
ENDBRANCH   4  32
TORSDOF 12
ENDMDL
MODEL 8
REMARK VINA RESULT:      -7.2     16.991     21.382
REMARK  Name = CHEMBL313129
REMARK  17 active torsions:
REMARK  status: ('A' for Active; 'I' for Inactive)
REMARK    1  A    between atoms: C1_1  and  C2_2
REMARK    2  A    between atoms: C2_2  and  C3_3
REMARK    3  A    between atoms: C3_3  and  C4_4
REMARK    4  A    between atoms: C3_3  and  C5_5
REMARK    5  A    between atoms: C3_3  and  C6_6
REMARK    6  A    between atoms: C6_6  and  O2_8
REMARK    7  A    between atoms: O2_8  and  C7_9
REMARK    8  A    between atoms: C9_12  and  C33_46
REMARK    9  A    between atoms: C10_14  and  O6_37
REMARK   10  A    between atoms: C13_19  and  C18_26
REMARK   11  A    between atoms: C14_21  and  C17_25
REMARK   12  A    between atoms: C18_26  and  C19_27
REMARK   13  A    between atoms: C19_27  and  C20_28
REMARK   14  A    between atoms: C22_30  and  O5_36
REMARK   15  A    between atoms: O6_37  and  C25_38
REMARK   16  A    between atoms: C25_38  and  C26_39
REMARK   17  A    between atoms: C26_39  and  C27_40
REMARK                            x       y       z     vdW  Elec       q    Type
REMARK                         _______ _______ _______ _____ _____    ______ ____
ROOT
ATOM      1  C7  <0> A   1     -29.369  -6.008  51.993  0.00  0.00    +0.184 C 
ATOM      2  C8  <0> A   1     -30.421  -5.502  52.994  0.00  0.00    +0.014 C 
ATOM      3  C9  <0> A   1     -31.232  -4.377  52.354  0.00  0.00    +0.002 C 
ATOM      4  C10 <0> A   1     -30.298  -3.224  51.985  0.00  0.00    +0.163 C 
ATOM      5  C11 <0> A   1     -29.222  -3.711  51.022  0.00  0.00    -0.020 C 
ATOM      6  C12 <0> A   1     -28.425  -4.871  51.636  0.00  0.00    +0.029 C 
ATOM      7  C13 <0> A   1     -27.312  -5.240  50.674  0.00  0.00    -0.008 C 
ATOM      8  C14 <0> A   1     -27.776  -5.558  49.264  0.00  0.00    -0.020 C 
ATOM      9  C15 <0> A   1     -28.758  -4.534  48.714  0.00  0.00    +0.012 C 
ATOM     10  C16 <0> A   1     -29.857  -4.196  49.718  0.00  0.00    +0.013 C 
ATOM     11  C17 <0> A   1     -28.333  -6.973  49.151  0.00  0.00    +0.014 C 
ATOM     12  C33 <0> A   1     -32.287  -3.879  53.346  0.00  0.00    +0.028 C 
ENDROOT
BRANCH   1  13
ATOM     13  O2  <0> A   1     -28.682  -7.095  52.616  0.00  0.00    -0.335 OA
BRANCH  13  14
ATOM     14  C6  <0> A   1     -29.434  -8.093  53.106  0.00  0.00    +0.472 C 
ATOM     15  O1  <0> A   1     -29.770  -8.082  54.266  0.00  0.00    -0.509 OA
BRANCH  14  16
ATOM     16  C3  <0> A   1     -29.859  -9.227  52.209  0.00  0.00    -0.057 C 
ATOM     17  C4  <0> A   1     -28.711  -9.585  51.262  0.00  0.00    +0.056 C 
ATOM     18  C5  <0> A   1     -31.080  -8.801  51.393  0.00  0.00    +0.077 C 
BRANCH  16  20
ATOM     19  C1  <0> A   1     -29.731 -11.718  52.363  0.00  0.00    +0.022 C 
ATOM     20  C2  <0> A   1     -30.215 -10.446  53.062  0.00  0.00    +0.033 C 
ENDBRANCH  16  20
ENDBRANCH  14  16
ENDBRANCH  13  14
ENDBRANCH   1  13
BRANCH   7  21
ATOM     21  C18 <0> A   1     -26.422  -6.359  51.209  0.00  0.00    +0.035 C 
BRANCH  21  22
ATOM     22  C19 <0> A   1     -24.986  -6.146  50.725  0.00  0.00    +0.042 C 
BRANCH  22  23
ATOM     23  C20 <0> A   1     -24.217  -7.465  50.813  0.00  0.00    +0.196 C 
ATOM     24  C21 <0> A   1     -25.154  -8.626  50.467  0.00  0.00    +0.037 C 
ATOM     25  C22 <0> A   1     -24.392  -9.949  50.596  0.00  0.00    +0.182 C 
ATOM     26  C23 <0> A   1     -23.881 -10.089  52.036  0.00  0.00    +0.016 C 
ATOM     27  C24 <0> A   1     -23.129  -8.827  52.398  0.00  0.00    +0.495 C 
ATOM     28  O3  <0> A   1     -22.031  -8.880  52.900  0.00  0.00    -0.447 OA
ATOM     29  O4  <0> A   1     -23.718  -7.641  52.143  0.00  0.00    -0.361 OA
BRANCH  25  30
ATOM     30  O5  <0> A   1     -23.286  -9.955  49.691  0.00  0.00    -0.563 OA
ATOM     31  H38 <0> A   1     -22.625 -10.634  49.882  0.00  0.00    +0.386 HD
ENDBRANCH  25  30
ENDBRANCH  22  23
ENDBRANCH  21  22
ENDBRANCH   7  21
BRANCH   4  32
ATOM     32  O6  <0> A   1     -29.689  -2.704  53.170  0.00  0.00    -0.371 OA
BRANCH  32  33
ATOM     33  C25 <0> A   1     -29.354  -1.317  53.090  0.00  0.00    +0.166 C 
BRANCH  33  34
ATOM     34  C26 <0> A   1     -27.894  -1.121  53.505  0.00  0.00    +0.083 C 
BRANCH  34  35
ATOM     35  C27 <0> A   1     -26.995  -1.407  52.329  0.00  0.00    -0.083 A 
ATOM     36  C28 <0> A   1     -27.278  -0.856  51.094  0.00  0.00    +0.007 A 
ATOM     37  C29 <0> A   1     -26.454  -1.118  50.015  0.00  0.00    +0.004 A 
ATOM     38  C30 <0> A   1     -25.347  -1.931  50.173  0.00  0.00    -0.000 A 
ATOM     39  C31 <0> A   1     -25.064  -2.482  51.410  0.00  0.00    +0.004 A 
ATOM     40  C32 <0> A   1     -25.885  -2.216  52.488  0.00  0.00    +0.007 A 
ENDBRANCH  34  35
ENDBRANCH  33  34
ENDBRANCH  32  33
ENDBRANCH   4  32
TORSDOF 12
ENDMDL
MODEL 9
REMARK VINA RESULT:      -7.1      1.893      5.120
REMARK  Name = CHEMBL313129
REMARK  17 active torsions:
REMARK  status: ('A' for Active; 'I' for Inactive)
REMARK    1  A    between atoms: C1_1  and  C2_2
REMARK    2  A    between atoms: C2_2  and  C3_3
REMARK    3  A    between atoms: C3_3  and  C4_4
REMARK    4  A    between atoms: C3_3  and  C5_5
REMARK    5  A    between atoms: C3_3  and  C6_6
REMARK    6  A    between atoms: C6_6  and  O2_8
REMARK    7  A    between atoms: O2_8  and  C7_9
REMARK    8  A    between atoms: C9_12  and  C33_46
REMARK    9  A    between atoms: C10_14  and  O6_37
REMARK   10  A    between atoms: C13_19  and  C18_26
REMARK   11  A    between atoms: C14_21  and  C17_25
REMARK   12  A    between atoms: C18_26  and  C19_27
REMARK   13  A    between atoms: C19_27  and  C20_28
REMARK   14  A    between atoms: C22_30  and  O5_36
REMARK   15  A    between atoms: O6_37  and  C25_38
REMARK   16  A    between atoms: C25_38  and  C26_39
REMARK   17  A    between atoms: C26_39  and  C27_40
REMARK                            x       y       z     vdW  Elec       q    Type
REMARK                         _______ _______ _______ _____ _____    ______ ____
ROOT
ATOM      1  C7  <0> A   1     -13.962  10.764  46.239  0.00  0.00    +0.184 C 
ATOM      2  C8  <0> A   1     -15.310  11.505  46.263  0.00  0.00    +0.014 C 
ATOM      3  C9  <0> A   1     -15.443  12.276  47.576  0.00  0.00    +0.002 C 
ATOM      4  C10 <0> A   1     -15.390  11.296  48.748  0.00  0.00    +0.163 C 
ATOM      5  C11 <0> A   1     -14.077  10.522  48.723  0.00  0.00    -0.020 C 
ATOM      6  C12 <0> A   1     -13.910   9.775  47.392  0.00  0.00    +0.029 C 
ATOM      7  C13 <0> A   1     -12.640   8.949  47.472  0.00  0.00    -0.008 C 
ATOM      8  C14 <0> A   1     -11.395   9.738  47.836  0.00  0.00    -0.020 C 
ATOM      9  C15 <0> A   1     -11.606  10.669  49.021  0.00  0.00    +0.012 C 
ATOM     10  C16 <0> A   1     -12.895  11.477  48.895  0.00  0.00    +0.013 C 
ATOM     11  C17 <0> A   1     -10.824  10.490  46.638  0.00  0.00    +0.014 C 
ATOM     12  C33 <0> A   1     -16.780  13.022  47.596  0.00  0.00    +0.028 C 
ENDROOT
BRANCH   1  13
ATOM     13  O2  <0> A   1     -13.861  10.111  44.972  0.00  0.00    -0.335 OA
BRANCH  13  14
ATOM     14  C6  <0> A   1     -13.336  10.820  43.960  0.00  0.00    +0.472 C 
ATOM     15  O1  <0> A   1     -12.780  11.869  44.184  0.00  0.00    -0.509 OA
BRANCH  14  16
ATOM     16  C3  <0> A   1     -13.440  10.308  42.547  0.00  0.00    -0.057 C 
ATOM     17  C4  <0> A   1     -12.100  10.505  41.834  0.00  0.00    +0.056 C 
ATOM     18  C5  <0> A   1     -14.531  11.081  41.804  0.00  0.00    +0.077 C 
BRANCH  16  20
ATOM     19  C1  <0> A   1     -12.694   8.025  41.859  0.00  0.00    +0.022 C 
ATOM     20  C2  <0> A   1     -13.793   8.820  42.567  0.00  0.00    +0.033 C 
ENDBRANCH  16  20
ENDBRANCH  14  16
ENDBRANCH  13  14
ENDBRANCH   1  13
BRANCH   7  21
ATOM     21  C18 <0> A   1     -12.399   8.123  46.210  0.00  0.00    +0.035 C 
BRANCH  21  22
ATOM     22  C19 <0> A   1     -12.688   6.648  46.503  0.00  0.00    +0.042 C 
BRANCH  22  23
ATOM     23  C20 <0> A   1     -13.998   6.242  45.827  0.00  0.00    +0.196 C 
ATOM     24  C21 <0> A   1     -14.658   5.115  46.627  0.00  0.00    +0.037 C 
ATOM     25  C22 <0> A   1     -15.949   4.682  45.924  0.00  0.00    +0.182 C 
ATOM     26  C23 <0> A   1     -15.606   4.199  44.509  0.00  0.00    +0.016 C 
ATOM     27  C24 <0> A   1     -14.782   5.271  43.829  0.00  0.00    +0.495 C 
ATOM     28  O3  <0> A   1     -15.060   5.657  42.717  0.00  0.00    -0.447 OA
ATOM     29  O4  <0> A   1     -13.729   5.783  44.498  0.00  0.00    -0.361 OA
BRANCH  25  30
ATOM     30  O5  <0> A   1     -16.848   5.791  45.850  0.00  0.00    -0.563 OA
ATOM     31  H38 <0> A   1     -16.419   6.652  45.947  0.00  0.00    +0.386 HD
ENDBRANCH  25  30
ENDBRANCH  22  23
ENDBRANCH  21  22
ENDBRANCH   7  21
BRANCH   4  32
ATOM     32  O6  <0> A   1     -16.490  10.387  48.662  0.00  0.00    -0.371 OA
BRANCH  32  33
ATOM     33  C25 <0> A   1     -17.024   9.999  49.930  0.00  0.00    +0.166 C 
BRANCH  33  34
ATOM     34  C26 <0> A   1     -16.995   8.473  50.050  0.00  0.00    +0.083 C 
BRANCH  34  35
ATOM     35  C27 <0> A   1     -15.600   8.024  50.405  0.00  0.00    -0.083 A 
ATOM     36  C28 <0> A   1     -14.924   8.631  51.447  0.00  0.00    +0.007 A 
ATOM     37  C29 <0> A   1     -13.645   8.219  51.773  0.00  0.00    +0.004 A 
ATOM     38  C30 <0> A   1     -13.044   7.201  51.057  0.00  0.00    -0.000 A 
ATOM     39  C31 <0> A   1     -13.721   6.594  50.015  0.00  0.00    +0.004 A 
ATOM     40  C32 <0> A   1     -15.000   7.003  49.692  0.00  0.00    +0.007 A 
ENDBRANCH  34  35
ENDBRANCH  33  34
ENDBRANCH  32  33
ENDBRANCH   4  32
TORSDOF 12
ENDMDL
MODEL 10
REMARK VINA RESULT:      -7.1      2.886      7.135
REMARK  Name = CHEMBL313129
REMARK  17 active torsions:
REMARK  status: ('A' for Active; 'I' for Inactive)
REMARK    1  A    between atoms: C1_1  and  C2_2
REMARK    2  A    between atoms: C2_2  and  C3_3
REMARK    3  A    between atoms: C3_3  and  C4_4
REMARK    4  A    between atoms: C3_3  and  C5_5
REMARK    5  A    between atoms: C3_3  and  C6_6
REMARK    6  A    between atoms: C6_6  and  O2_8
REMARK    7  A    between atoms: O2_8  and  C7_9
REMARK    8  A    between atoms: C9_12  and  C33_46
REMARK    9  A    between atoms: C10_14  and  O6_37
REMARK   10  A    between atoms: C13_19  and  C18_26
REMARK   11  A    between atoms: C14_21  and  C17_25
REMARK   12  A    between atoms: C18_26  and  C19_27
REMARK   13  A    between atoms: C19_27  and  C20_28
REMARK   14  A    between atoms: C22_30  and  O5_36
REMARK   15  A    between atoms: O6_37  and  C25_38
REMARK   16  A    between atoms: C25_38  and  C26_39
REMARK   17  A    between atoms: C26_39  and  C27_40
REMARK                            x       y       z     vdW  Elec       q    Type
REMARK                         _______ _______ _______ _____ _____    ______ ____
ROOT
ATOM      1  C7  <0> A   1     -13.896   9.419  47.553  0.00  0.00    +0.184 C 
ATOM      2  C8  <0> A   1     -13.051   8.678  48.604  0.00  0.00    +0.014 C 
ATOM      3  C9  <0> A   1     -13.020   9.491  49.897  0.00  0.00    +0.002 C 
ATOM      4  C10 <0> A   1     -12.391  10.858  49.623  0.00  0.00    +0.163 C 
ATOM      5  C11 <0> A   1     -13.191  11.596  48.556  0.00  0.00    -0.020 C 
ATOM      6  C12 <0> A   1     -13.266  10.771  47.263  0.00  0.00    +0.029 C 
ATOM      7  C13 <0> A   1     -13.985  11.602  46.216  0.00  0.00    -0.008 C 
ATOM      8  C14 <0> A   1     -15.350  12.112  46.642  0.00  0.00    -0.020 C 
ATOM      9  C15 <0> A   1     -15.348  12.731  48.032  0.00  0.00    +0.012 C 
ATOM     10  C16 <0> A   1     -14.615  11.859  49.048  0.00  0.00    +0.013 C 
ATOM     11  C17 <0> A   1     -16.425  11.036  46.517  0.00  0.00    +0.014 C 
ATOM     12  C33 <0> A   1     -12.187   8.750  50.946  0.00  0.00    +0.028 C 
ENDROOT
BRANCH   1  13
ATOM     13  O2  <0> A   1     -13.945   8.592  46.389  0.00  0.00    -0.335 OA
BRANCH  13  14
ATOM     14  C6  <0> A   1     -14.828   7.582  46.394  0.00  0.00    +0.472 C 
ATOM     15  O1  <0> A   1     -15.910   7.729  46.913  0.00  0.00    -0.509 OA
BRANCH  14  16
ATOM     16  C3  <0> A   1     -14.473   6.266  45.753  0.00  0.00    -0.057 C 
ATOM     17  C4  <0> A   1     -15.727   5.394  45.651  0.00  0.00    +0.056 C 
ATOM     18  C5  <0> A   1     -13.424   5.551  46.606  0.00  0.00    +0.077 C 
BRANCH  16  20
ATOM     19  C1  <0> A   1     -14.973   6.178  43.307  0.00  0.00    +0.022 C 
ATOM     20  C2  <0> A   1     -13.909   6.515  44.354  0.00  0.00    +0.033 C 
ENDBRANCH  16  20
ENDBRANCH  14  16
ENDBRANCH  13  14
ENDBRANCH   1  13
BRANCH   7  21
ATOM     21  C18 <0> A   1     -14.076  10.893  44.867  0.00  0.00    +0.035 C 
BRANCH  21  22
ATOM     22  C19 <0> A   1     -13.696  11.868  43.750  0.00  0.00    +0.042 C 
BRANCH  22  23
ATOM     23  C20 <0> A   1     -13.068  11.094  42.590  0.00  0.00    +0.196 C 
ATOM     24  C21 <0> A   1     -13.945  11.242  41.343  0.00  0.00    +0.037 C 
ATOM     25  C22 <0> A   1     -13.335  10.432  40.194  0.00  0.00    +0.182 C 
ATOM     26  C23 <0> A   1     -13.252   8.959  40.615  0.00  0.00    +0.016 C 
ATOM     27  C24 <0> A   1     -12.549   8.886  41.953  0.00  0.00    +0.495 C 
ATOM     28  O3  <0> A   1     -11.638   8.114  42.135  0.00  0.00    -0.447 OA
ATOM     29  O4  <0> A   1     -12.968   9.709  42.937  0.00  0.00    -0.361 OA
BRANCH  25  30
ATOM     30  O5  <0> A   1     -12.025  10.925  39.905  0.00  0.00    -0.563 OA
ATOM     31  H38 <0> A   1     -11.629  10.545  39.108  0.00  0.00    +0.386 HD
ENDBRANCH  25  30
ENDBRANCH  22  23
ENDBRANCH  21  22
ENDBRANCH   7  21
BRANCH   4  32
ATOM     32  O6  <0> A   1     -11.042  10.683  49.183  0.00  0.00    -0.371 OA
BRANCH  32  33
ATOM     33  C25 <0> A   1     -10.146  11.701  49.637  0.00  0.00    +0.166 C 
BRANCH  33  34
ATOM     34  C26 <0> A   1      -9.335  11.174  50.822  0.00  0.00    +0.083 C 
BRANCH  34  35
ATOM     35  C27 <0> A   1      -9.393  12.168  51.953  0.00  0.00    -0.083 A 
ATOM     36  C28 <0> A   1      -8.842  11.852  53.180  0.00  0.00    +0.007 A 
ATOM     37  C29 <0> A   1      -8.895  12.764  54.218  0.00  0.00    +0.004 A 
ATOM     38  C30 <0> A   1      -9.500  13.992  54.027  0.00  0.00    -0.000 A 
ATOM     39  C31 <0> A   1     -10.051  14.309  52.799  0.00  0.00    +0.004 A 
ATOM     40  C32 <0> A   1      -9.993  13.399  51.761  0.00  0.00    +0.007 A 
ENDBRANCH  34  35
ENDBRANCH  33  34
ENDBRANCH  32  33
ENDBRANCH   4  32
TORSDOF 12
ENDMDL
