REMARK VINA RESULT:      -7.1      2.099      4.583
REMARK  Name = CHEMBL140527
REMARK  12 active torsions:
REMARK  status: ('A' for Active; 'I' for Inactive)
REMARK    1  A    between atoms: C1_1  and  C2_2
REMARK    2  A    between atoms: C4_4  and  C21_27
REMARK    3  A    between atoms: C5_5  and  O1_15
REMARK    4  A    between atoms: C6_6  and  C8_8
REMARK    5  A    between atoms: O1_15  and  C15_16
REMARK    6  A    between atoms: C15_16  and  C16_17
REMARK    7  A    between atoms: C16_17  and  C17_18
REMARK    8  A    between atoms: C16_17  and  O5_26
REMARK    9  A    between atoms: C17_18  and  C18_19
REMARK   10  A    between atoms: C18_19  and  C19_21
REMARK   11  A    between atoms: C18_19  and  O4_25
REMARK   12  A    between atoms: C19_21  and  C20_22
REMARK                            x       y       z     vdW  Elec       q    Type
REMARK                         _______ _______ _______ _____ _____    ______ ____
ROOT
ATOM      1  C1  <0> A   1     -17.827   8.629  50.448  0.00  0.00    +0.087 C 
ATOM      2  C2  <0> A   1     -17.034   9.007  49.224  0.00  0.00    -0.089 A 
ATOM      3  C3  <0> A   1     -16.704  10.331  48.997  0.00  0.00    +0.006 A 
ATOM      4  C4  <0> A   1     -15.977  10.680  47.876  0.00  0.00    -0.095 A 
ATOM      5  C5  <0> A   1     -15.578   9.702  46.977  0.00  0.00    +0.092 A 
ATOM      6  C6  <0> A   1     -15.909   8.375  47.207  0.00  0.00    -0.086 A 
ATOM      7  C7  <0> A   1     -16.632   8.030  48.332  0.00  0.00    +0.012 A 
ATOM      8  C21 <0> A   1     -15.619  12.124  47.630  0.00  0.00    +0.096 C 
ENDROOT
BRANCH   6   9
ATOM      9  C8  <0> A   1     -15.477   7.310  46.232  0.00  0.00    +0.039 C 
ATOM     10  C9  <0> A   1     -16.664   6.361  45.970  0.00  0.00    +0.026 C 
ATOM     11  C10 <0> A   1     -16.424   5.644  44.670  0.00  0.00    +0.003 C 
ATOM     12  C11 <0> A   1     -15.744   4.275  44.868  0.00  0.00    -0.002 C 
ATOM     13  C12 <0> A   1     -14.621   4.313  45.923  0.00  0.00    -0.002 C 
ATOM     14  C13 <0> A   1     -13.768   5.547  45.811  0.00  0.00    +0.013 C 
ATOM     15  C14 <0> A   1     -14.320   6.615  46.778  0.00  0.00    +0.008 C 
ENDBRANCH   6   9
BRANCH   5  16
ATOM     16  O1  <0> A   1     -14.862  10.044  45.873  0.00  0.00    -0.318 OA
BRANCH  16  17
ATOM     17  C15 <0> A   1     -13.455  10.219  46.040  0.00  0.00    +0.146 C 
BRANCH  17  18
ATOM     18  C16 <0> A   1     -12.875  10.906  44.803  0.00  0.00    +0.224 C 
BRANCH  18  19
ATOM     19  O5  <0> A   1     -11.519  10.495  44.620  0.00  0.00    -0.531 OA
ATOM     20  H28 <0> A   1     -10.900  10.893  45.247  0.00  0.00    +0.363 HD
ENDBRANCH  18  19
BRANCH  18  21
ATOM     21  C17 <0> A   1     -13.697  10.515  43.571  0.00  0.00    -0.043 C 
BRANCH  21  22
ATOM     22  C18 <0> A   1     -13.292  11.397  42.388  0.00  0.00    +0.234 C 
BRANCH  22  23
ATOM     23  O4  <0> A   1     -12.106  10.873  41.786  0.00  0.00    -0.527 OA
ATOM     24  H27 <0> A   1     -11.310  10.985  42.323  0.00  0.00    +0.350 HD
ENDBRANCH  22  23
BRANCH  22  25
ATOM     25  C19 <0> A   1     -14.421  11.417  41.357  0.00  0.00    -0.101 C 
BRANCH  25  26
ATOM     26  C20 <0> A   1     -13.889  10.969  40.020  0.00  0.00    +0.491 C 
ATOM     27  O2  <0> A   1     -13.724   9.781  39.797  0.00  0.00    -0.680 OA
ATOM     28  O3  <0> A   1     -13.623  11.793  39.162  0.00  0.00    -0.713 OA
ENDBRANCH  25  26
ENDBRANCH  22  25
ENDBRANCH  21  22
ENDBRANCH  18  21
ENDBRANCH  17  18
ENDBRANCH  16  17
ENDBRANCH   5  16
TORSDOF 10
