REMARK VINA RESULT:      -8.5      4.123      9.045
REMARK  Name = CHEMBL154699
REMARK  6 active torsions:
REMARK  status: ('A' for Active; 'I' for Inactive)
REMARK    1  A    between atoms: C4_4  and  C7_7
REMARK    2  A    between atoms: C9_9  and  C25_30
REMARK    3  A    between atoms: C10_10  and  C18_19
REMARK    4  A    between atoms: C11_11  and  C12_13
REMARK    5  A    between atoms: C19_20  and  C20_21
REMARK    6  A    between atoms: C22_23  and  O3_29
REMARK                            x       y       z     vdW  Elec       q    Type
REMARK                         _______ _______ _______ _____ _____    ______ ____
ROOT
ATOM      1  C7  <0> A   1     -25.243  -5.903  51.234  0.00  0.00    +0.178 A 
ATOM      2  C8  <0> A   1     -24.593  -4.677  51.125  0.00  0.00    -0.015 A 
ATOM      3  C9  <0> A   1     -25.253  -3.522  51.540  0.00  0.00    +0.012 A 
ATOM      4  C10 <0> A   1     -26.561  -3.651  52.055  0.00  0.00    -0.099 A 
ATOM      5  C11 <0> A   1     -27.136  -4.920  52.127  0.00  0.00    +0.164 A 
ATOM      6  N1  <0> A   1     -26.477  -5.982  51.719  0.00  0.00    -0.467 NA
ENDROOT
BRANCH   3   7
ATOM      7  C25 <0> A   1     -24.601  -2.195  51.443  0.00  0.00    -0.066 A 
ATOM      8  C26 <0> A   1     -23.777  -1.742  52.473  0.00  0.00    +0.075 A 
ATOM      9  C27 <0> A   1     -23.173  -0.507  52.377  0.00  0.00    -0.013 A 
ATOM     10  C28 <0> A   1     -23.382   0.285  51.259  0.00  0.00    +0.109 A 
ATOM     11  C29 <0> A   1     -24.200  -0.160  50.233  0.00  0.00    -0.013 A 
ATOM     12  C30 <0> A   1     -24.804  -1.398  50.317  0.00  0.00    +0.061 A 
ATOM     13  F1  <0> A   1     -22.788   1.495  51.171  0.00  0.00    -0.136 F 
ENDBRANCH   3   7
BRANCH   1  17
ATOM     14  C1  <0> A   1     -23.256  -9.445  49.975  0.00  0.00    +0.017 A 
ATOM     15  C2  <0> A   1     -23.373  -9.162  51.325  0.00  0.00    +0.000 A 
ATOM     16  C3  <0> A   1     -24.015  -8.014  51.739  0.00  0.00    +0.057 A 
ATOM     17  C4  <0> A   1     -24.549  -7.139  50.795  0.00  0.00    -0.052 A 
ATOM     18  C5  <0> A   1     -24.429  -7.428  49.437  0.00  0.00    +0.024 A 
ATOM     19  C6  <0> A   1     -23.784  -8.580  49.034  0.00  0.00    +0.003 A 
ENDBRANCH   1  17
BRANCH   5  20
ATOM     20  C12 <0> A   1     -28.531  -5.074  52.675  0.00  0.00    +0.054 C 
ATOM     21  C13 <0> A   1     -28.571  -6.258  53.643  0.00  0.00    +0.026 C 
ATOM     22  C14 <0> A   1     -29.988  -6.415  54.200  0.00  0.00    +0.005 C 
ATOM     23  C15 <0> A   1     -30.963  -6.666  53.047  0.00  0.00    +0.003 C 
ATOM     24  C16 <0> A   1     -30.923  -5.483  52.077  0.00  0.00    +0.006 C 
ATOM     25  C17 <0> A   1     -29.506  -5.326  51.522  0.00  0.00    +0.025 C 
ENDBRANCH   5  20
BRANCH   4  26
ATOM     26  C18 <0> A   1     -27.308  -2.462  52.509  0.00  0.00    +0.049 C 
ATOM     27  C19 <0> A   1     -28.081  -1.799  51.658  0.00  0.00    -0.012 C 
BRANCH  27  28
ATOM     28  C20 <0> A   1     -28.844  -0.585  52.122  0.00  0.00    +0.242 C 
ATOM     29  C21 <0> A   1     -30.341  -0.903  52.156  0.00  0.00    +0.050 C 
ATOM     30  C22 <0> A   1     -31.116   0.345  52.588  0.00  0.00    +0.186 C 
ATOM     31  C23 <0> A   1     -30.835   1.474  51.589  0.00  0.00    +0.024 C 
ATOM     32  C24 <0> A   1     -29.336   1.616  51.442  0.00  0.00    +0.498 C 
ATOM     33  O1  <0> A   1     -28.803   2.697  51.522  0.00  0.00    -0.450 OA
ATOM     34  O2  <0> A   1     -28.611   0.501  51.217  0.00  0.00    -0.369 OA
BRANCH  30  35
ATOM     35  O3  <0> A   1     -30.693   0.743  53.895  0.00  0.00    -0.563 OA
ATOM     36  H26 <0> A   1     -30.034   0.155  54.290  0.00  0.00    +0.387 HD
ENDBRANCH  30  35
ENDBRANCH  27  28
ENDBRANCH   4  26
TORSDOF 6
