REMARK  Name = CHEMBL253153
REMARK  15 active torsions:
REMARK  status: ('A' for Active; 'I' for Inactive)
REMARK    1  A    between atoms: C1_1  and  C2_2
REMARK    2  A    between atoms: C2_2  and  C3_3
REMARK    3  A    between atoms: C2_2  and  C4_4
REMARK    4  A    between atoms: C5_5  and  C24_29
REMARK    5  A    between atoms: N1_6  and  C18_22
REMARK    6  A    between atoms: C6_8  and  C7_9
REMARK    7  A    between atoms: C11_15  and  C12_16
REMARK    8  A    between atoms: C24_29  and  C25_30
REMARK    9  A    between atoms: C25_30  and  C26_31
REMARK   10  A    between atoms: C26_31  and  C27_33
REMARK   11  A    between atoms: C26_31  and  O5_41
REMARK   12  A    between atoms: C27_33  and  C28_34
REMARK   13  A    between atoms: C28_34  and  C29_36
REMARK   14  A    between atoms: C28_34  and  O4_40
REMARK   15  A    between atoms: C29_36  and  C30_37
REMARK                            x       y       z     vdW  Elec       q    Type
REMARK                         _______ _______ _______ _____ _____    ______ ____
ROOT
ATOM      1  C4  <0> A   1      -1.607  -0.735   0.578  0.00  0.00    -0.124 C 
ATOM      2  C5  <0> A   1      -2.085  -1.797  -0.113  0.00  0.00    +0.027 C 
ATOM      3  N1  <0> A   1      -3.334  -2.050   0.357  0.00  0.00    -0.234 N 
ATOM      4  N2  <0> A   1      -3.636  -1.211   1.282  0.00  0.00    -0.257 NA
ATOM      5  C6  <0> A   1      -2.634  -0.378   1.483  0.00  0.00    -0.001 C 
ENDROOT
BRANCH   5   6
ATOM      6  C7  <0> A   1      -2.593   0.724   2.466  0.00  0.00    +0.618 C 
ATOM      7  O1  <0> A   1      -1.640   1.478   2.494  0.00  0.00    -0.502 OA
ATOM      8  N3  <0> A   1      -3.612   0.893   3.331  0.00  0.00    -0.603 N 
ATOM      9  C8  <0> A   1      -4.821   0.052   3.411  0.00  0.00    +0.263 C 
ATOM     10  C9  <0> A   1      -5.332   0.230   4.862  0.00  0.00    +0.028 C 
ATOM     11  C10 <0> A   1      -5.024   1.728   5.120  0.00  0.00    +0.043 C 
ATOM     12  C11 <0> A   1      -3.701   1.943   4.356  0.00  0.00    +0.266 C 
BRANCH  12  13
ATOM     13  C12 <0> A   1      -3.704   3.300   3.701  0.00  0.00    -0.084 A 
ATOM     14  C13 <0> A   1      -4.421   3.503   2.537  0.00  0.00    +0.013 A 
ATOM     15  C14 <0> A   1      -4.425   4.748   1.935  0.00  0.00    -0.001 A 
ATOM     16  C15 <0> A   1      -3.712   5.790   2.499  0.00  0.00    -0.000 A 
ATOM     17  C16 <0> A   1      -2.996   5.587   3.664  0.00  0.00    +0.002 A 
ATOM     18  C17 <0> A   1      -2.996   4.343   4.267  0.00  0.00    +0.016 A 
ENDBRANCH  12  13
ENDBRANCH   5   6
BRANCH   3  19
ATOM     19  C18 <0> A   1      -4.172  -3.076  -0.102  0.00  0.00    +0.119 A 
ATOM     20  C19 <0> A   1      -3.658  -4.347  -0.322  0.00  0.00    +0.068 A 
ATOM     21  C20 <0> A   1      -4.485  -5.356  -0.774  0.00  0.00    +0.021 A 
ATOM     22  C21 <0> A   1      -5.826  -5.102  -1.007  0.00  0.00    +0.112 A 
ATOM     23  C22 <0> A   1      -6.341  -3.835  -0.788  0.00  0.00    +0.008 A 
ATOM     24  C23 <0> A   1      -5.518  -2.824  -0.330  0.00  0.00    +0.070 A 
ATOM     25  F1  <0> A   1      -6.633  -6.091  -1.448  0.00  0.00    -0.131 F 
ENDBRANCH   3  19
BRANCH   1  27
ATOM     26  C1  <0> A   1      -0.453   1.382   0.002  0.00  0.00    +0.028 C 
ATOM     27  C2  <0> A   1      -0.261  -0.077   0.420  0.00  0.00    +0.061 C 
ATOM     28  C3  <0> A   1       0.492  -0.130   1.751  0.00  0.00    +0.025 C 
ENDBRANCH   1  27
BRANCH   2  29
ATOM     29  C24 <0> A   1      -1.367  -2.555  -1.199  0.00  0.00    +0.127 C 
BRANCH  29  30
ATOM     30  C25 <0> A   1      -1.779  -2.002  -2.565  0.00  0.00    -0.009 C 
BRANCH  30  31
ATOM     31  C26 <0> A   1      -1.144  -2.848  -3.670  0.00  0.00    +0.214 C 
BRANCH  31  32
ATOM     32  O5  <0> A   1      -1.677  -4.173  -3.622  0.00  0.00    -0.540 OA
ATOM     33  H35 <0> A   1      -2.635  -4.216  -3.745  0.00  0.00    +0.363 HD
ENDBRANCH  31  32
BRANCH  31  34
ATOM     34  C27 <0> A   1      -1.453  -2.223  -5.032  0.00  0.00    -0.052 C 
BRANCH  34  35
ATOM     35  C28 <0> A   1      -0.716  -2.997  -6.127  0.00  0.00    +0.231 C 
BRANCH  35  36
ATOM     36  O4  <0> A   1      -1.228  -4.329  -6.197  0.00  0.00    -0.528 OA
ATOM     37  H34 <0> A   1      -2.173  -4.377  -6.401  0.00  0.00    +0.349 HD
ENDBRANCH  35  36
BRANCH  35  38
ATOM     38  C29 <0> A   1      -0.924  -2.299  -7.473  0.00  0.00    -0.103 C 
BRANCH  38  39
ATOM     39  C30 <0> A   1      -0.100  -2.988  -8.529  0.00  0.00    +0.491 C 
ATOM     40  O2  <0> A   1       0.590  -3.949  -8.233  0.00  0.00    -0.681 OA
ATOM     41  O3  <0> A   1      -0.123  -2.585  -9.680  0.00  0.00    -0.713 OA
ENDBRANCH  38  39
ENDBRANCH  35  38
ENDBRANCH  34  35
ENDBRANCH  31  34
ENDBRANCH  30  31
ENDBRANCH  29  30
ENDBRANCH   2  29
TORSDOF 13
