REMARK VINA RESULT:      -7.3      2.236      7.727
REMARK  Name = CHEMBL330777
REMARK  13 active torsions:
REMARK  status: ('A' for Active; 'I' for Inactive)
REMARK    1  A    between atoms: C1_1  and  C2_2
REMARK    2  A    between atoms: C2_2  and  O1_3
REMARK    3  A    between atoms: O1_3  and  C3_4
REMARK    4  A    between atoms: C3_4  and  C4_6
REMARK    5  A    between atoms: C5_7  and  C24_32
REMARK    6  A    between atoms: C6_8  and  C18_26
REMARK    7  A    between atoms: N1_9  and  C11_14
REMARK    8  A    between atoms: C7_10  and  C8_11
REMARK    9  A    between atoms: C8_11  and  C9_12
REMARK   10  A    between atoms: C8_11  and  C10_13
REMARK   11  A    between atoms: C11_14  and  C12_15
REMARK   12  A    between atoms: C12_15  and  C13_16
REMARK   13  A    between atoms: C15_19  and  O5_25
REMARK                            x       y       z     vdW  Elec       q    Type
REMARK                         _______ _______ _______ _____ _____    ______ ____
ROOT
ATOM      1  C4  <0> A   1     -14.428   7.193  46.278  0.00  0.00    -0.188 C 
ATOM      2  C5  <0> A   1     -15.064   8.247  47.085  0.00  0.00    -0.066 C 
ATOM      3  C6  <0> A   1     -14.639   9.445  46.544  0.00  0.00    +0.072 C 
ATOM      4  N1  <0> A   1     -13.808   9.171  45.489  0.00  0.00    -0.419 N 
ATOM      5  C7  <0> A   1     -13.671   7.841  45.326  0.00  0.00    +0.099 C 
ENDROOT
BRANCH   3   6
ATOM      6  C18 <0> A   1     -15.016  10.791  47.020  0.00  0.00    -0.022 A 
ATOM      7  C19 <0> A   1     -14.072  11.598  47.658  0.00  0.00    +0.036 A 
ATOM      8  C20 <0> A   1     -14.430  12.855  48.099  0.00  0.00    +0.008 A 
ATOM      9  C21 <0> A   1     -15.721  13.316  47.912  0.00  0.00    +0.012 A 
ATOM     10  C22 <0> A   1     -16.662  12.521  47.282  0.00  0.00    +0.010 A 
ATOM     11  C23 <0> A   1     -16.316  11.264  46.830  0.00  0.00    +0.015 A 
ENDBRANCH   3   6
BRANCH   2  12
ATOM     12  C24 <0> A   1     -15.973   8.062  48.238  0.00  0.00    -0.015 A 
ATOM     13  C25 <0> A   1     -15.481   8.167  49.541  0.00  0.00    +0.023 A 
ATOM     14  C26 <0> A   1     -16.334   7.992  50.612  0.00  0.00    +0.002 A 
ATOM     15  C27 <0> A   1     -17.672   7.715  50.397  0.00  0.00    +0.003 A 
ATOM     16  C28 <0> A   1     -18.165   7.610  49.109  0.00  0.00    +0.002 A 
ATOM     17  C29 <0> A   1     -17.324   7.788  48.029  0.00  0.00    +0.018 A 
ENDBRANCH   2  12
BRANCH   5  18
ATOM     18  C8  <0> A   1     -12.830   7.170  44.272  0.00  0.00    +0.046 C 
ATOM     19  C9  <0> A   1     -13.614   7.105  42.960  0.00  0.00    +0.042 C 
ATOM     20  C10 <0> A   1     -11.545   7.971  44.059  0.00  0.00    +0.043 C 
ENDBRANCH   5  18
BRANCH   1  21
ATOM     21  C3  <0> A   1     -14.567   5.740  46.456  0.00  0.00    +0.555 C 
ATOM     22  O2  <0> A   1     -13.616   5.079  46.825  0.00  0.00    -0.498 OA
BRANCH  21  23
ATOM     23  O1  <0> A   1     -15.749   5.141  46.209  0.00  0.00    -0.345 OA
BRANCH  23  25
ATOM     24  C1  <0> A   1     -16.741   5.471  44.030  0.00  0.00    +0.061 C 
ATOM     25  C2  <0> A   1     -15.917   4.541  44.923  0.00  0.00    +0.192 C 
ENDBRANCH  23  25
ENDBRANCH  21  23
ENDBRANCH   1  21
BRANCH   4  26
ATOM     26  C11 <0> A   1     -13.155  10.184  44.656  0.00  0.00    +0.298 C 
BRANCH  26  27
ATOM     27  C12 <0> A   1     -14.202  10.883  43.787  0.00  0.00    +0.053 C 
BRANCH  27  28
ATOM     28  C13 <0> A   1     -13.974  10.518  42.319  0.00  0.00    +0.204 C 
ATOM     29  C14 <0> A   1     -12.486  10.644  41.986  0.00  0.00    +0.046 C 
ATOM     30  C15 <0> A   1     -12.267  10.318  40.506  0.00  0.00    +0.187 C 
ATOM     31  C16 <0> A   1     -13.087  11.297  39.655  0.00  0.00    +0.024 C 
ATOM     32  C17 <0> A   1     -14.514  11.280  40.157  0.00  0.00    +0.497 C 
ATOM     33  O3  <0> A   1     -15.440  11.156  39.391  0.00  0.00    -0.450 OA
ATOM     34  O4  <0> A   1     -14.724  11.406  41.484  0.00  0.00    -0.368 OA
BRANCH  30  35
ATOM     35  O5  <0> A   1     -12.692   8.979  40.243  0.00  0.00    -0.564 OA
ATOM     36  H23 <0> A   1     -12.037   8.306  40.471  0.00  0.00    +0.388 HD
ENDBRANCH  30  35
ENDBRANCH  27  28
ENDBRANCH  26  27
ENDBRANCH   4  26
TORSDOF 10
