REMARK VINA RESULT:      -8.3      2.789      4.799
REMARK  Name = CHEMBL157724
REMARK  8 active torsions:
REMARK  status: ('A' for Active; 'I' for Inactive)
REMARK    1  A    between atoms: C1_1  and  C2_2
REMARK    2  A    between atoms: C2_2  and  C3_3
REMARK    3  A    between atoms: C2_2  and  C4_4
REMARK    4  A    between atoms: C5_5  and  C21_24
REMARK    5  A    between atoms: C6_6  and  C15_17
REMARK    6  A    between atoms: C8_8  and  C9_10
REMARK    7  A    between atoms: C22_25  and  C23_26
REMARK    8  A    between atoms: C25_28  and  O3_34
REMARK                            x       y       z     vdW  Elec       q    Type
REMARK                         _______ _______ _______ _____ _____    ______ ____
ROOT
ATOM      1  C4  <0> A   1     -28.424  -2.816  51.689  0.00  0.00    +0.166 A 
ATOM      2  C5  <0> A   1     -27.039  -2.782  51.852  0.00  0.00    -0.097 A 
ATOM      3  C6  <0> A   1     -26.412  -1.544  52.107  0.00  0.00    +0.013 A 
ATOM      4  C7  <0> A   1     -27.212  -0.406  52.185  0.00  0.00    -0.014 A 
ATOM      5  C8  <0> A   1     -28.587  -0.532  52.009  0.00  0.00    +0.177 A 
ATOM      6  N1  <0> A   1     -29.140  -1.715  51.765  0.00  0.00    -0.468 NA
ENDROOT
BRANCH   5   7
ATOM      7  C9  <0> A   1     -29.448   0.672  52.090  0.00  0.00    -0.061 A 
ATOM      8  C10 <0> A   1     -28.874   1.932  52.257  0.00  0.00    +0.065 A 
ATOM      9  C11 <0> A   1     -29.678   3.050  52.332  0.00  0.00    -0.016 A 
ATOM     10  C12 <0> A   1     -31.055   2.922  52.242  0.00  0.00    +0.111 A 
ATOM     11  C13 <0> A   1     -31.630   1.672  52.076  0.00  0.00    -0.018 A 
ATOM     12  C14 <0> A   1     -30.833   0.549  51.993  0.00  0.00    +0.097 A 
ATOM     13  F1  <0> A   1     -31.840   4.020  52.317  0.00  0.00    -0.136 F 
ENDBRANCH   5   7
BRANCH   3  14
ATOM     14  C15 <0> A   1     -24.945  -1.456  52.288  0.00  0.00    -0.067 A 
ATOM     15  C16 <0> A   1     -24.114  -1.256  51.186  0.00  0.00    +0.076 A 
ATOM     16  C17 <0> A   1     -22.748  -1.176  51.359  0.00  0.00    -0.013 A 
ATOM     17  C18 <0> A   1     -22.200  -1.293  52.627  0.00  0.00    +0.109 A 
ATOM     18  C19 <0> A   1     -23.022  -1.491  53.725  0.00  0.00    -0.013 A 
ATOM     19  C20 <0> A   1     -24.389  -1.568  53.562  0.00  0.00    +0.061 A 
ATOM     20  F2  <0> A   1     -20.862  -1.214  52.792  0.00  0.00    -0.136 F 
ENDBRANCH   3  14
BRANCH   1  22
ATOM     21  C1  <0> A   1     -30.386  -4.224  52.253  0.00  0.00    +0.038 C 
ATOM     22  C2  <0> A   1     -29.109  -4.131  51.416  0.00  0.00    +0.043 C 
ATOM     23  C3  <0> A   1     -29.464  -4.222  49.930  0.00  0.00    +0.039 C 
ENDBRANCH   1  22
BRANCH   2  24
ATOM     24  C21 <0> A   1     -26.242  -4.020  51.760  0.00  0.00    +0.047 C 
ATOM     25  C22 <0> A   1     -25.744  -4.404  50.591  0.00  0.00    -0.010 C 
BRANCH  25  26
ATOM     26  C23 <0> A   1     -24.930  -5.670  50.498  0.00  0.00    +0.242 C 
ATOM     27  C24 <0> A   1     -25.641  -6.668  49.581  0.00  0.00    +0.050 C 
ATOM     28  C25 <0> A   1     -24.832  -7.967  49.522  0.00  0.00    +0.186 C 
ATOM     29  C26 <0> A   1     -24.709  -8.541  50.939  0.00  0.00    +0.024 C 
ATOM     30  C27 <0> A   1     -24.187  -7.451  51.849  0.00  0.00    +0.498 C 
ATOM     31  O1  <0> A   1     -23.261  -7.656  52.596  0.00  0.00    -0.450 OA
ATOM     32  O2  <0> A   1     -24.788  -6.243  51.801  0.00  0.00    -0.369 OA
BRANCH  28  33
ATOM     33  O3  <0> A   1     -23.531  -7.697  48.997  0.00  0.00    -0.564 OA
ATOM     34  H25 <0> A   1     -23.450  -7.850  48.045  0.00  0.00    +0.387 HD
ENDBRANCH  28  33
ENDBRANCH  25  26
ENDBRANCH   2  24
TORSDOF 6
