REMARK VINA RESULT:      -7.3      9.177     11.477
REMARK  Name = CHEMBL101497
REMARK  13 active torsions:
REMARK  status: ('A' for Active; 'I' for Inactive)
REMARK    1  A    between atoms: C1_1  and  C2_2
REMARK    2  A    between atoms: C2_2  and  C3_3
REMARK    3  A    between atoms: C2_2  and  C4_4
REMARK    4  A    between atoms: C11_12  and  C19_26
REMARK    5  A    between atoms: C12_13  and  O1_14
REMARK    6  A    between atoms: O1_14  and  C13_15
REMARK    7  A    between atoms: C13_15  and  C14_16
REMARK    8  A    between atoms: C14_16  and  C15_17
REMARK    9  A    between atoms: C14_16  and  O5_25
REMARK   10  A    between atoms: C15_17  and  C16_18
REMARK   11  A    between atoms: C16_18  and  C17_20
REMARK   12  A    between atoms: C16_18  and  O4_24
REMARK   13  A    between atoms: C17_20  and  C18_21
REMARK                            x       y       z     vdW  Elec       q    Type
REMARK                         _______ _______ _______ _____ _____    ______ ____
ROOT
ATOM      1  C4  <0> A   1      -5.007   3.727  46.193  0.00  0.00    -0.033 A 
ATOM      2  C5  <0> A   1      -3.860   3.480  45.413  0.00  0.00    -0.085 A 
ATOM      3  C6  <0> A   1      -3.934   2.732  44.227  0.00  0.00    +0.040 A 
ATOM      4  C7  <0> A   1      -2.807   2.513  43.497  0.00  0.00    +0.009 A 
ATOM      5  C8  <0> A   1      -1.577   3.020  43.911  0.00  0.00    +0.028 A 
ATOM      6  C9  <0> A   1      -1.467   3.748  45.057  0.00  0.00    +0.045 A 
ATOM      7  C10 <0> A   1      -2.611   3.997  45.837  0.00  0.00    +0.127 A 
ATOM      8  N1  <0> A   1      -2.529   4.709  46.965  0.00  0.00    -0.458 NA
ATOM      9  C11 <0> A   1      -3.595   4.947  47.704  0.00  0.00    +0.195 A 
ATOM     10  C12 <0> A   1      -4.867   4.466  47.335  0.00  0.00    +0.058 A 
ENDROOT
BRANCH   9  11
ATOM     11  C19 <0> A   1      -3.453   5.741  48.946  0.00  0.00    -0.070 A 
ATOM     12  C20 <0> A   1      -3.358   5.099  50.181  0.00  0.00    +0.100 A 
ATOM     13  C21 <0> A   1      -3.226   5.844  51.334  0.00  0.00    -0.015 A 
ATOM     14  C22 <0> A   1      -3.189   7.228  51.268  0.00  0.00    +0.115 A 
ATOM     15  C23 <0> A   1      -3.284   7.870  50.045  0.00  0.00    -0.026 A 
ATOM     16  C24 <0> A   1      -3.409   7.134  48.884  0.00  0.00    +0.087 A 
ATOM     17  F1  <0> A   1      -3.060   7.953  52.401  0.00  0.00    -0.136 F 
ENDBRANCH   9  11
BRANCH   1  19
ATOM     18  C1  <0> A   1      -6.872   3.995  44.581  0.00  0.00    +0.036 C 
ATOM     19  C2  <0> A   1      -6.354   3.194  45.777  0.00  0.00    +0.039 C 
ATOM     20  C3  <0> A   1      -6.221   1.721  45.385  0.00  0.00    +0.031 C 
ENDBRANCH   1  19
BRANCH  10  21
ATOM     21  O1  <0> A   1      -5.949   4.732  48.112  0.00  0.00    -0.310 OA
BRANCH  21  22
ATOM     22  C13 <0> A   1      -6.257   3.788  49.140  0.00  0.00    +0.149 C 
BRANCH  22  23
ATOM     23  C14 <0> A   1      -7.640   3.186  48.881  0.00  0.00    +0.228 C 
BRANCH  23  24
ATOM     24  O5  <0> A   1      -7.544   1.760  48.873  0.00  0.00    -0.530 OA
ATOM     25  H21 <0> A   1      -8.202   1.326  48.312  0.00  0.00    +0.363 HD
ENDBRANCH  23  24
BRANCH  23  26
ATOM     26  C15 <0> A   1      -8.602   3.627  49.986  0.00  0.00    -0.043 C 
BRANCH  26  27
ATOM     27  C16 <0> A   1      -9.730   4.461  49.376  0.00  0.00    +0.235 C 
BRANCH  27  28
ATOM     28  O4  <0> A   1      -9.588   5.824  49.782  0.00  0.00    -0.527 OA
ATOM     29  H20 <0> A   1      -8.761   6.235  49.497  0.00  0.00    +0.350 HD
ENDBRANCH  27  28
BRANCH  27  30
ATOM     30  C17 <0> A   1      -9.662   4.374  47.850  0.00  0.00    -0.101 C 
BRANCH  30  31
ATOM     31  C18 <0> A   1      -9.602   5.764  47.269  0.00  0.00    +0.491 C 
ATOM     32  O2  <0> A   1     -10.593   6.473  47.284  0.00  0.00    -0.680 OA
ATOM     33  O3  <0> A   1      -8.562   6.178  46.786  0.00  0.00    -0.712 OA
ENDBRANCH  30  31
ENDBRANCH  27  30
ENDBRANCH  26  27
ENDBRANCH  23  26
ENDBRANCH  22  23
ENDBRANCH  21  22
ENDBRANCH  10  21
TORSDOF 11
