REMARK VINA RESULT:      -8.0     12.163     16.447
REMARK  Name = CHEMBL320943
REMARK  13 active torsions:
REMARK  status: ('A' for Active; 'I' for Inactive)
REMARK    1  A    between atoms: C1_1  and  C2_2
REMARK    2  A    between atoms: C2_2  and  C3_3
REMARK    3  A    between atoms: C3_3  and  C4_5
REMARK    4  A    between atoms: C3_3  and  C5_6
REMARK    5  A    between atoms: C5_6  and  O2_8
REMARK    6  A    between atoms: O2_8  and  C6_9
REMARK    7  A    between atoms: C13_20  and  C18_27
REMARK    8  A    between atoms: C16_23  and  O3_26
REMARK    9  A    between atoms: C20_30  and  C31_46
REMARK   10  A    between atoms: C21_31  and  C24_34
REMARK   11  A    between atoms: C24_34  and  C25_35
REMARK   12  A    between atoms: C25_35  and  C26_36
REMARK   13  A    between atoms: C28_39  and  O6_45
REMARK                            x       y       z     vdW  Elec       q    Type
REMARK                         _______ _______ _______ _____ _____    ______ ____
ROOT
ATOM      1  C6  <0> A   1     -16.747   7.476  46.502  0.00  0.00    +0.188 C 
ATOM      2  C7  <0> A   1     -17.870   7.597  47.545  0.00  0.00    +0.016 C 
ATOM      3  C8  <0> A   1     -17.491   6.907  48.852  0.00  0.00    +0.014 C 
ATOM      4  C9  <0> A   1     -16.164   7.443  49.411  0.00  0.00    +0.004 C 
ATOM      5  C10 <0> A   1     -15.819   6.689  50.695  0.00  0.00    +0.013 C 
ATOM      6  C11 <0> A   1     -16.928   6.908  51.727  0.00  0.00    +0.013 C 
ATOM      7  C12 <0> A   1     -18.254   6.385  51.172  0.00  0.00    +0.001 C 
ATOM      8  C13 <0> A   1     -18.586   7.127  49.897  0.00  0.00    -0.049 C 
ATOM      9  C14 <0> A   1     -19.922   6.617  49.353  0.00  0.00    +0.019 C 
ATOM     10  C15 <0> A   1     -19.807   5.124  49.038  0.00  0.00    -0.019 C 
ATOM     11  C16 <0> A   1     -19.450   4.359  50.314  0.00  0.00    +0.155 C 
ATOM     12  C17 <0> A   1     -18.128   4.890  50.874  0.00  0.00    +0.033 C 
ATOM     13  C18 <0> A   1     -18.698   8.621  50.210  0.00  0.00    +0.023 C 
ATOM     14  C19 <0> A   1     -15.106   7.224  48.346  0.00  0.00    +0.003 C 
ATOM     15  C20 <0> A   1     -15.496   8.077  47.110  0.00  0.00    -0.055 C 
ATOM     16  C21 <0> A   1     -14.240   8.058  46.245  0.00  0.00    -0.002 C 
ATOM     17  C22 <0> A   1     -13.062   7.882  47.238  0.00  0.00    +0.011 C 
ATOM     18  C23 <0> A   1     -13.702   7.738  48.682  0.00  0.00    +0.018 C 
ATOM     19  C31 <0> A   1     -15.782   9.506  47.575  0.00  0.00    +0.041 C 
ENDROOT
BRANCH  11  20
ATOM     20  O3  <0> A   1     -19.342   2.965  50.019  0.00  0.00    -0.568 OA
ATOM     21  H30 <0> A   1     -20.125   2.451  50.260  0.00  0.00    +0.377 HD
ENDBRANCH  11  20
BRANCH   1  22
ATOM     22  O2  <0> A   1     -16.522   6.100  46.187  0.00  0.00    -0.335 OA
BRANCH  22  23
ATOM     23  C5  <0> A   1     -16.805   5.706  44.935  0.00  0.00    +0.462 C 
ATOM     24  O1  <0> A   1     -17.877   5.973  44.446  0.00  0.00    -0.506 OA
BRANCH  23  25
ATOM     25  C3  <0> A   1     -15.786   4.932  44.140  0.00  0.00    +0.023 C 
ATOM     26  C4  <0> A   1     -14.791   5.903  43.501  0.00  0.00    +0.058 C 
BRANCH  25  28
ATOM     27  C1  <0> A   1     -13.776   4.652  45.596  0.00  0.00    +0.022 C 
ATOM     28  C2  <0> A   1     -15.038   3.971  45.066  0.00  0.00    +0.031 C 
ENDBRANCH  25  28
ENDBRANCH  23  25
ENDBRANCH  22  23
ENDBRANCH   1  22
BRANCH  16  29
ATOM     29  C24 <0> A   1     -14.100   9.378  45.485  0.00  0.00    +0.025 C 
BRANCH  29  30
ATOM     30  C25 <0> A   1     -12.617   9.701  45.293  0.00  0.00    +0.047 C 
BRANCH  30  31
ATOM     31  C26 <0> A   1     -12.230   9.469  43.831  0.00  0.00    +0.194 C 
ATOM     32  C27 <0> A   1     -13.375   9.919  42.920  0.00  0.00    +0.039 C 
ATOM     33  C28 <0> A   1     -13.001   9.647  41.460  0.00  0.00    +0.183 C 
ATOM     34  C29 <0> A   1     -12.744   8.144  41.287  0.00  0.00    +0.021 C 
ATOM     35  C30 <0> A   1     -11.751   7.708  42.341  0.00  0.00    +0.496 C 
ATOM     36  O4  <0> A   1     -10.781   7.049  42.047  0.00  0.00    -0.454 OA
ATOM     37  O5  <0> A   1     -11.977   8.075  43.619  0.00  0.00    -0.366 OA
BRANCH  33  38
ATOM     38  O6  <0> A   1     -11.821  10.379  41.125  0.00  0.00    -0.564 OA
ATOM     39  H47 <0> A   1     -11.989  11.181  40.611  0.00  0.00    +0.386 HD
ENDBRANCH  33  38
ENDBRANCH  30  31
ENDBRANCH  29  30
ENDBRANCH  16  29
TORSDOF 9
