REMARK  Name = CHEMBL296915
REMARK  7 active torsions:
REMARK  status: ('A' for Active; 'I' for Inactive)
REMARK    1  A    between atoms: C5_5  and  C14_15
REMARK    2  A    between atoms: C6_6  and  O1_7
REMARK    3  A    between atoms: O1_7  and  C7_8
REMARK    4  A    between atoms: C7_8  and  C8_9
REMARK    5  A    between atoms: C14_15  and  C15_16
REMARK    6  A    between atoms: C15_16  and  C16_17
REMARK    7  A    between atoms: C18_19  and  O4_25
REMARK                            x       y       z     vdW  Elec       q    Type
REMARK                         _______ _______ _______ _____ _____    ______ ____
ROOT
ATOM      1  C1  <0> A   1      -0.017   1.383   0.010  0.00  0.00    -0.053 A 
ATOM      2  C2  <0> A   1       1.172   2.090   0.002  0.00  0.00    +0.013 A 
ATOM      3  C3  <0> A   1       2.379   1.414  -0.013  0.00  0.00    +0.007 A 
ATOM      4  C4  <0> A   1       2.400   0.030  -0.021  0.00  0.00    +0.013 A 
ATOM      5  C5  <0> A   1       1.214  -0.680  -0.013  0.00  0.00    -0.102 A 
ATOM      6  C6  <0> A   1       0.002  -0.004   0.002  0.00  0.00    +0.162 A 
ATOM      7 Cl1  <0> A   1       3.917  -0.814  -0.040  0.00  0.00    -0.038 Cl
ATOM      8 Cl2  <0> A   1       1.149   3.825   0.011  0.00  0.00    -0.052 Cl
ENDROOT
BRANCH   6   9
ATOM      9  O1  <0> A   1      -1.165  -0.700   0.010  0.00  0.00    -0.297 OA
BRANCH   9  10
ATOM     10  C7  <0> A   1      -2.374   0.061   0.026  0.00  0.00    +0.191 C 
BRANCH  10  11
ATOM     11  C8  <0> A   1      -3.574  -0.889   0.033  0.00  0.00    +0.000 C 
ATOM     12  C9  <0> A   1      -3.609  -1.676  -1.278  0.00  0.00    +0.017 C 
ATOM     13  C10 <0> A   1      -4.809  -2.626  -1.272  0.00  0.00    +0.005 C 
ATOM     14  C11 <0> A   1      -6.099  -1.816  -1.129  0.00  0.00    +0.001 C 
ATOM     15  C12 <0> A   1      -6.064  -1.028   0.182  0.00  0.00    +0.010 C 
ATOM     16  C13 <0> A   1      -4.864  -0.079   0.176  0.00  0.00    +0.018 C 
ENDBRANCH  10  11
ENDBRANCH   9  10
ENDBRANCH   6   9
BRANCH   5  17
ATOM     17  C14 <0> A   1       1.237  -2.186  -0.022  0.00  0.00    +0.097 C 
BRANCH  17  18
ATOM     18  C15 <0> A   1       1.259  -2.704   1.417  0.00  0.00    +0.061 C 
BRANCH  18  19
ATOM     19  C16 <0> A   1       1.282  -4.234   1.409  0.00  0.00    +0.199 C 
ATOM     20  C17 <0> A   1       1.184  -4.755   2.845  0.00  0.00    +0.041 C 
ATOM     21  C18 <0> A   1       1.249  -6.286   2.835  0.00  0.00    +0.184 C 
ATOM     22  C19 <0> A   1       2.577  -6.722   2.202  0.00  0.00    +0.020 C 
ATOM     23  C20 <0> A   1       2.719  -6.022   0.868  0.00  0.00    +0.496 C 
ATOM     24  O2  <0> A   1       3.013  -6.638  -0.129  0.00  0.00    -0.453 OA
ATOM     25  O3  <0> A   1       2.507  -4.690   0.824  0.00  0.00    -0.366 OA
BRANCH  21  26
ATOM     26  O4  <0> A   1       0.159  -6.807   2.073  0.00  0.00    -0.563 OA
ATOM     27  H26 <0> A   1       0.138  -7.773   2.025  0.00  0.00    +0.386 HD
ENDBRANCH  21  26
ENDBRANCH  18  19
ENDBRANCH  17  18
ENDBRANCH   5  17
TORSDOF 7
