MODEL 1
REMARK VINA RESULT:      -8.0      0.000      0.000
REMARK  Name = CHEMBL353734
REMARK  10 active torsions:
REMARK  status: ('A' for Active; 'I' for Inactive)
REMARK    1  A    between atoms: C1_1  and  C2_2
REMARK    2  A    between atoms: C4_5  and  O4_28
REMARK    3  A    between atoms: C6_8  and  C13_17
REMARK    4  A    between atoms: C7_10  and  C12_16
REMARK    5  A    between atoms: C13_17  and  C14_18
REMARK    6  A    between atoms: C14_18  and  C15_19
REMARK    7  A    between atoms: C17_21  and  O3_27
REMARK    8  A    between atoms: O4_28  and  C20_29
REMARK    9  A    between atoms: C20_29  and  C21_31
REMARK   10  A    between atoms: C21_31  and  C22_32
REMARK                            x       y       z     vdW  Elec       q    Type
REMARK                         _______ _______ _______ _____ _____    ______ ____
ROOT
ATOM      1  C1  <0> A   1     -28.347   1.789  51.042  0.00  0.00    +0.033 C 
ATOM      2  C2  <0> A   1     -27.301   0.901  50.364  0.00  0.00    +0.025 C 
ATOM      3  C3  <0> A   1     -27.667  -0.577  50.564  0.00  0.00    +0.020 C 
ATOM      4  C4  <0> A   1     -26.618  -1.432  49.854  0.00  0.00    +0.176 C 
ATOM      5  C5  <0> A   1     -25.228  -1.174  50.385  0.00  0.00    +0.040 C 
ATOM      6  C6  <0> A   1     -24.795  -2.239  51.396  0.00  0.00    +0.013 C 
ATOM      7  C7  <0> A   1     -23.310  -2.046  51.706  0.00  0.00    +0.022 C 
ATOM      8  C8  <0> A   1     -22.998  -0.622  52.056  0.00  0.00    -0.032 C 
ATOM      9  C9  <0> A   1     -23.771   0.403  51.744  0.00  0.00    -0.006 C 
ATOM     10  C10 <0> A   1     -25.040   0.174  51.017  0.00  0.00    -0.086 C 
ATOM     11  C11 <0> A   1     -25.951   1.129  50.995  0.00  0.00    -0.022 C 
ATOM     12  C12 <0> A   1     -22.487  -2.449  50.481  0.00  0.00    +0.029 C 
ENDROOT
BRANCH   6  13
ATOM     13  C13 <0> A   1     -25.022  -3.631  50.802  0.00  0.00    +0.057 C 
BRANCH  13  14
ATOM     14  C14 <0> A   1     -24.797  -4.689  51.885  0.00  0.00    +0.040 C 
BRANCH  14  15
ATOM     15  C15 <0> A   1     -24.313  -5.987  51.237  0.00  0.00    +0.194 C 
ATOM     16  C16 <0> A   1     -25.304  -6.416  50.151  0.00  0.00    +0.039 C 
ATOM     17  C17 <0> A   1     -24.838  -7.739  49.533  0.00  0.00    +0.183 C 
ATOM     18  C18 <0> A   1     -24.763  -8.803  50.636  0.00  0.00    +0.018 C 
ATOM     19  C19 <0> A   1     -23.934  -8.249  51.774  0.00  0.00    +0.495 C 
ATOM     20  O1  <0> A   1     -23.036  -8.895  52.260  0.00  0.00    -0.453 OA
ATOM     21  O2  <0> A   1     -24.225  -7.014  52.231  0.00  0.00    -0.366 OA
BRANCH  17  22
ATOM     22  O3  <0> A   1     -23.547  -7.564  48.945  0.00  0.00    -0.563 OA
ATOM     23  H27 <0> A   1     -23.046  -8.385  48.848  0.00  0.00    +0.386 HD
ENDBRANCH  17  22
ENDBRANCH  14  15
ENDBRANCH  13  14
ENDBRANCH   6  13
BRANCH   4  24
ATOM     24  O4  <0> A   1     -26.938  -2.811  50.042  0.00  0.00    -0.321 OA
BRANCH  24  25
ATOM     25  C20 <0> A   1     -28.126  -3.230  49.577  0.00  0.00    +0.449 C 
ATOM     26  O5  <0> A   1     -28.322  -3.287  48.386  0.00  0.00    -0.493 OA
BRANCH  25  27
ATOM     27  C21 <0> A   1     -29.213  -3.632  50.540  0.00  0.00    +0.150 C 
BRANCH  27  28
ATOM     28  C22 <0> A   1     -28.855  -4.946  51.183  0.00  0.00    -0.080 A 
ATOM     29  C23 <0> A   1     -29.006  -6.125  50.477  0.00  0.00    +0.017 A 
ATOM     30  C24 <0> A   1     -28.677  -7.331  51.068  0.00  0.00    +0.002 A 
ATOM     31  C25 <0> A   1     -28.197  -7.359  52.364  0.00  0.00    +0.007 A 
ATOM     32  C26 <0> A   1     -28.045  -6.179  53.069  0.00  0.00    +0.005 A 
ATOM     33  C27 <0> A   1     -28.369  -4.972  52.477  0.00  0.00    +0.024 A 
ENDBRANCH  27  28
ENDBRANCH  25  27
ENDBRANCH  24  25
ENDBRANCH   4  24
TORSDOF 8
ENDMDL
MODEL 2
REMARK VINA RESULT:      -7.7     21.280     24.628
REMARK  Name = CHEMBL353734
REMARK  10 active torsions:
REMARK  status: ('A' for Active; 'I' for Inactive)
REMARK    1  A    between atoms: C1_1  and  C2_2
REMARK    2  A    between atoms: C4_5  and  O4_28
REMARK    3  A    between atoms: C6_8  and  C13_17
REMARK    4  A    between atoms: C7_10  and  C12_16
REMARK    5  A    between atoms: C13_17  and  C14_18
REMARK    6  A    between atoms: C14_18  and  C15_19
REMARK    7  A    between atoms: C17_21  and  O3_27
REMARK    8  A    between atoms: O4_28  and  C20_29
REMARK    9  A    between atoms: C20_29  and  C21_31
REMARK   10  A    between atoms: C21_31  and  C22_32
REMARK                            x       y       z     vdW  Elec       q    Type
REMARK                         _______ _______ _______ _____ _____    ______ ____
ROOT
ATOM      1  C1  <0> A   1      -0.281   2.401  44.433  0.00  0.00    +0.033 C 
ATOM      2  C2  <0> A   1      -1.613   3.151  44.356  0.00  0.00    +0.025 C 
ATOM      3  C3  <0> A   1      -1.948   3.755  45.727  0.00  0.00    +0.020 C 
ATOM      4  C4  <0> A   1      -3.267   4.516  45.607  0.00  0.00    +0.176 C 
ATOM      5  C5  <0> A   1      -4.395   3.620  45.155  0.00  0.00    +0.040 C 
ATOM      6  C6  <0> A   1      -5.261   3.153  46.328  0.00  0.00    +0.013 C 
ATOM      7  C7  <0> A   1      -6.503   2.453  45.773  0.00  0.00    +0.022 C 
ATOM      8  C8  <0> A   1      -6.144   1.418  44.751  0.00  0.00    -0.032 C 
ATOM      9  C9  <0> A   1      -4.994   1.385  44.102  0.00  0.00    -0.006 C 
ATOM     10  C10 <0> A   1      -3.961   2.408  44.384  0.00  0.00    -0.086 C 
ATOM     11  C11 <0> A   1      -2.718   2.193  43.993  0.00  0.00    -0.022 C 
ATOM     12  C12 <0> A   1      -7.418   3.496  45.127  0.00  0.00    +0.029 C 
ENDROOT
BRANCH   6  13
ATOM     13  C13 <0> A   1      -5.681   4.361  47.167  0.00  0.00    +0.057 C 
BRANCH  13  14
ATOM     14  C14 <0> A   1      -6.570   3.895  48.322  0.00  0.00    +0.040 C 
BRANCH  14  15
ATOM     15  C15 <0> A   1      -5.729   3.760  49.592  0.00  0.00    +0.194 C 
ATOM     16  C16 <0> A   1      -6.183   2.527  50.378  0.00  0.00    +0.039 C 
ATOM     17  C17 <0> A   1      -5.366   2.418  51.670  0.00  0.00    +0.183 C 
ATOM     18  C18 <0> A   1      -5.582   3.689  52.502  0.00  0.00    +0.018 C 
ATOM     19  C19 <0> A   1      -5.310   4.887  51.618  0.00  0.00    +0.495 C 
ATOM     20  O1  <0> A   1      -4.588   5.782  51.989  0.00  0.00    -0.453 OA
ATOM     21  O2  <0> A   1      -5.896   4.927  50.404  0.00  0.00    -0.366 OA
BRANCH  17  22
ATOM     22  O3  <0> A   1      -3.979   2.283  51.349  0.00  0.00    -0.563 OA
ATOM     23  H27 <0> A   1      -3.492   3.119  51.354  0.00  0.00    +0.386 HD
ENDBRANCH  17  22
ENDBRANCH  14  15
ENDBRANCH  13  14
ENDBRANCH   6  13
BRANCH   4  24
ATOM     24  O4  <0> A   1      -3.600   5.073  46.880  0.00  0.00    -0.321 OA
BRANCH  24  25
ATOM     25  C20 <0> A   1      -3.106   6.290  47.160  0.00  0.00    +0.449 C 
ATOM     26  O5  <0> A   1      -2.212   6.748  46.490  0.00  0.00    -0.493 OA
BRANCH  25  27
ATOM     27  C21 <0> A   1      -3.669   7.085  48.310  0.00  0.00    +0.150 C 
BRANCH  27  28
ATOM     28  C22 <0> A   1      -2.607   7.268  49.362  0.00  0.00    -0.080 A 
ATOM     29  C23 <0> A   1      -1.934   6.171  49.864  0.00  0.00    +0.017 A 
ATOM     30  C24 <0> A   1      -0.959   6.340  50.830  0.00  0.00    +0.002 A 
ATOM     31  C25 <0> A   1      -0.656   7.607  51.293  0.00  0.00    +0.007 A 
ATOM     32  C26 <0> A   1      -1.329   8.705  50.789  0.00  0.00    +0.005 A 
ATOM     33  C27 <0> A   1      -2.301   8.536  49.820  0.00  0.00    +0.024 A 
ENDBRANCH  27  28
ENDBRANCH  25  27
ENDBRANCH  24  25
ENDBRANCH   4  24
TORSDOF 8
ENDMDL
MODEL 3
REMARK VINA RESULT:      -7.6     15.511     18.568
REMARK  Name = CHEMBL353734
REMARK  10 active torsions:
REMARK  status: ('A' for Active; 'I' for Inactive)
REMARK    1  A    between atoms: C1_1  and  C2_2
REMARK    2  A    between atoms: C4_5  and  O4_28
REMARK    3  A    between atoms: C6_8  and  C13_17
REMARK    4  A    between atoms: C7_10  and  C12_16
REMARK    5  A    between atoms: C13_17  and  C14_18
REMARK    6  A    between atoms: C14_18  and  C15_19
REMARK    7  A    between atoms: C17_21  and  O3_27
REMARK    8  A    between atoms: O4_28  and  C20_29
REMARK    9  A    between atoms: C20_29  and  C21_31
REMARK   10  A    between atoms: C21_31  and  C22_32
REMARK                            x       y       z     vdW  Elec       q    Type
REMARK                         _______ _______ _______ _____ _____    ______ ____
ROOT
ATOM      1  C1  <0> A   1     -14.559  11.587  41.133  0.00  0.00    +0.033 C 
ATOM      2  C2  <0> A   1     -13.476  11.176  42.133  0.00  0.00    +0.025 C 
ATOM      3  C3  <0> A   1     -13.586   9.674  42.431  0.00  0.00    +0.020 C 
ATOM      4  C4  <0> A   1     -12.477   9.295  43.410  0.00  0.00    +0.176 C 
ATOM      5  C5  <0> A   1     -12.570  10.078  44.698  0.00  0.00    +0.040 C 
ATOM      6  C6  <0> A   1     -13.245   9.273  45.810  0.00  0.00    +0.013 C 
ATOM      7  C7  <0> A   1     -13.093  10.032  47.128  0.00  0.00    +0.022 C 
ATOM      8  C8  <0> A   1     -13.509  11.466  46.992  0.00  0.00    -0.032 C 
ATOM      9  C9  <0> A   1     -13.592  12.106  45.839  0.00  0.00    -0.006 C 
ATOM     10  C10 <0> A   1     -13.280  11.395  44.579  0.00  0.00    -0.086 C 
ATOM     11  C11 <0> A   1     -13.671  11.918  43.431  0.00  0.00    -0.022 C 
ATOM     12  C12 <0> A   1     -11.629   9.978  47.571  0.00  0.00    +0.029 C 
ENDROOT
BRANCH   6  13
ATOM     13  C13 <0> A   1     -12.578   7.900  45.925  0.00  0.00    +0.057 C 
BRANCH  13  14
ATOM     14  C14 <0> A   1     -13.386   7.020  46.882  0.00  0.00    +0.040 C 
BRANCH  14  15
ATOM     15  C15 <0> A   1     -12.431   6.248  47.794  0.00  0.00    +0.194 C 
ATOM     16  C16 <0> A   1     -12.683   6.645  49.251  0.00  0.00    +0.039 C 
ATOM     17  C17 <0> A   1     -11.696   5.902  50.158  0.00  0.00    +0.183 C 
ATOM     18  C18 <0> A   1     -10.266   6.274  49.745  0.00  0.00    +0.018 C 
ATOM     19  C19 <0> A   1     -10.128   6.050  48.255  0.00  0.00    +0.495 C 
ATOM     20  O1  <0> A   1      -9.196   5.430  47.803  0.00  0.00    -0.453 OA
ATOM     21  O2  <0> A   1     -11.078   6.563  47.445  0.00  0.00    -0.366 OA
BRANCH  17  22
ATOM     22  O3  <0> A   1     -11.886   4.492  50.017  0.00  0.00    -0.563 OA
ATOM     23  H27 <0> A   1     -11.084   4.011  49.768  0.00  0.00    +0.386 HD
ENDBRANCH  17  22
ENDBRANCH  14  15
ENDBRANCH  13  14
ENDBRANCH   6  13
BRANCH   4  24
ATOM     24  O4  <0> A   1     -12.575   7.901  43.707  0.00  0.00    -0.321 OA
BRANCH  24  25
ATOM     25  C20 <0> A   1     -12.811   7.074  42.677  0.00  0.00    +0.449 C 
ATOM     26  O5  <0> A   1     -11.897   6.701  41.980  0.00  0.00    -0.493 OA
BRANCH  25  27
ATOM     27  C21 <0> A   1     -14.216   6.609  42.390  0.00  0.00    +0.150 C 
BRANCH  27  28
ATOM     28  C22 <0> A   1     -14.732   5.816  43.562  0.00  0.00    -0.080 A 
ATOM     29  C23 <0> A   1     -15.882   6.216  44.215  0.00  0.00    +0.017 A 
ATOM     30  C24 <0> A   1     -16.355   5.487  45.291  0.00  0.00    +0.002 A 
ATOM     31  C25 <0> A   1     -15.679   4.358  45.712  0.00  0.00    +0.007 A 
ATOM     32  C26 <0> A   1     -14.529   3.958  45.057  0.00  0.00    +0.005 A 
ATOM     33  C27 <0> A   1     -14.058   4.684  43.979  0.00  0.00    +0.024 A 
ENDBRANCH  27  28
ENDBRANCH  25  27
ENDBRANCH  24  25
ENDBRANCH   4  24
TORSDOF 8
ENDMDL
MODEL 4
REMARK VINA RESULT:      -7.5      3.023      6.396
REMARK  Name = CHEMBL353734
REMARK  10 active torsions:
REMARK  status: ('A' for Active; 'I' for Inactive)
REMARK    1  A    between atoms: C1_1  and  C2_2
REMARK    2  A    between atoms: C4_5  and  O4_28
REMARK    3  A    between atoms: C6_8  and  C13_17
REMARK    4  A    between atoms: C7_10  and  C12_16
REMARK    5  A    between atoms: C13_17  and  C14_18
REMARK    6  A    between atoms: C14_18  and  C15_19
REMARK    7  A    between atoms: C17_21  and  O3_27
REMARK    8  A    between atoms: O4_28  and  C20_29
REMARK    9  A    between atoms: C20_29  and  C21_31
REMARK   10  A    between atoms: C21_31  and  C22_32
REMARK                            x       y       z     vdW  Elec       q    Type
REMARK                         _______ _______ _______ _____ _____    ______ ____
ROOT
ATOM      1  C1  <0> A   1     -23.532  -2.633  50.821  0.00  0.00    +0.033 C 
ATOM      2  C2  <0> A   1     -24.254  -3.712  51.632  0.00  0.00    +0.025 C 
ATOM      3  C3  <0> A   1     -24.304  -5.019  50.829  0.00  0.00    +0.020 C 
ATOM      4  C4  <0> A   1     -25.007  -6.077  51.677  0.00  0.00    +0.176 C 
ATOM      5  C5  <0> A   1     -26.408  -5.657  52.055  0.00  0.00    +0.040 C 
ATOM      6  C6  <0> A   1     -27.462  -6.295  51.147  0.00  0.00    +0.013 C 
ATOM      7  C7  <0> A   1     -28.847  -6.014  51.730  0.00  0.00    +0.022 C 
ATOM      8  C8  <0> A   1     -29.029  -4.561  52.050  0.00  0.00    -0.032 C 
ATOM      9  C9  <0> A   1     -28.032  -3.709  52.213  0.00  0.00    -0.006 C 
ATOM     10  C10 <0> A   1     -26.634  -4.174  52.063  0.00  0.00    -0.086 C 
ATOM     11  C11 <0> A   1     -25.674  -3.283  51.901  0.00  0.00    -0.022 C 
ATOM     12  C12 <0> A   1     -29.026  -6.833  53.010  0.00  0.00    +0.029 C 
ENDROOT
BRANCH   6  13
ATOM     13  C13 <0> A   1     -27.228  -7.805  51.073  0.00  0.00    +0.057 C 
BRANCH  13  14
ATOM     14  C14 <0> A   1     -27.819  -8.350  49.771  0.00  0.00    +0.040 C 
BRANCH  14  15
ATOM     15  C15 <0> A   1     -28.727  -9.540  50.081  0.00  0.00    +0.194 C 
ATOM     16  C16 <0> A   1     -30.183  -9.070  50.148  0.00  0.00    +0.039 C 
ATOM     17  C17 <0> A   1     -31.085 -10.258  50.500  0.00  0.00    +0.183 C 
ATOM     18  C18 <0> A   1     -30.647 -10.828  51.856  0.00  0.00    +0.018 C 
ATOM     19  C19 <0> A   1     -29.158 -11.091  51.802  0.00  0.00    +0.495 C 
ATOM     20  O1  <0> A   1     -28.701 -12.150  52.161  0.00  0.00    -0.453 OA
ATOM     21  O2  <0> A   1     -28.355 -10.110  51.341  0.00  0.00    -0.366 OA
BRANCH  17  22
ATOM     22  O3  <0> A   1     -30.964 -11.266  49.493  0.00  0.00    -0.563 OA
ATOM     23  H27 <0> A   1     -31.791 -11.731  49.303  0.00  0.00    +0.386 HD
ENDBRANCH  17  22
ENDBRANCH  14  15
ENDBRANCH  13  14
ENDBRANCH   6  13
BRANCH   4  24
ATOM     24  O4  <0> A   1     -25.074  -7.298  50.937  0.00  0.00    -0.321 OA
BRANCH  24  25
ATOM     25  C20 <0> A   1     -23.981  -8.077  50.948  0.00  0.00    +0.449 C 
ATOM     26  O5  <0> A   1     -23.291  -8.137  51.938  0.00  0.00    -0.493 OA
BRANCH  25  27
ATOM     27  C21 <0> A   1     -23.615  -8.879  49.725  0.00  0.00    +0.150 C 
BRANCH  27  28
ATOM     28  C22 <0> A   1     -24.028 -10.314  49.923  0.00  0.00    -0.080 A 
ATOM     29  C23 <0> A   1     -24.755 -10.676  51.041  0.00  0.00    +0.017 A 
ATOM     30  C24 <0> A   1     -25.134 -11.994  51.222  0.00  0.00    +0.002 A 
ATOM     31  C25 <0> A   1     -24.787 -12.948  50.284  0.00  0.00    +0.007 A 
ATOM     32  C26 <0> A   1     -24.061 -12.584  49.165  0.00  0.00    +0.005 A 
ATOM     33  C27 <0> A   1     -23.685 -11.267  48.982  0.00  0.00    +0.024 A 
ENDBRANCH  27  28
ENDBRANCH  25  27
ENDBRANCH  24  25
ENDBRANCH   4  24
TORSDOF 8
ENDMDL
MODEL 5
REMARK VINA RESULT:      -7.4      1.063      1.576
REMARK  Name = CHEMBL353734
REMARK  10 active torsions:
REMARK  status: ('A' for Active; 'I' for Inactive)
REMARK    1  A    between atoms: C1_1  and  C2_2
REMARK    2  A    between atoms: C4_5  and  O4_28
REMARK    3  A    between atoms: C6_8  and  C13_17
REMARK    4  A    between atoms: C7_10  and  C12_16
REMARK    5  A    between atoms: C13_17  and  C14_18
REMARK    6  A    between atoms: C14_18  and  C15_19
REMARK    7  A    between atoms: C17_21  and  O3_27
REMARK    8  A    between atoms: O4_28  and  C20_29
REMARK    9  A    between atoms: C20_29  and  C21_31
REMARK   10  A    between atoms: C21_31  and  C22_32
REMARK                            x       y       z     vdW  Elec       q    Type
REMARK                         _______ _______ _______ _____ _____    ______ ____
ROOT
ATOM      1  C1  <0> A   1     -28.467   1.245  51.053  0.00  0.00    +0.033 C 
ATOM      2  C2  <0> A   1     -27.443   0.305  50.412  0.00  0.00    +0.025 C 
ATOM      3  C3  <0> A   1     -27.935  -1.145  50.513  0.00  0.00    +0.020 C 
ATOM      4  C4  <0> A   1     -26.904  -2.051  49.842  0.00  0.00    +0.176 C 
ATOM      5  C5  <0> A   1     -25.543  -1.927  50.485  0.00  0.00    +0.040 C 
ATOM      6  C6  <0> A   1     -25.271  -3.064  51.473  0.00  0.00    +0.013 C 
ATOM      7  C7  <0> A   1     -23.804  -3.003  51.900  0.00  0.00    +0.022 C 
ATOM      8  C8  <0> A   1     -23.412  -1.625  52.339  0.00  0.00    -0.032 C 
ATOM      9  C9  <0> A   1     -24.077  -0.529  52.020  0.00  0.00    -0.006 C 
ATOM     10  C10 <0> A   1     -25.301  -0.626  51.192  0.00  0.00    -0.086 C 
ATOM     11  C11 <0> A   1     -26.132   0.399  51.149  0.00  0.00    -0.022 C 
ATOM     12  C12 <0> A   1     -22.922  -3.420  50.721  0.00  0.00    +0.029 C 
ENDROOT
BRANCH   6  13
ATOM     13  C13 <0> A   1     -25.558  -4.408  50.800  0.00  0.00    +0.057 C 
BRANCH  13  14
ATOM     14  C14 <0> A   1     -25.296  -5.542  51.794  0.00  0.00    +0.040 C 
BRANCH  14  15
ATOM     15  C15 <0> A   1     -25.126  -6.857  51.033  0.00  0.00    +0.194 C 
ATOM     16  C16 <0> A   1     -24.398  -7.871  51.920  0.00  0.00    +0.039 C 
ATOM     17  C17 <0> A   1     -24.193  -9.174  51.139  0.00  0.00    +0.183 C 
ATOM     18  C18 <0> A   1     -23.364  -8.874  49.883  0.00  0.00    +0.018 C 
ATOM     19  C19 <0> A   1     -24.021  -7.729  49.143  0.00  0.00    +0.495 C 
ATOM     20  O1  <0> A   1     -24.238  -7.798  47.957  0.00  0.00    -0.453 OA
ATOM     21  O2  <0> A   1     -24.358  -6.628  49.846  0.00  0.00    -0.366 OA
BRANCH  17  22
ATOM     22  O3  <0> A   1     -25.463  -9.710  50.761  0.00  0.00    -0.563 OA
ATOM     23  H27 <0> A   1     -26.082  -9.050  50.420  0.00  0.00    +0.386 HD
ENDBRANCH  17  22
ENDBRANCH  14  15
ENDBRANCH  13  14
ENDBRANCH   6  13
BRANCH   4  24
ATOM     24  O4  <0> A   1     -27.341  -3.407  49.941  0.00  0.00    -0.321 OA
BRANCH  24  25
ATOM     25  C20 <0> A   1     -28.448  -3.741  49.259  0.00  0.00    +0.449 C 
ATOM     26  O5  <0> A   1     -28.455  -3.685  48.052  0.00  0.00    -0.493 OA
BRANCH  25  27
ATOM     27  C21 <0> A   1     -29.683  -4.187  49.999  0.00  0.00    +0.150 C 
BRANCH  27  28
ATOM     28  C22 <0> A   1     -29.285  -5.054  51.165  0.00  0.00    -0.080 A 
ATOM     29  C23 <0> A   1     -29.005  -6.393  50.968  0.00  0.00    +0.017 A 
ATOM     30  C24 <0> A   1     -28.640  -7.188  52.039  0.00  0.00    +0.002 A 
ATOM     31  C25 <0> A   1     -28.553  -6.644  53.306  0.00  0.00    +0.007 A 
ATOM     32  C26 <0> A   1     -28.832  -5.304  53.503  0.00  0.00    +0.005 A 
ATOM     33  C27 <0> A   1     -29.194  -4.508  52.432  0.00  0.00    +0.024 A 
ENDBRANCH  27  28
ENDBRANCH  25  27
ENDBRANCH  24  25
ENDBRANCH   4  24
TORSDOF 8
ENDMDL
MODEL 6
REMARK VINA RESULT:      -7.4     16.137     20.049
REMARK  Name = CHEMBL353734
REMARK  10 active torsions:
REMARK  status: ('A' for Active; 'I' for Inactive)
REMARK    1  A    between atoms: C1_1  and  C2_2
REMARK    2  A    between atoms: C4_5  and  O4_28
REMARK    3  A    between atoms: C6_8  and  C13_17
REMARK    4  A    between atoms: C7_10  and  C12_16
REMARK    5  A    between atoms: C13_17  and  C14_18
REMARK    6  A    between atoms: C14_18  and  C15_19
REMARK    7  A    between atoms: C17_21  and  O3_27
REMARK    8  A    between atoms: O4_28  and  C20_29
REMARK    9  A    between atoms: C20_29  and  C21_31
REMARK   10  A    between atoms: C21_31  and  C22_32
REMARK                            x       y       z     vdW  Elec       q    Type
REMARK                         _______ _______ _______ _____ _____    ______ ____
ROOT
ATOM      1  C1  <0> A   1     -15.915   9.497  48.825  0.00  0.00    +0.033 C 
ATOM      2  C2  <0> A   1     -15.144   8.379  48.119  0.00  0.00    +0.025 C 
ATOM      3  C3  <0> A   1     -14.223   8.979  47.047  0.00  0.00    +0.020 C 
ATOM      4  C4  <0> A   1     -13.452   7.840  46.383  0.00  0.00    +0.176 C 
ATOM      5  C5  <0> A   1     -14.377   6.827  45.752  0.00  0.00    +0.040 C 
ATOM      6  C6  <0> A   1     -14.519   7.043  44.243  0.00  0.00    +0.013 C 
ATOM      7  C7  <0> A   1     -15.272   5.854  43.645  0.00  0.00    +0.022 C 
ATOM      8  C8  <0> A   1     -16.532   5.560  44.401  0.00  0.00    -0.032 C 
ATOM      9  C9  <0> A   1     -16.766   5.967  45.637  0.00  0.00    -0.006 C 
ATOM     10  C10 <0> A   1     -15.753   6.780  46.348  0.00  0.00    -0.086 C 
ATOM     11  C11 <0> A   1     -16.110   7.450  47.428  0.00  0.00    -0.022 C 
ATOM     12  C12 <0> A   1     -14.368   4.620  43.683  0.00  0.00    +0.029 C 
ENDROOT
BRANCH   6  13
ATOM     13  C13 <0> A   1     -13.131   7.149  43.608  0.00  0.00    +0.057 C 
BRANCH  13  14
ATOM     14  C14 <0> A   1     -13.274   7.286  42.091  0.00  0.00    +0.040 C 
BRANCH  14  15
ATOM     15  C15 <0> A   1     -13.033   8.741  41.686  0.00  0.00    +0.194 C 
ATOM     16  C16 <0> A   1     -13.917   9.661  42.532  0.00  0.00    +0.039 C 
ATOM     17  C17 <0> A   1     -13.703  11.114  42.095  0.00  0.00    +0.183 C 
ATOM     18  C18 <0> A   1     -14.068  11.245  40.610  0.00  0.00    +0.018 C 
ATOM     19  C19 <0> A   1     -13.315  10.180  39.841  0.00  0.00    +0.495 C 
ATOM     20  O1  <0> A   1     -12.692  10.457  38.844  0.00  0.00    -0.453 OA
ATOM     21  O2  <0> A   1     -13.358   8.913  40.302  0.00  0.00    -0.366 OA
BRANCH  17  22
ATOM     22  O3  <0> A   1     -12.333  11.475  42.287  0.00  0.00    -0.563 OA
ATOM     23  H27 <0> A   1     -11.904  11.011  43.019  0.00  0.00    +0.386 HD
ENDBRANCH  17  22
ENDBRANCH  14  15
ENDBRANCH  13  14
ENDBRANCH   6  13
BRANCH   4  24
ATOM     24  O4  <0> A   1     -12.600   8.382  45.373  0.00  0.00    -0.321 OA
BRANCH  24  25
ATOM     25  C20 <0> A   1     -11.343   8.684  45.734  0.00  0.00    +0.449 C 
ATOM     26  O5  <0> A   1     -10.639   7.840  46.237  0.00  0.00    -0.493 OA
BRANCH  25  27
ATOM     27  C21 <0> A   1     -10.808  10.075  45.512  0.00  0.00    +0.150 C 
BRANCH  27  28
ATOM     28  C22 <0> A   1     -11.527  11.041  46.416  0.00  0.00    -0.080 A 
ATOM     29  C23 <0> A   1     -11.198  11.109  47.757  0.00  0.00    +0.017 A 
ATOM     30  C24 <0> A   1     -11.859  11.996  48.587  0.00  0.00    +0.002 A 
ATOM     31  C25 <0> A   1     -12.848  12.815  48.076  0.00  0.00    +0.007 A 
ATOM     32  C26 <0> A   1     -13.176  12.747  46.734  0.00  0.00    +0.005 A 
ATOM     33  C27 <0> A   1     -12.513  11.864  45.904  0.00  0.00    +0.024 A 
ENDBRANCH  27  28
ENDBRANCH  25  27
ENDBRANCH  24  25
ENDBRANCH   4  24
TORSDOF 8
ENDMDL
MODEL 7
REMARK VINA RESULT:      -7.4      3.135      8.195
REMARK  Name = CHEMBL353734
REMARK  10 active torsions:
REMARK  status: ('A' for Active; 'I' for Inactive)
REMARK    1  A    between atoms: C1_1  and  C2_2
REMARK    2  A    between atoms: C4_5  and  O4_28
REMARK    3  A    between atoms: C6_8  and  C13_17
REMARK    4  A    between atoms: C7_10  and  C12_16
REMARK    5  A    between atoms: C13_17  and  C14_18
REMARK    6  A    between atoms: C14_18  and  C15_19
REMARK    7  A    between atoms: C17_21  and  O3_27
REMARK    8  A    between atoms: O4_28  and  C20_29
REMARK    9  A    between atoms: C20_29  and  C21_31
REMARK   10  A    between atoms: C21_31  and  C22_32
REMARK                            x       y       z     vdW  Elec       q    Type
REMARK                         _______ _______ _______ _____ _____    ______ ____
ROOT
ATOM      1  C1  <0> A   1     -29.508 -13.306  52.429  0.00  0.00    +0.033 C 
ATOM      2  C2  <0> A   1     -30.024 -11.913  52.061  0.00  0.00    +0.025 C 
ATOM      3  C3  <0> A   1     -28.845 -11.006  51.680  0.00  0.00    +0.020 C 
ATOM      4  C4  <0> A   1     -29.397  -9.636  51.294  0.00  0.00    +0.176 C 
ATOM      5  C5  <0> A   1     -30.180  -9.006  52.422  0.00  0.00    +0.040 C 
ATOM      6  C6  <0> A   1     -29.347  -7.982  53.196  0.00  0.00    +0.013 C 
ATOM      7  C7  <0> A   1     -30.265  -7.227  54.158  0.00  0.00    +0.022 C 
ATOM      8  C8  <0> A   1     -31.101  -8.165  54.975  0.00  0.00    -0.032 C 
ATOM      9  C9  <0> A   1     -31.340  -9.422  54.645  0.00  0.00    -0.006 C 
ATOM     10  C10 <0> A   1     -30.751  -9.983  53.408  0.00  0.00    -0.086 C 
ATOM     11  C11 <0> A   1     -30.714 -11.294  53.250  0.00  0.00    -0.022 C 
ATOM     12  C12 <0> A   1     -31.188  -6.310  53.352  0.00  0.00    +0.029 C 
ENDROOT
BRANCH   6  13
ATOM     13  C13 <0> A   1     -28.705  -6.998  52.215  0.00  0.00    +0.057 C 
BRANCH  13  14
ATOM     14  C14 <0> A   1     -27.540  -6.282  52.900  0.00  0.00    +0.040 C 
BRANCH  14  15
ATOM     15  C15 <0> A   1     -26.623  -5.670  51.841  0.00  0.00    +0.194 C 
ATOM     16  C16 <0> A   1     -25.182  -6.126  52.085  0.00  0.00    +0.039 C 
ATOM     17  C17 <0> A   1     -24.260  -5.477  51.047  0.00  0.00    +0.183 C 
ATOM     18  C18 <0> A   1     -24.364  -3.952  51.175  0.00  0.00    +0.018 C 
ATOM     19  C19 <0> A   1     -25.827  -3.570  51.126  0.00  0.00    +0.495 C 
ATOM     20  O1  <0> A   1     -26.215  -2.689  50.396  0.00  0.00    -0.453 OA
ATOM     21  O2  <0> A   1     -26.687  -4.241  51.920  0.00  0.00    -0.366 OA
BRANCH  17  22
ATOM     22  O3  <0> A   1     -24.661  -5.878  49.734  0.00  0.00    -0.563 OA
ATOM     23  H27 <0> A   1     -25.616  -5.995  49.634  0.00  0.00    +0.386 HD
ENDBRANCH  17  22
ENDBRANCH  14  15
ENDBRANCH  13  14
ENDBRANCH   6  13
BRANCH   4  24
ATOM     24  O4  <0> A   1     -28.310  -8.776  50.949  0.00  0.00    -0.321 OA
BRANCH  24  25
ATOM     25  C20 <0> A   1     -27.616  -9.086  49.843  0.00  0.00    +0.449 C 
ATOM     26  O5  <0> A   1     -28.192  -9.501  48.865  0.00  0.00    -0.493 OA
BRANCH  25  27
ATOM     27  C21 <0> A   1     -26.119  -8.914  49.819  0.00  0.00    +0.150 C 
BRANCH  27  28
ATOM     28  C22 <0> A   1     -25.460 -10.265  49.713  0.00  0.00    -0.080 A 
ATOM     29  C23 <0> A   1     -25.009 -10.720  48.489  0.00  0.00    +0.017 A 
ATOM     30  C24 <0> A   1     -24.404 -11.960  48.393  0.00  0.00    +0.002 A 
ATOM     31  C25 <0> A   1     -24.249 -12.743  49.521  0.00  0.00    +0.007 A 
ATOM     32  C26 <0> A   1     -24.700 -12.286  50.746  0.00  0.00    +0.005 A 
ATOM     33  C27 <0> A   1     -25.301 -11.045  50.843  0.00  0.00    +0.024 A 
ENDBRANCH  27  28
ENDBRANCH  25  27
ENDBRANCH  24  25
ENDBRANCH   4  24
TORSDOF 8
ENDMDL
MODEL 8
REMARK VINA RESULT:      -7.3      2.022      4.552
REMARK  Name = CHEMBL353734
REMARK  10 active torsions:
REMARK  status: ('A' for Active; 'I' for Inactive)
REMARK    1  A    between atoms: C1_1  and  C2_2
REMARK    2  A    between atoms: C4_5  and  O4_28
REMARK    3  A    between atoms: C6_8  and  C13_17
REMARK    4  A    between atoms: C7_10  and  C12_16
REMARK    5  A    between atoms: C13_17  and  C14_18
REMARK    6  A    between atoms: C14_18  and  C15_19
REMARK    7  A    between atoms: C17_21  and  O3_27
REMARK    8  A    between atoms: O4_28  and  C20_29
REMARK    9  A    between atoms: C20_29  and  C21_31
REMARK   10  A    between atoms: C21_31  and  C22_32
REMARK                            x       y       z     vdW  Elec       q    Type
REMARK                         _______ _______ _______ _____ _____    ______ ____
ROOT
ATOM      1  C1  <0> A   1     -25.768   0.369  56.184  0.00  0.00    +0.033 C 
ATOM      2  C2  <0> A   1     -25.215   0.211  54.765  0.00  0.00    +0.025 C 
ATOM      3  C3  <0> A   1     -26.148  -0.688  53.941  0.00  0.00    +0.020 C 
ATOM      4  C4  <0> A   1     -25.580  -0.802  52.528  0.00  0.00    +0.176 C 
ATOM      5  C5  <0> A   1     -24.184  -1.378  52.526  0.00  0.00    +0.040 C 
ATOM      6  C6  <0> A   1     -24.182  -2.871  52.191  0.00  0.00    +0.013 C 
ATOM      7  C7  <0> A   1     -22.737  -3.325  51.979  0.00  0.00    +0.022 C 
ATOM      8  C8  <0> A   1     -21.849  -2.889  53.106  0.00  0.00    -0.032 C 
ATOM      9  C9  <0> A   1     -22.144  -1.912  53.945  0.00  0.00    -0.006 C 
ATOM     10  C10 <0> A   1     -23.427  -1.186  53.808  0.00  0.00    -0.086 C 
ATOM     11  C11 <0> A   1     -23.863  -0.453  54.816  0.00  0.00    -0.022 C 
ATOM     12  C12 <0> A   1     -22.212  -2.727  50.672  0.00  0.00    +0.029 C 
ENDROOT
BRANCH   6  13
ATOM     13  C13 <0> A   1     -24.991  -3.111  50.914  0.00  0.00    +0.057 C 
BRANCH  13  14
ATOM     14  C14 <0> A   1     -25.849  -4.367  51.083  0.00  0.00    +0.040 C 
BRANCH  14  15
ATOM     15  C15 <0> A   1     -25.018  -5.603  50.735  0.00  0.00    +0.194 C 
ATOM     16  C16 <0> A   1     -25.768  -6.448  49.701  0.00  0.00    +0.039 C 
ATOM     17  C17 <0> A   1     -24.952  -7.706  49.386  0.00  0.00    +0.183 C 
ATOM     18  C18 <0> A   1     -24.751  -8.505  50.681  0.00  0.00    +0.018 C 
ATOM     19  C19 <0> A   1     -24.191  -7.571  51.732  0.00  0.00    +0.495 C 
ATOM     20  O1  <0> A   1     -23.225  -7.880  52.388  0.00  0.00    -0.453 OA
ATOM     21  O2  <0> A   1     -24.802  -6.382  51.917  0.00  0.00    -0.366 OA
BRANCH  17  22
ATOM     22  O3  <0> A   1     -23.681  -7.331  48.851  0.00  0.00    -0.563 OA
ATOM     23  H27 <0> A   1     -22.939  -7.497  49.448  0.00  0.00    +0.386 HD
ENDBRANCH  17  22
ENDBRANCH  14  15
ENDBRANCH  13  14
ENDBRANCH   6  13
BRANCH   4  24
ATOM     24  O4  <0> A   1     -26.431  -1.647  51.751  0.00  0.00    -0.321 OA
BRANCH  24  25
ATOM     25  C20 <0> A   1     -27.529  -1.085  51.222  0.00  0.00    +0.449 C 
ATOM     26  O5  <0> A   1     -28.622  -1.532  51.480  0.00  0.00    -0.493 OA
BRANCH  25  27
ATOM     27  C21 <0> A   1     -27.400   0.105  50.307  0.00  0.00    +0.150 C 
BRANCH  27  28
ATOM     28  C22 <0> A   1     -27.908   1.337  51.010  0.00  0.00    -0.080 A 
ATOM     29  C23 <0> A   1     -29.267   1.538  51.157  0.00  0.00    +0.017 A 
ATOM     30  C24 <0> A   1     -29.733   2.669  51.802  0.00  0.00    +0.002 A 
ATOM     31  C25 <0> A   1     -28.840   3.598  52.301  0.00  0.00    +0.007 A 
ATOM     32  C26 <0> A   1     -27.480   3.396  52.154  0.00  0.00    +0.005 A 
ATOM     33  C27 <0> A   1     -27.014   2.264  51.513  0.00  0.00    +0.024 A 
ENDBRANCH  27  28
ENDBRANCH  25  27
ENDBRANCH  24  25
ENDBRANCH   4  24
TORSDOF 8
ENDMDL
MODEL 9
REMARK VINA RESULT:      -7.3      2.668      5.769
REMARK  Name = CHEMBL353734
REMARK  10 active torsions:
REMARK  status: ('A' for Active; 'I' for Inactive)
REMARK    1  A    between atoms: C1_1  and  C2_2
REMARK    2  A    between atoms: C4_5  and  O4_28
REMARK    3  A    between atoms: C6_8  and  C13_17
REMARK    4  A    between atoms: C7_10  and  C12_16
REMARK    5  A    between atoms: C13_17  and  C14_18
REMARK    6  A    between atoms: C14_18  and  C15_19
REMARK    7  A    between atoms: C17_21  and  O3_27
REMARK    8  A    between atoms: O4_28  and  C20_29
REMARK    9  A    between atoms: C20_29  and  C21_31
REMARK   10  A    between atoms: C21_31  and  C22_32
REMARK                            x       y       z     vdW  Elec       q    Type
REMARK                         _______ _______ _______ _____ _____    ______ ____
ROOT
ATOM      1  C1  <0> A   1     -28.905  -6.367  53.766  0.00  0.00    +0.033 C 
ATOM      2  C2  <0> A   1     -28.146  -5.737  52.596  0.00  0.00    +0.025 C 
ATOM      3  C3  <0> A   1     -26.653  -6.076  52.703  0.00  0.00    +0.020 C 
ATOM      4  C4  <0> A   1     -25.932  -5.455  51.508  0.00  0.00    +0.176 C 
ATOM      5  C5  <0> A   1     -26.113  -3.956  51.458  0.00  0.00    +0.040 C 
ATOM      6  C6  <0> A   1     -24.903  -3.214  52.032  0.00  0.00    +0.013 C 
ATOM      7  C7  <0> A   1     -25.057  -1.722  51.735  0.00  0.00    +0.022 C 
ATOM      8  C8  <0> A   1     -26.408  -1.213  52.136  0.00  0.00    -0.032 C 
ATOM      9  C9  <0> A   1     -27.464  -1.986  52.324  0.00  0.00    -0.006 C 
ATOM     10  C10 <0> A   1     -27.343  -3.452  52.152  0.00  0.00    -0.086 C 
ATOM     11  C11 <0> A   1     -28.282  -4.237  52.647  0.00  0.00    -0.022 C 
ATOM     12  C12 <0> A   1     -24.862  -1.488  50.235  0.00  0.00    +0.029 C 
ENDROOT
BRANCH   6  13
ATOM     13  C13 <0> A   1     -23.623  -3.742  51.381  0.00  0.00    +0.057 C 
BRANCH  13  14
ATOM     14  C14 <0> A   1     -22.486  -2.743  51.610  0.00  0.00    +0.040 C 
BRANCH  14  15
ATOM     15  C15 <0> A   1     -21.618  -3.216  52.776  0.00  0.00    +0.194 C 
ATOM     16  C16 <0> A   1     -21.415  -2.064  53.764  0.00  0.00    +0.039 C 
ATOM     17  C17 <0> A   1     -20.510  -2.531  54.909  0.00  0.00    +0.183 C 
ATOM     18  C18 <0> A   1     -19.161  -2.975  54.327  0.00  0.00    +0.018 C 
ATOM     19  C19 <0> A   1     -19.428  -3.968  53.217  0.00  0.00    +0.495 C 
ATOM     20  O1  <0> A   1     -18.839  -5.022  53.170  0.00  0.00    -0.453 OA
ATOM     21  O2  <0> A   1     -20.344  -3.645  52.281  0.00  0.00    -0.366 OA
BRANCH  17  22
ATOM     22  O3  <0> A   1     -21.125  -3.628  55.589  0.00  0.00    -0.563 OA
ATOM     23  H27 <0> A   1     -22.043  -3.786  55.329  0.00  0.00    +0.386 HD
ENDBRANCH  17  22
ENDBRANCH  14  15
ENDBRANCH  13  14
ENDBRANCH   6  13
BRANCH   4  24
ATOM     24  O4  <0> A   1     -24.537  -5.750  51.601  0.00  0.00    -0.321 OA
BRANCH  24  25
ATOM     25  C20 <0> A   1     -24.156  -6.996  51.277  0.00  0.00    +0.449 C 
ATOM     26  O5  <0> A   1     -23.515  -7.655  52.061  0.00  0.00    -0.493 OA
BRANCH  25  27
ATOM     27  C21 <0> A   1     -24.528  -7.574  49.936  0.00  0.00    +0.150 C 
BRANCH  27  28
ATOM     28  C22 <0> A   1     -24.547  -9.077  50.024  0.00  0.00    -0.080 A 
ATOM     29  C23 <0> A   1     -25.555  -9.717  50.720  0.00  0.00    +0.017 A 
ATOM     30  C24 <0> A   1     -25.572 -11.097  50.800  0.00  0.00    +0.002 A 
ATOM     31  C25 <0> A   1     -24.581 -11.838  50.184  0.00  0.00    +0.007 A 
ATOM     32  C26 <0> A   1     -23.573 -11.197  49.487  0.00  0.00    +0.005 A 
ATOM     33  C27 <0> A   1     -23.559  -9.818  49.403  0.00  0.00    +0.024 A 
ENDBRANCH  27  28
ENDBRANCH  25  27
ENDBRANCH  24  25
ENDBRANCH   4  24
TORSDOF 8
ENDMDL
MODEL 10
REMARK VINA RESULT:      -7.3     29.295     31.957
REMARK  Name = CHEMBL353734
REMARK  10 active torsions:
REMARK  status: ('A' for Active; 'I' for Inactive)
REMARK    1  A    between atoms: C1_1  and  C2_2
REMARK    2  A    between atoms: C4_5  and  O4_28
REMARK    3  A    between atoms: C6_8  and  C13_17
REMARK    4  A    between atoms: C7_10  and  C12_16
REMARK    5  A    between atoms: C13_17  and  C14_18
REMARK    6  A    between atoms: C14_18  and  C15_19
REMARK    7  A    between atoms: C17_21  and  O3_27
REMARK    8  A    between atoms: O4_28  and  C20_29
REMARK    9  A    between atoms: C20_29  and  C21_31
REMARK   10  A    between atoms: C21_31  and  C22_32
REMARK                            x       y       z     vdW  Elec       q    Type
REMARK                         _______ _______ _______ _____ _____    ______ ____
ROOT
ATOM      1  C1  <0> A   1     -32.123  18.565  32.365  0.00  0.00    +0.033 C 
ATOM      2  C2  <0> A   1     -32.599  19.800  33.134  0.00  0.00    +0.025 C 
ATOM      3  C3  <0> A   1     -31.389  20.631  33.583  0.00  0.00    +0.020 C 
ATOM      4  C4  <0> A   1     -31.901  21.865  34.322  0.00  0.00    +0.176 C 
ATOM      5  C5  <0> A   1     -32.740  21.495  35.523  0.00  0.00    +0.040 C 
ATOM      6  C6  <0> A   1     -31.940  21.570  36.825  0.00  0.00    +0.013 C 
ATOM      7  C7  <0> A   1     -32.903  21.414  38.003  0.00  0.00    +0.022 C 
ATOM      8  C8  <0> A   1     -33.797  20.223  37.833  0.00  0.00    -0.032 C 
ATOM      9  C9  <0> A   1     -34.032  19.634  36.674  0.00  0.00    -0.006 C 
ATOM     10  C10 <0> A   1     -33.379  20.140  35.445  0.00  0.00    -0.086 C 
ATOM     11  C11 <0> A   1     -33.349  19.374  34.370  0.00  0.00    -0.022 C 
ATOM     12  C12 <0> A   1     -33.766  22.673  38.113  0.00  0.00    +0.029 C 
ENDROOT
BRANCH   6  13
ATOM     13  C13 <0> A   1     -31.231  22.924  36.913  0.00  0.00    +0.057 C 
BRANCH  13  14
ATOM     14  C14 <0> A   1     -29.958  22.778  37.750  0.00  0.00    +0.040 C 
BRANCH  14  15
ATOM     15  C15 <0> A   1     -29.644  24.107  38.437  0.00  0.00    +0.194 C 
ATOM     16  C16 <0> A   1     -30.896  24.618  39.157  0.00  0.00    +0.039 C 
ATOM     17  C17 <0> A   1     -30.590  25.971  39.809  0.00  0.00    +0.183 C 
ATOM     18  C18 <0> A   1     -30.162  26.962  38.719  0.00  0.00    +0.018 C 
ATOM     19  C19 <0> A   1     -29.053  26.326  37.909  0.00  0.00    +0.495 C 
ATOM     20  O1  <0> A   1     -28.032  26.927  37.673  0.00  0.00    -0.453 OA
ATOM     21  O2  <0> A   1     -29.237  25.069  37.457  0.00  0.00    -0.366 OA
BRANCH  17  22
ATOM     22  O3  <0> A   1     -29.534  25.815  40.760  0.00  0.00    -0.563 OA
ATOM     23  H27 <0> A   1     -29.136  24.934  40.765  0.00  0.00    +0.386 HD
ENDBRANCH  17  22
ENDBRANCH  14  15
ENDBRANCH  13  14
ENDBRANCH   6  13
BRANCH   4  24
ATOM     24  O4  <0> A   1     -30.785  22.642  34.759  0.00  0.00    -0.321 OA
BRANCH  24  25
ATOM     25  C20 <0> A   1     -30.331  23.583  33.916  0.00  0.00    +0.449 C 
ATOM     26  O5  <0> A   1     -30.752  24.713  33.987  0.00  0.00    -0.493 OA
BRANCH  25  27
ATOM     27  C21 <0> A   1     -29.294  23.230  32.881  0.00  0.00    +0.150 C 
BRANCH  27  28
ATOM     28  C22 <0> A   1     -27.929  23.627  33.381  0.00  0.00    -0.080 A 
ATOM     29  C23 <0> A   1     -27.664  23.633  34.738  0.00  0.00    +0.017 A 
ATOM     30  C24 <0> A   1     -26.412  23.997  35.196  0.00  0.00    +0.002 A 
ATOM     31  C25 <0> A   1     -25.424  24.354  34.298  0.00  0.00    +0.007 A 
ATOM     32  C26 <0> A   1     -25.689  24.347  32.941  0.00  0.00    +0.005 A 
ATOM     33  C27 <0> A   1     -26.940  23.979  32.482  0.00  0.00    +0.024 A 
ENDBRANCH  27  28
ENDBRANCH  25  27
ENDBRANCH  24  25
ENDBRANCH   4  24
TORSDOF 8
ENDMDL
