REMARK VINA RESULT:      -8.7      0.000      0.000
REMARK  Name = CHEMBL468862
REMARK  13 active torsions:
REMARK  status: ('A' for Active; 'I' for Inactive)
REMARK    1  A    between atoms: C1_1  and  C2_2
REMARK    2  A    between atoms: C2_2  and  C3_3
REMARK    3  A    between atoms: C2_2  and  C4_4
REMARK    4  A    between atoms: C5_5  and  C22_29
REMARK    5  A    between atoms: C6_6  and  C16_22
REMARK    6  A    between atoms: C9_13  and  C10_16
REMARK    7  A    between atoms: C23_30  and  C24_31
REMARK    8  A    between atoms: C24_31  and  C25_33
REMARK    9  A    between atoms: C24_31  and  O4_41
REMARK   10  A    between atoms: C25_33  and  C26_34
REMARK   11  A    between atoms: C26_34  and  C27_36
REMARK   12  A    between atoms: C26_34  and  O3_40
REMARK   13  A    between atoms: C27_36  and  C28_37
REMARK                            x       y       z     vdW  Elec       q    Type
REMARK                         _______ _______ _______ _____ _____    ______ ____
ROOT
ATOM      1  C4  <0> A   1     -15.135   6.249  45.427  0.00  0.00    +0.232 A 
ATOM      2  C5  <0> A   1     -14.341   7.394  45.315  0.00  0.00    -0.176 A 
ATOM      3  C6  <0> A   1     -14.585   8.462  46.203  0.00  0.00    +0.261 A 
ATOM      4  N1  <0> A   1     -15.554   8.336  47.106  0.00  0.00    -0.504 NA
ATOM      5  C7  <0> A   1     -16.278   7.230  47.172  0.00  0.00    +0.553 A 
ATOM      6  N2  <0> A   1     -16.080   6.210  46.349  0.00  0.00    -0.545 NA
ATOM      7  N3  <0> A   1     -17.278   7.140  48.126  0.00  0.00    -0.590 N 
ATOM      8  C8  <0> A   1     -17.509   8.204  49.000  0.00  0.00    +0.489 C 
ATOM      9  N4  <0> A   1     -18.450   8.135  49.916  0.00  0.00    -0.546 NA
ATOM     10  C9  <0> A   1     -18.611   9.184  50.711  0.00  0.00    +0.116 C 
ATOM     11  S1  <0> A   1     -17.437  10.250  50.154  0.00  0.00    +0.290 S 
ATOM     12  N5  <0> A   1     -16.787   9.303  48.933  0.00  0.00    -0.436 NA
ATOM     13  H10 <0> A   1     -17.817   6.335  48.187  0.00  0.00    +0.438 HD
ENDROOT
BRANCH   3  14
ATOM     14  C16 <0> A   1     -13.776   9.700  46.133  0.00  0.00    -0.071 A 
ATOM     15  C17 <0> A   1     -14.174  10.751  45.306  0.00  0.00    +0.096 A 
ATOM     16  C18 <0> A   1     -13.418  11.902  45.245  0.00  0.00    -0.016 A 
ATOM     17  C19 <0> A   1     -12.262  12.017  46.004  0.00  0.00    +0.120 A 
ATOM     18  C20 <0> A   1     -11.863  10.975  46.826  0.00  0.00    -0.027 A 
ATOM     19  C21 <0> A   1     -12.615   9.822  46.898  0.00  0.00    +0.099 A 
ATOM     20  F1  <0> A   1     -11.525  13.146  45.941  0.00  0.00    -0.136 F 
ENDBRANCH   3  14
BRANCH  10  21
ATOM     21  C10 <0> A   1     -19.583   9.369  51.810  0.00  0.00    -0.031 A 
ATOM     22  C11 <0> A   1     -20.883   9.793  51.534  0.00  0.00    +0.073 A 
ATOM     23  C12 <0> A   1     -21.784   9.962  52.564  0.00  0.00    +0.008 A 
ATOM     24  C13 <0> A   1     -21.400   9.715  53.870  0.00  0.00    +0.036 A 
ATOM     25  C14 <0> A   1     -20.113   9.295  54.152  0.00  0.00    +0.015 A 
ATOM     26  C15 <0> A   1     -19.204   9.116  53.129  0.00  0.00    +0.047 A 
ENDBRANCH  10  21
BRANCH   1  28
ATOM     27  C1  <0> A   1     -14.155   3.978  45.245  0.00  0.00    +0.043 C 
ATOM     28  C2  <0> A   1     -14.919   5.077  44.504  0.00  0.00    +0.052 C 
ATOM     29  C3  <0> A   1     -16.274   4.535  44.043  0.00  0.00    +0.044 C 
ENDBRANCH   1  28
BRANCH   2  30
ATOM     30  C22 <0> A   1     -13.277   7.483  44.295  0.00  0.00    +0.012 C 
ATOM     31  C23 <0> A   1     -13.595   7.669  43.020  0.00  0.00    -0.035 C 
BRANCH  31  32
ATOM     32  C24 <0> A   1     -12.509   7.760  41.980  0.00  0.00    +0.253 C 
BRANCH  32  33
ATOM     33  O4  <0> A   1     -11.758   6.544  41.966  0.00  0.00    -0.537 OA
ATOM     34  H27 <0> A   1     -10.973   6.560  42.532  0.00  0.00    +0.366 HD
ENDBRANCH  32  33
BRANCH  32  35
ATOM     35  C25 <0> A   1     -13.138   7.985  40.603  0.00  0.00    -0.041 C 
BRANCH  35  36
ATOM     36  C26 <0> A   1     -12.547   9.246  39.972  0.00  0.00    +0.232 C 
BRANCH  36  37
ATOM     37  O3  <0> A   1     -12.851   9.268  38.576  0.00  0.00    -0.528 OA
ATOM     38  H26 <0> A   1     -13.736   8.942  38.362  0.00  0.00    +0.350 HD
ENDBRANCH  36  37
BRANCH  36  39
ATOM     39  C27 <0> A   1     -13.147  10.482  40.644  0.00  0.00    -0.102 C 
BRANCH  39  40
ATOM     40  C28 <0> A   1     -13.947  11.265  39.635  0.00  0.00    +0.490 C 
ATOM     41  O1  <0> A   1     -15.160  11.150  39.598  0.00  0.00    -0.681 OA
ATOM     42  O2  <0> A   1     -13.381  12.014  38.857  0.00  0.00    -0.713 OA
ENDBRANCH  39  40
ENDBRANCH  36  39
ENDBRANCH  35  36
ENDBRANCH  32  35
ENDBRANCH  31  32
ENDBRANCH   2  30
TORSDOF 11
