REMARK VINA RESULT:      -7.1      2.582      7.020
REMARK  Name = CHEMBL85673
REMARK  13 active torsions:
REMARK  status: ('A' for Active; 'I' for Inactive)
REMARK    1  A    between atoms: C1_1  and  C2_2
REMARK    2  A    between atoms: C2_2  and  C3_3
REMARK    3  A    between atoms: C3_3  and  C4_4
REMARK    4  A    between atoms: C3_3  and  C5_5
REMARK    5  A    between atoms: C3_3  and  C6_6
REMARK    6  A    between atoms: C6_6  and  O2_8
REMARK    7  A    between atoms: O2_8  and  C7_9
REMARK    8  A    between atoms: C9_12  and  C25_35
REMARK    9  A    between atoms: C13_17  and  C18_24
REMARK   10  A    between atoms: C14_19  and  C17_23
REMARK   11  A    between atoms: C18_24  and  C19_25
REMARK   12  A    between atoms: C19_25  and  C20_26
REMARK   13  A    between atoms: C22_28  and  O5_34
REMARK                            x       y       z     vdW  Elec       q    Type
REMARK                         _______ _______ _______ _____ _____    ______ ____
ROOT
ATOM      1  C7  <0> A   1     -25.649  -5.220  51.177  0.00  0.00    +0.177 C 
ATOM      2  C8  <0> A   1     -24.304  -4.649  50.723  0.00  0.00    +0.007 C 
ATOM      3  C9  <0> A   1     -24.149  -3.224  51.262  0.00  0.00    -0.016 C 
ATOM      4  C10 <0> A   1     -25.283  -2.350  50.724  0.00  0.00    +0.019 C 
ATOM      5  C11 <0> A   1     -26.627  -2.921  51.178  0.00  0.00    -0.005 C 
ATOM      6  C12 <0> A   1     -26.783  -4.345  50.640  0.00  0.00    +0.013 C 
ATOM      7  C13 <0> A   1     -28.128  -4.917  51.093  0.00  0.00    +0.001 C 
ATOM      8  C14 <0> A   1     -29.262  -4.042  50.555  0.00  0.00    -0.013 C 
ATOM      9  C15 <0> A   1     -29.106  -2.618  51.093  0.00  0.00    +0.011 C 
ATOM     10  C16 <0> A   1     -27.761  -2.046  50.640  0.00  0.00    +0.016 C 
ATOM     11  C17 <0> A   1     -30.606  -4.614  51.009  0.00  0.00    +0.019 C 
ATOM     12  C25 <0> A   1     -22.804  -2.653  50.809  0.00  0.00    +0.021 C 
ENDROOT
BRANCH   1  13
ATOM     13  O2  <0> A   1     -25.795  -6.551  50.675  0.00  0.00    -0.339 OA
BRANCH  13  14
ATOM     14  C6  <0> A   1     -25.014  -7.496  51.218  0.00  0.00    +0.468 C 
ATOM     15  O1  <0> A   1     -24.639  -7.387  52.363  0.00  0.00    -0.503 OA
BRANCH  14  16
ATOM     16  C3  <0> A   1     -24.600  -8.694  50.402  0.00  0.00    -0.052 C 
ATOM     17  C4  <0> A   1     -23.846  -8.227  49.155  0.00  0.00    +0.060 C 
ATOM     18  C5  <0> A   1     -25.846  -9.478  49.981  0.00  0.00    +0.061 C 
BRANCH  16  20
ATOM     19  C1  <0> A   1     -24.317 -10.986  51.354  0.00  0.00    +0.024 C 
ATOM     20  C2  <0> A   1     -23.691  -9.595  51.241  0.00  0.00    +0.036 C 
ENDBRANCH  16  20
ENDBRANCH  14  16
ENDBRANCH  13  14
ENDBRANCH   1  13
BRANCH   7  21
ATOM     21  C18 <0> A   1     -28.182  -4.941  52.621  0.00  0.00    +0.018 C 
BRANCH  21  22
ATOM     22  C19 <0> A   1     -28.221  -6.391  53.108  0.00  0.00    +0.046 C 
BRANCH  22  23
ATOM     23  C20 <0> A   1     -29.640  -6.741  53.560  0.00  0.00    +0.191 C 
ATOM     24  C21 <0> A   1     -30.159  -5.654  54.504  0.00  0.00    +0.039 C 
ATOM     25  C22 <0> A   1     -31.563  -6.028  54.987  0.00  0.00    +0.183 C 
ATOM     26  C23 <0> A   1     -31.496  -7.377  55.715  0.00  0.00    +0.020 C 
ATOM     27  C24 <0> A   1     -30.795  -8.368  54.812  0.00  0.00    +0.495 C 
ATOM     28  O3  <0> A   1     -31.267  -9.461  54.605  0.00  0.00    -0.454 OA
ATOM     29  O4  <0> A   1     -29.627  -7.998  54.247  0.00  0.00    -0.366 OA
BRANCH  25  30
ATOM     30  O5  <0> A   1     -32.443  -6.130  53.865  0.00  0.00    -0.563 OA
ATOM     31  H39 <0> A   1     -32.565  -7.033  53.541  0.00  0.00    +0.386 HD
ENDBRANCH  25  30
ENDBRANCH  22  23
ENDBRANCH  21  22
ENDBRANCH   7  21
TORSDOF 8
