MODEL 1
REMARK VINA RESULT:      -9.4      0.000      0.000
REMARK  Name = CHEMBL122674
REMARK  12 active torsions:
REMARK  status: ('A' for Active; 'I' for Inactive)
REMARK    1  A    between atoms: C4_4  and  C7_7
REMARK    2  A    between atoms: C10_10  and  C13_13
REMARK    3  A    between atoms: C13_13  and  C14_14
REMARK    4  A    between atoms: N2_21  and  C28_36
REMARK    5  A    between atoms: C20_22  and  C21_23
REMARK    6  A    between atoms: C22_24  and  C23_25
REMARK    7  A    between atoms: C23_25  and  C24_27
REMARK    8  A    between atoms: C23_25  and  O4_35
REMARK    9  A    between atoms: C24_27  and  C25_28
REMARK   10  A    between atoms: C25_28  and  C26_30
REMARK   11  A    between atoms: C25_28  and  O3_34
REMARK   12  A    between atoms: C26_30  and  C27_31
REMARK                            x       y       z     vdW  Elec       q    Type
REMARK                         _______ _______ _______ _____ _____    ______ ____
ROOT
ATOM      1  C14 <0> A   1     -16.572   6.525  47.466  0.00  0.00    +0.092 C 
ATOM      2  C15 <0> A   1     -16.346   5.058  47.085  0.00  0.00    +0.029 C 
ATOM      3  C16 <0> A   1     -16.229   4.929  45.565  0.00  0.00    +0.016 C 
ATOM      4  C17 <0> A   1     -14.894   5.523  45.097  0.00  0.00    +0.104 C 
ATOM      5  C18 <0> A   1     -14.754   6.899  45.698  0.00  0.00    -0.211 C 
ATOM      6  C19 <0> A   1     -15.519   7.360  46.777  0.00  0.00    +0.089 C 
ATOM      7  N1  <0> A   1     -15.159   8.583  47.050  0.00  0.00    -0.263 NA
ATOM      8  N2  <0> A   1     -14.144   8.964  46.162  0.00  0.00    -0.330 N 
ATOM      9  C20 <0> A   1     -13.901   7.907  45.326  0.00  0.00    +0.124 C 
ENDROOT
BRANCH   8  10
ATOM     10  C28 <0> A   1     -13.495  10.205  46.132  0.00  0.00    +0.150 A 
ATOM     11  C29 <0> A   1     -12.417  10.446  46.974  0.00  0.00    +0.047 A 
ATOM     12  C30 <0> A   1     -11.778  11.671  46.944  0.00  0.00    +0.017 A 
ATOM     13  C31 <0> A   1     -12.212  12.657  46.074  0.00  0.00    +0.097 A 
ATOM     14  C32 <0> A   1     -13.287  12.419  45.235  0.00  0.00    +0.007 A 
ATOM     15  C33 <0> A   1     -13.925  11.195  45.258  0.00  0.00    +0.056 A 
ATOM     16  F1  <0> A   1     -11.586  13.854  46.047  0.00  0.00    -0.135 F 
ENDBRANCH   8  10
BRANCH   9  17
ATOM     17  C21 <0> A   1     -12.914   7.860  44.234  0.00  0.00    +0.027 C 
ATOM     18  C22 <0> A   1     -13.323   7.791  42.971  0.00  0.00    -0.028 C 
BRANCH  18  19
ATOM     19  C23 <0> A   1     -12.313   7.743  41.853  0.00  0.00    +0.254 C 
BRANCH  19  20
ATOM     20  O4  <0> A   1     -11.667   6.468  41.849  0.00  0.00    -0.536 OA
ATOM     21  H28 <0> A   1     -11.911   5.907  41.100  0.00  0.00    +0.368 HD
ENDBRANCH  19  20
BRANCH  19  22
ATOM     22  C24 <0> A   1     -13.023   7.959  40.516  0.00  0.00    -0.040 C 
BRANCH  22  23
ATOM     23  C25 <0> A   1     -12.502   9.243  39.864  0.00  0.00    +0.232 C 
BRANCH  23  24
ATOM     24  O3  <0> A   1     -12.874   9.263  38.486  0.00  0.00    -0.528 OA
ATOM     25  H27 <0> A   1     -13.652   8.726  38.280  0.00  0.00    +0.351 HD
ENDBRANCH  23  24
BRANCH  23  26
ATOM     26  C26 <0> A   1     -13.107  10.456  40.574  0.00  0.00    -0.102 C 
BRANCH  26  27
ATOM     27  C27 <0> A   1     -13.915  11.262  39.591  0.00  0.00    +0.491 C 
ATOM     28  O1  <0> A   1     -13.353  12.012  38.810  0.00  0.00    -0.681 OA
ATOM     29  O2  <0> A   1     -15.130  11.167  39.576  0.00  0.00    -0.712 OA
ENDBRANCH  26  27
ENDBRANCH  23  26
ENDBRANCH  22  23
ENDBRANCH  19  22
ENDBRANCH  18  19
ENDBRANCH   9  17
BRANCH   1  30
ATOM     30  C13 <0> A   1     -16.451   6.690  48.982  0.00  0.00    +0.081 C 
BRANCH  30  34
ATOM     31  C7  <0> A   1     -19.811   8.886  50.452  0.00  0.00    -0.050 A 
ATOM     32  C8  <0> A   1     -20.005   7.696  49.753  0.00  0.00    +0.002 A 
ATOM     33  C9  <0> A   1     -18.917   6.992  49.280  0.00  0.00    +0.007 A 
ATOM     34  C10 <0> A   1     -17.635   7.464  49.500  0.00  0.00    -0.083 A 
ATOM     35  C11 <0> A   1     -17.437   8.644  50.195  0.00  0.00    +0.063 A 
ATOM     36  C12 <0> A   1     -18.518   9.359  50.666  0.00  0.00    +0.005 A 
BRANCH  31  40
ATOM     37  C1  <0> A   1     -23.154  11.070  51.916  0.00  0.00    -0.002 A 
ATOM     38  C2  <0> A   1     -23.139  10.629  50.604  0.00  0.00    +0.004 A 
ATOM     39  C3  <0> A   1     -22.057   9.921  50.125  0.00  0.00    +0.010 A 
ATOM     40  C4  <0> A   1     -20.978   9.648  50.963  0.00  0.00    -0.039 A 
ATOM     41  C5  <0> A   1     -20.998  10.094  52.283  0.00  0.00    +0.011 A 
ATOM     42  C6  <0> A   1     -22.085  10.803  52.753  0.00  0.00    +0.006 A 
ENDBRANCH  31  40
ENDBRANCH  30  34
ENDBRANCH   1  30
TORSDOF 12
ENDMDL
MODEL 2
REMARK VINA RESULT:      -9.2      2.409      3.180
REMARK  Name = CHEMBL122674
REMARK  12 active torsions:
REMARK  status: ('A' for Active; 'I' for Inactive)
REMARK    1  A    between atoms: C4_4  and  C7_7
REMARK    2  A    between atoms: C10_10  and  C13_13
REMARK    3  A    between atoms: C13_13  and  C14_14
REMARK    4  A    between atoms: N2_21  and  C28_36
REMARK    5  A    between atoms: C20_22  and  C21_23
REMARK    6  A    between atoms: C22_24  and  C23_25
REMARK    7  A    between atoms: C23_25  and  C24_27
REMARK    8  A    between atoms: C23_25  and  O4_35
REMARK    9  A    between atoms: C24_27  and  C25_28
REMARK   10  A    between atoms: C25_28  and  C26_30
REMARK   11  A    between atoms: C25_28  and  O3_34
REMARK   12  A    between atoms: C26_30  and  C27_31
REMARK                            x       y       z     vdW  Elec       q    Type
REMARK                         _______ _______ _______ _____ _____    ______ ____
ROOT
ATOM      1  C14 <0> A   1     -16.674   6.320  47.049  0.00  0.00    +0.092 C 
ATOM      2  C15 <0> A   1     -16.411   4.859  46.667  0.00  0.00    +0.029 C 
ATOM      3  C16 <0> A   1     -16.210   4.747  45.154  0.00  0.00    +0.016 C 
ATOM      4  C17 <0> A   1     -14.858   5.359  44.766  0.00  0.00    +0.104 C 
ATOM      5  C18 <0> A   1     -14.766   6.731  45.387  0.00  0.00    -0.211 C 
ATOM      6  C19 <0> A   1     -15.595   7.173  46.427  0.00  0.00    +0.089 C 
ATOM      7  N1  <0> A   1     -15.263   8.397  46.731  0.00  0.00    -0.263 NA
ATOM      8  N2  <0> A   1     -14.205   8.798  45.903  0.00  0.00    -0.330 N 
ATOM      9  C20 <0> A   1     -13.906   7.752  45.072  0.00  0.00    +0.124 C 
ENDROOT
BRANCH   8  10
ATOM     10  C28 <0> A   1     -13.570  10.046  45.921  0.00  0.00    +0.150 A 
ATOM     11  C29 <0> A   1     -14.019  11.067  45.096  0.00  0.00    +0.047 A 
ATOM     12  C30 <0> A   1     -13.391  12.298  45.115  0.00  0.00    +0.017 A 
ATOM     13  C31 <0> A   1     -12.312  12.512  45.958  0.00  0.00    +0.097 A 
ATOM     14  C32 <0> A   1     -11.862  11.493  46.781  0.00  0.00    +0.007 A 
ATOM     15  C33 <0> A   1     -12.491  10.264  46.769  0.00  0.00    +0.056 A 
ATOM     16  F1  <0> A   1     -11.699  13.715  45.975  0.00  0.00    -0.135 F 
ENDBRANCH   8  10
BRANCH   9  17
ATOM     17  C21 <0> A   1     -12.859   7.726  44.035  0.00  0.00    +0.027 C 
ATOM     18  C22 <0> A   1     -13.197   7.745  42.750  0.00  0.00    -0.028 C 
BRANCH  18  19
ATOM     19  C23 <0> A   1     -12.128   7.719  41.689  0.00  0.00    +0.254 C 
BRANCH  19  20
ATOM     20  O4  <0> A   1     -11.451   6.461  41.724  0.00  0.00    -0.536 OA
ATOM     21  H28 <0> A   1     -10.665   6.421  41.161  0.00  0.00    +0.368 HD
ENDBRANCH  19  20
BRANCH  19  22
ATOM     22  C24 <0> A   1     -12.768   7.916  40.314  0.00  0.00    -0.040 C 
BRANCH  22  23
ATOM     23  C25 <0> A   1     -12.378   9.289  39.762  0.00  0.00    +0.232 C 
BRANCH  23  24
ATOM     24  O3  <0> A   1     -12.735   9.366  38.381  0.00  0.00    -0.528 OA
ATOM     25  H27 <0> A   1     -12.163   8.850  37.797  0.00  0.00    +0.351 HD
ENDBRANCH  23  24
BRANCH  23  26
ATOM     26  C26 <0> A   1     -13.114  10.380  40.541  0.00  0.00    -0.102 C 
BRANCH  26  27
ATOM     27  C27 <0> A   1     -13.911  11.230  39.586  0.00  0.00    +0.491 C 
ATOM     28  O1  <0> A   1     -15.128  11.148  39.566  0.00  0.00    -0.681 OA
ATOM     29  O2  <0> A   1     -13.340  12.000  38.833  0.00  0.00    -0.712 OA
ENDBRANCH  26  27
ENDBRANCH  23  26
ENDBRANCH  22  23
ENDBRANCH  19  22
ENDBRANCH  18  19
ENDBRANCH   9  17
BRANCH   1  30
ATOM     30  C13 <0> A   1     -16.638   6.471  48.571  0.00  0.00    +0.081 C 
BRANCH  30  34
ATOM     31  C7  <0> A   1     -20.124   4.667  50.265  0.00  0.00    -0.050 A 
ATOM     32  C8  <0> A   1     -18.861   4.347  50.760  0.00  0.00    +0.002 A 
ATOM     33  C9  <0> A   1     -17.739   4.932  50.209  0.00  0.00    +0.007 A 
ATOM     34  C10 <0> A   1     -17.866   5.835  49.168  0.00  0.00    -0.083 A 
ATOM     35  C11 <0> A   1     -19.118   6.156  48.674  0.00  0.00    +0.063 A 
ATOM     36  C12 <0> A   1     -20.246   5.572  49.214  0.00  0.00    +0.005 A 
BRANCH  31  40
ATOM     37  C1  <0> A   1     -23.592   2.874  51.951  0.00  0.00    -0.002 A 
ATOM     38  C2  <0> A   1     -22.808   2.158  51.064  0.00  0.00    +0.004 A 
ATOM     39  C3  <0> A   1     -21.682   2.735  50.514  0.00  0.00    +0.010 A 
ATOM     40  C4  <0> A   1     -21.334   4.041  50.854  0.00  0.00    -0.039 A 
ATOM     41  C5  <0> A   1     -22.127   4.757  51.748  0.00  0.00    +0.011 A 
ATOM     42  C6  <0> A   1     -23.252   4.171  52.292  0.00  0.00    +0.006 A 
ENDBRANCH  31  40
ENDBRANCH  30  34
ENDBRANCH   1  30
TORSDOF 12
ENDMDL
MODEL 3
REMARK VINA RESULT:      -9.0     15.826     19.035
REMARK  Name = CHEMBL122674
REMARK  12 active torsions:
REMARK  status: ('A' for Active; 'I' for Inactive)
REMARK    1  A    between atoms: C4_4  and  C7_7
REMARK    2  A    between atoms: C10_10  and  C13_13
REMARK    3  A    between atoms: C13_13  and  C14_14
REMARK    4  A    between atoms: N2_21  and  C28_36
REMARK    5  A    between atoms: C20_22  and  C21_23
REMARK    6  A    between atoms: C22_24  and  C23_25
REMARK    7  A    between atoms: C23_25  and  C24_27
REMARK    8  A    between atoms: C23_25  and  O4_35
REMARK    9  A    between atoms: C24_27  and  C25_28
REMARK   10  A    between atoms: C25_28  and  C26_30
REMARK   11  A    between atoms: C25_28  and  O3_34
REMARK   12  A    between atoms: C26_30  and  C27_31
REMARK                            x       y       z     vdW  Elec       q    Type
REMARK                         _______ _______ _______ _____ _____    ______ ____
ROOT
ATOM      1  C14 <0> A   1     -25.647  -1.296  50.810  0.00  0.00    +0.092 C 
ATOM      2  C15 <0> A   1     -24.256  -1.121  50.191  0.00  0.00    +0.029 C 
ATOM      3  C16 <0> A   1     -23.213  -1.843  51.045  0.00  0.00    +0.016 C 
ATOM      4  C17 <0> A   1     -23.375  -3.360  50.884  0.00  0.00    +0.104 C 
ATOM      5  C18 <0> A   1     -24.826  -3.706  51.105  0.00  0.00    -0.211 C 
ATOM      6  C19 <0> A   1     -25.865  -2.766  51.075  0.00  0.00    +0.089 C 
ATOM      7  N1  <0> A   1     -26.990  -3.382  51.305  0.00  0.00    -0.263 NA
ATOM      8  N2  <0> A   1     -26.728  -4.747  51.493  0.00  0.00    -0.330 N 
ATOM      9  C20 <0> A   1     -25.378  -4.935  51.366  0.00  0.00    +0.124 C 
ENDROOT
BRANCH   8  10
ATOM     10  C28 <0> A   1     -27.678  -5.741  51.764  0.00  0.00    +0.150 A 
ATOM     11  C29 <0> A   1     -28.087  -5.974  53.070  0.00  0.00    +0.047 A 
ATOM     12  C30 <0> A   1     -29.024  -6.954  53.336  0.00  0.00    +0.017 A 
ATOM     13  C31 <0> A   1     -29.554  -7.704  52.299  0.00  0.00    +0.097 A 
ATOM     14  C32 <0> A   1     -29.146  -7.474  50.996  0.00  0.00    +0.007 A 
ATOM     15  C33 <0> A   1     -28.215  -6.491  50.726  0.00  0.00    +0.056 A 
ATOM     16  F1  <0> A   1     -30.469  -8.663  52.560  0.00  0.00    -0.135 F 
ENDBRANCH   8  10
BRANCH   9  17
ATOM     17  C21 <0> A   1     -24.654  -6.212  51.486  0.00  0.00    +0.027 C 
ATOM     18  C22 <0> A   1     -24.499  -6.990  50.420  0.00  0.00    -0.028 C 
BRANCH  18  19
ATOM     19  C23 <0> A   1     -23.758  -8.296  50.542  0.00  0.00    +0.254 C 
BRANCH  19  20
ATOM     20  O4  <0> A   1     -24.599  -9.264  51.173  0.00  0.00    -0.536 OA
ATOM     21  H28 <0> A   1     -25.121  -9.795  50.555  0.00  0.00    +0.368 HD
ENDBRANCH  19  20
BRANCH  19  22
ATOM     22  C24 <0> A   1     -23.367  -8.793  49.149  0.00  0.00    -0.040 C 
BRANCH  22  23
ATOM     23  C25 <0> A   1     -24.501  -8.493  48.165  0.00  0.00    +0.232 C 
BRANCH  23  24
ATOM     24  O3  <0> A   1     -23.962  -7.894  46.986  0.00  0.00    -0.528 OA
ATOM     25  H27 <0> A   1     -23.139  -7.408  47.132  0.00  0.00    +0.351 HD
ENDBRANCH  23  24
BRANCH  23  26
ATOM     26  C26 <0> A   1     -25.213  -9.796  47.795  0.00  0.00    -0.102 C 
BRANCH  26  27
ATOM     27  C27 <0> A   1     -26.643  -9.738  48.264  0.00  0.00    +0.491 C 
ATOM     28  O1  <0> A   1     -26.891  -9.680  49.458  0.00  0.00    -0.681 OA
ATOM     29  O2  <0> A   1     -27.553  -9.750  47.453  0.00  0.00    -0.712 OA
ENDBRANCH  26  27
ENDBRANCH  23  26
ENDBRANCH  22  23
ENDBRANCH  19  22
ENDBRANCH  18  19
ENDBRANCH   9  17
BRANCH   1  30
ATOM     30  C13 <0> A   1     -26.713  -0.782  49.840  0.00  0.00    +0.081 C 
BRANCH  30  34
ATOM     31  C7  <0> A   1     -29.409   1.802  51.920  0.00  0.00    -0.050 A 
ATOM     32  C8  <0> A   1     -28.303   2.332  51.259  0.00  0.00    +0.002 A 
ATOM     33  C9  <0> A   1     -27.436   1.493  50.589  0.00  0.00    +0.007 A 
ATOM     34  C10 <0> A   1     -27.663   0.129  50.573  0.00  0.00    -0.083 A 
ATOM     35  C11 <0> A   1     -28.761  -0.403  51.227  0.00  0.00    +0.063 A 
ATOM     36  C12 <0> A   1     -29.631   0.426  51.905  0.00  0.00    +0.005 A 
BRANCH  31  40
ATOM     37  C1  <0> A   1     -32.092   4.374  53.988  0.00  0.00    -0.002 A 
ATOM     38  C2  <0> A   1     -32.533   3.657  52.889  0.00  0.00    +0.004 A 
ATOM     39  C3  <0> A   1     -31.666   2.822  52.215  0.00  0.00    +0.010 A 
ATOM     40  C4  <0> A   1     -30.346   2.699  52.642  0.00  0.00    -0.039 A 
ATOM     41  C5  <0> A   1     -29.907   3.423  53.749  0.00  0.00    +0.011 A 
ATOM     42  C6  <0> A   1     -30.782   4.257  54.416  0.00  0.00    +0.006 A 
ENDBRANCH  31  40
ENDBRANCH  30  34
ENDBRANCH   1  30
TORSDOF 12
ENDMDL
MODEL 4
REMARK VINA RESULT:      -8.8     16.341     19.549
REMARK  Name = CHEMBL122674
REMARK  12 active torsions:
REMARK  status: ('A' for Active; 'I' for Inactive)
REMARK    1  A    between atoms: C4_4  and  C7_7
REMARK    2  A    between atoms: C10_10  and  C13_13
REMARK    3  A    between atoms: C13_13  and  C14_14
REMARK    4  A    between atoms: N2_21  and  C28_36
REMARK    5  A    between atoms: C20_22  and  C21_23
REMARK    6  A    between atoms: C22_24  and  C23_25
REMARK    7  A    between atoms: C23_25  and  C24_27
REMARK    8  A    between atoms: C23_25  and  O4_35
REMARK    9  A    between atoms: C24_27  and  C25_28
REMARK   10  A    between atoms: C25_28  and  C26_30
REMARK   11  A    between atoms: C25_28  and  O3_34
REMARK   12  A    between atoms: C26_30  and  C27_31
REMARK                            x       y       z     vdW  Elec       q    Type
REMARK                         _______ _______ _______ _____ _____    ______ ____
ROOT
ATOM      1  C14 <0> A   1     -25.367  -1.757  50.927  0.00  0.00    +0.092 C 
ATOM      2  C15 <0> A   1     -23.904  -1.602  50.498  0.00  0.00    +0.029 C 
ATOM      3  C16 <0> A   1     -22.991  -2.302  51.506  0.00  0.00    +0.016 C 
ATOM      4  C17 <0> A   1     -23.138  -3.823  51.366  0.00  0.00    +0.104 C 
ATOM      5  C18 <0> A   1     -24.608  -4.160  51.398  0.00  0.00    -0.211 C 
ATOM      6  C19 <0> A   1     -25.627  -3.219  51.201  0.00  0.00    +0.089 C 
ATOM      7  N1  <0> A   1     -26.777  -3.826  51.293  0.00  0.00    -0.263 NA
ATOM      8  N2  <0> A   1     -26.551  -5.186  51.553  0.00  0.00    -0.330 N 
ATOM      9  C20 <0> A   1     -25.197  -5.379  51.615  0.00  0.00    +0.124 C 
ENDROOT
BRANCH   8  10
ATOM     10  C28 <0> A   1     -27.534  -6.170  51.720  0.00  0.00    +0.150 A 
ATOM     11  C29 <0> A   1     -28.134  -6.350  52.959  0.00  0.00    +0.047 A 
ATOM     12  C30 <0> A   1     -29.103  -7.321  53.122  0.00  0.00    +0.017 A 
ATOM     13  C31 <0> A   1     -29.476  -8.114  52.049  0.00  0.00    +0.097 A 
ATOM     14  C32 <0> A   1     -28.877  -7.937  50.813  0.00  0.00    +0.007 A 
ATOM     15  C33 <0> A   1     -27.913  -6.964  50.645  0.00  0.00    +0.056 A 
ATOM     16  F1  <0> A   1     -30.423  -9.064  52.210  0.00  0.00    -0.135 F 
ENDBRANCH   8  10
BRANCH   9  17
ATOM     17  C21 <0> A   1     -24.503  -6.654  51.868  0.00  0.00    +0.027 C 
ATOM     18  C22 <0> A   1     -24.270  -7.493  50.865  0.00  0.00    -0.028 C 
BRANCH  18  19
ATOM     19  C23 <0> A   1     -23.560  -8.797  51.122  0.00  0.00    +0.254 C 
BRANCH  19  20
ATOM     20  O4  <0> A   1     -22.717  -8.662  52.269  0.00  0.00    -0.536 OA
ATOM     21  H28 <0> A   1     -22.672  -9.457  52.820  0.00  0.00    +0.368 HD
ENDBRANCH  19  20
BRANCH  19  22
ATOM     22  C24 <0> A   1     -24.591  -9.898  51.375  0.00  0.00    -0.040 C 
BRANCH  22  23
ATOM     23  C25 <0> A   1     -24.235 -11.131  50.541  0.00  0.00    +0.232 C 
BRANCH  23  24
ATOM     24  O3  <0> A   1     -25.355 -12.016  50.496  0.00  0.00    -0.528 OA
ATOM     25  H27 <0> A   1     -26.193 -11.580  50.292  0.00  0.00    +0.351 HD
ENDBRANCH  23  24
BRANCH  23  26
ATOM     26  C26 <0> A   1     -23.870 -10.697  49.120  0.00  0.00    -0.102 C 
BRANCH  26  27
ATOM     27  C27 <0> A   1     -25.096 -10.753  48.247  0.00  0.00    +0.491 C 
ATOM     28  O1  <0> A   1     -25.820  -9.776  48.150  0.00  0.00    -0.681 OA
ATOM     29  O2  <0> A   1     -25.366 -11.774  47.637  0.00  0.00    -0.712 OA
ENDBRANCH  26  27
ENDBRANCH  23  26
ENDBRANCH  22  23
ENDBRANCH  19  22
ENDBRANCH  18  19
ENDBRANCH   9  17
BRANCH   1  30
ATOM     30  C13 <0> A   1     -26.289  -1.269  49.807  0.00  0.00    +0.081 C 
BRANCH  30  34
ATOM     31  C7  <0> A   1     -29.354   1.210  51.460  0.00  0.00    -0.050 A 
ATOM     32  C8  <0> A   1     -28.296   1.782  50.756  0.00  0.00    +0.002 A 
ATOM     33  C9  <0> A   1     -27.309   0.977  50.225  0.00  0.00    +0.007 A 
ATOM     34  C10 <0> A   1     -27.369  -0.395  50.390  0.00  0.00    -0.083 A 
ATOM     35  C11 <0> A   1     -28.418  -0.968  51.088  0.00  0.00    +0.063 A 
ATOM     36  C12 <0> A   1     -29.406  -0.172  51.628  0.00  0.00    +0.005 A 
BRANCH  31  40
ATOM     37  C1  <0> A   1     -32.404   3.676  53.104  0.00  0.00    -0.002 A 
ATOM     38  C2  <0> A   1     -31.075   4.025  53.264  0.00  0.00    +0.004 A 
ATOM     39  C3  <0> A   1     -30.081   3.228  52.733  0.00  0.00    +0.010 A 
ATOM     40  C4  <0> A   1     -30.419   2.071  52.034  0.00  0.00    -0.039 A 
ATOM     41  C5  <0> A   1     -31.759   1.725  51.876  0.00  0.00    +0.011 A 
ATOM     42  C6  <0> A   1     -32.745   2.529  52.411  0.00  0.00    +0.006 A 
ENDBRANCH  31  40
ENDBRANCH  30  34
ENDBRANCH   1  30
TORSDOF 12
ENDMDL
MODEL 5
REMARK VINA RESULT:      -8.8     16.433     19.791
REMARK  Name = CHEMBL122674
REMARK  12 active torsions:
REMARK  status: ('A' for Active; 'I' for Inactive)
REMARK    1  A    between atoms: C4_4  and  C7_7
REMARK    2  A    between atoms: C10_10  and  C13_13
REMARK    3  A    between atoms: C13_13  and  C14_14
REMARK    4  A    between atoms: N2_21  and  C28_36
REMARK    5  A    between atoms: C20_22  and  C21_23
REMARK    6  A    between atoms: C22_24  and  C23_25
REMARK    7  A    between atoms: C23_25  and  C24_27
REMARK    8  A    between atoms: C23_25  and  O4_35
REMARK    9  A    between atoms: C24_27  and  C25_28
REMARK   10  A    between atoms: C25_28  and  C26_30
REMARK   11  A    between atoms: C25_28  and  O3_34
REMARK   12  A    between atoms: C26_30  and  C27_31
REMARK                            x       y       z     vdW  Elec       q    Type
REMARK                         _______ _______ _______ _____ _____    ______ ____
ROOT
ATOM      1  C14 <0> A   1     -25.378  -1.782  50.974  0.00  0.00    +0.092 C 
ATOM      2  C15 <0> A   1     -23.903  -1.646  50.580  0.00  0.00    +0.029 C 
ATOM      3  C16 <0> A   1     -23.024  -2.363  51.606  0.00  0.00    +0.016 C 
ATOM      4  C17 <0> A   1     -23.188  -3.881  51.455  0.00  0.00    +0.104 C 
ATOM      5  C18 <0> A   1     -24.663  -4.198  51.450  0.00  0.00    -0.211 C 
ATOM      6  C19 <0> A   1     -25.664  -3.242  51.233  0.00  0.00    +0.089 C 
ATOM      7  N1  <0> A   1     -26.825  -3.834  51.295  0.00  0.00    -0.263 NA
ATOM      8  N2  <0> A   1     -26.623  -5.197  51.553  0.00  0.00    -0.330 N 
ATOM      9  C20 <0> A   1     -25.274  -5.410  51.647  0.00  0.00    +0.124 C 
ENDROOT
BRANCH   8  10
ATOM     10  C28 <0> A   1     -27.623  -6.168  51.692  0.00  0.00    +0.150 A 
ATOM     11  C29 <0> A   1     -28.026  -6.913  50.592  0.00  0.00    +0.047 A 
ATOM     12  C30 <0> A   1     -29.013  -7.871  50.730  0.00  0.00    +0.017 A 
ATOM     13  C31 <0> A   1     -29.600  -8.087  51.966  0.00  0.00    +0.097 A 
ATOM     14  C32 <0> A   1     -29.200  -7.344  53.064  0.00  0.00    +0.007 A 
ATOM     15  C33 <0> A   1     -28.210  -6.390  52.931  0.00  0.00    +0.056 A 
ATOM     16  F1  <0> A   1     -30.565  -9.023  52.099  0.00  0.00    -0.135 F 
ENDBRANCH   8  10
BRANCH   9  17
ATOM     17  C21 <0> A   1     -24.604  -6.695  51.909  0.00  0.00    +0.027 C 
ATOM     18  C22 <0> A   1     -24.301  -7.504  50.899  0.00  0.00    -0.028 C 
BRANCH  18  19
ATOM     19  C23 <0> A   1     -23.615  -8.819  51.167  0.00  0.00    +0.254 C 
BRANCH  19  20
ATOM     20  O4  <0> A   1     -23.047  -8.802  52.479  0.00  0.00    -0.536 OA
ATOM     21  H28 <0> A   1     -23.557  -9.300  53.134  0.00  0.00    +0.368 HD
ENDBRANCH  19  20
BRANCH  19  22
ATOM     22  C24 <0> A   1     -24.634  -9.955  51.067  0.00  0.00    -0.040 C 
BRANCH  22  23
ATOM     23  C25 <0> A   1     -23.927 -11.295  51.289  0.00  0.00    +0.232 C 
BRANCH  23  24
ATOM     24  O3  <0> A   1     -23.893 -11.590  52.685  0.00  0.00    -0.528 OA
ATOM     25  H27 <0> A   1     -23.349 -12.357  52.913  0.00  0.00    +0.351 HD
ENDBRANCH  23  24
BRANCH  23  26
ATOM     26  C26 <0> A   1     -24.686 -12.400  50.551  0.00  0.00    -0.102 C 
BRANCH  26  27
ATOM     27  C27 <0> A   1     -24.390 -12.315  49.077  0.00  0.00    +0.491 C 
ATOM     28  O1  <0> A   1     -25.293 -12.096  48.286  0.00  0.00    -0.681 OA
ATOM     29  O2  <0> A   1     -23.250 -12.466  48.673  0.00  0.00    -0.712 OA
ENDBRANCH  26  27
ENDBRANCH  23  26
ENDBRANCH  22  23
ENDBRANCH  19  22
ENDBRANCH  18  19
ENDBRANCH   9  17
BRANCH   1  30
ATOM     30  C13 <0> A   1     -26.266  -1.277  49.835  0.00  0.00    +0.081 C 
BRANCH  30  34
ATOM     31  C7  <0> A   1     -29.375   1.184  51.435  0.00  0.00    -0.050 A 
ATOM     32  C8  <0> A   1     -29.411  -0.197  51.620  0.00  0.00    +0.002 A 
ATOM     33  C9  <0> A   1     -28.405  -0.987  51.101  0.00  0.00    +0.007 A 
ATOM     34  C10 <0> A   1     -27.362  -0.410  50.399  0.00  0.00    -0.083 A 
ATOM     35  C11 <0> A   1     -27.321   0.961  50.213  0.00  0.00    +0.063 A 
ATOM     36  C12 <0> A   1     -28.324   1.759  50.723  0.00  0.00    +0.005 A 
BRANCH  31  40
ATOM     37  C1  <0> A   1     -32.466   3.630  53.029  0.00  0.00    -0.002 A 
ATOM     38  C2  <0> A   1     -31.143   4.003  53.184  0.00  0.00    +0.004 A 
ATOM     39  C3  <0> A   1     -30.136   3.213  52.669  0.00  0.00    +0.010 A 
ATOM     40  C4  <0> A   1     -30.454   2.038  51.991  0.00  0.00    -0.039 A 
ATOM     41  C5  <0> A   1     -31.788   1.667  51.838  0.00  0.00    +0.011 A 
ATOM     42  C6  <0> A   1     -32.787   2.465  52.357  0.00  0.00    +0.006 A 
ENDBRANCH  31  40
ENDBRANCH  30  34
ENDBRANCH   1  30
TORSDOF 12
ENDMDL
MODEL 6
REMARK VINA RESULT:      -8.7     13.126     16.941
REMARK  Name = CHEMBL122674
REMARK  12 active torsions:
REMARK  status: ('A' for Active; 'I' for Inactive)
REMARK    1  A    between atoms: C4_4  and  C7_7
REMARK    2  A    between atoms: C10_10  and  C13_13
REMARK    3  A    between atoms: C13_13  and  C14_14
REMARK    4  A    between atoms: N2_21  and  C28_36
REMARK    5  A    between atoms: C20_22  and  C21_23
REMARK    6  A    between atoms: C22_24  and  C23_25
REMARK    7  A    between atoms: C23_25  and  C24_27
REMARK    8  A    between atoms: C23_25  and  O4_35
REMARK    9  A    between atoms: C24_27  and  C25_28
REMARK   10  A    between atoms: C25_28  and  C26_30
REMARK   11  A    between atoms: C25_28  and  O3_34
REMARK   12  A    between atoms: C26_30  and  C27_31
REMARK                            x       y       z     vdW  Elec       q    Type
REMARK                         _______ _______ _______ _____ _____    ______ ____
ROOT
ATOM      1  C14 <0> A   1     -24.533  -3.592  50.922  0.00  0.00    +0.092 C 
ATOM      2  C15 <0> A   1     -23.086  -3.782  51.391  0.00  0.00    +0.029 C 
ATOM      3  C16 <0> A   1     -22.204  -2.676  50.811  0.00  0.00    +0.016 C 
ATOM      4  C17 <0> A   1     -22.523  -1.344  51.503  0.00  0.00    +0.104 C 
ATOM      5  C18 <0> A   1     -24.017  -1.141  51.467  0.00  0.00    -0.211 C 
ATOM      6  C19 <0> A   1     -24.937  -2.164  51.201  0.00  0.00    +0.089 C 
ATOM      7  N1  <0> A   1     -26.140  -1.663  51.241  0.00  0.00    -0.263 NA
ATOM      8  N2  <0> A   1     -26.050  -0.296  51.537  0.00  0.00    -0.330 N 
ATOM      9  C20 <0> A   1     -24.724   0.016  51.676  0.00  0.00    +0.124 C 
ENDROOT
BRANCH   8  10
ATOM     10  C28 <0> A   1     -27.125   0.594  51.667  0.00  0.00    +0.150 A 
ATOM     11  C29 <0> A   1     -27.653   1.215  50.543  0.00  0.00    +0.047 A 
ATOM     12  C30 <0> A   1     -28.712   2.092  50.673  0.00  0.00    +0.017 A 
ATOM     13  C31 <0> A   1     -29.248   2.351  51.924  0.00  0.00    +0.097 A 
ATOM     14  C32 <0> A   1     -28.722   1.733  53.046  0.00  0.00    +0.007 A 
ATOM     15  C33 <0> A   1     -27.667   0.852  52.920  0.00  0.00    +0.056 A 
ATOM     16  F1  <0> A   1     -30.284   3.209  52.049  0.00  0.00    -0.135 F 
ENDBRANCH   8  10
BRANCH   9  17
ATOM     17  C21 <0> A   1     -24.162   1.341  51.989  0.00  0.00    +0.027 C 
ATOM     18  C22 <0> A   1     -23.284   1.901  51.164  0.00  0.00    -0.028 C 
BRANCH  18  19
ATOM     19  C23 <0> A   1     -22.709   3.257  51.483  0.00  0.00    +0.254 C 
BRANCH  19  20
ATOM     20  O4  <0> A   1     -23.519   3.898  52.470  0.00  0.00    -0.536 OA
ATOM     21  H28 <0> A   1     -23.019   4.431  53.104  0.00  0.00    +0.368 HD
ENDBRANCH  19  20
BRANCH  19  22
ATOM     22  C24 <0> A   1     -21.286   3.093  52.020  0.00  0.00    -0.040 C 
BRANCH  22  23
ATOM     23  C25 <0> A   1     -20.304   3.806  51.088  0.00  0.00    +0.232 C 
BRANCH  23  24
ATOM     24  O3  <0> A   1     -19.925   2.925  50.030  0.00  0.00    -0.528 OA
ATOM     25  H27 <0> A   1     -20.385   3.090  49.196  0.00  0.00    +0.351 HD
ENDBRANCH  23  24
BRANCH  23  26
ATOM     26  C26 <0> A   1     -20.972   5.051  50.500  0.00  0.00    -0.102 C 
BRANCH  26  27
ATOM     27  C27 <0> A   1     -20.424   5.312  49.121  0.00  0.00    +0.491 C 
ATOM     28  O1  <0> A   1     -21.135   5.151  48.143  0.00  0.00    -0.681 OA
ATOM     29  O2  <0> A   1     -19.272   5.684  48.982  0.00  0.00    -0.712 OA
ENDBRANCH  26  27
ENDBRANCH  23  26
ENDBRANCH  22  23
ENDBRANCH  19  22
ENDBRANCH  18  19
ENDBRANCH   9  17
BRANCH   1  30
ATOM     30  C13 <0> A   1     -25.454  -4.547  51.685  0.00  0.00    +0.081 C 
BRANCH  30  34
ATOM     31  C7  <0> A   1     -24.907  -8.527  50.224  0.00  0.00    -0.050 A 
ATOM     32  C8  <0> A   1     -24.401  -8.164  51.470  0.00  0.00    +0.002 A 
ATOM     33  C9  <0> A   1     -24.580  -6.878  51.937  0.00  0.00    +0.007 A 
ATOM     34  C10 <0> A   1     -25.261  -5.950  51.170  0.00  0.00    -0.083 A 
ATOM     35  C11 <0> A   1     -25.767  -6.305  49.932  0.00  0.00    +0.063 A 
ATOM     36  C12 <0> A   1     -25.588  -7.586  49.453  0.00  0.00    +0.005 A 
BRANCH  31  40
ATOM     37  C1  <0> A   1     -24.366 -12.487  48.771  0.00  0.00    -0.002 A 
ATOM     38  C2  <0> A   1     -24.531 -11.442  47.879  0.00  0.00    +0.004 A 
ATOM     39  C3  <0> A   1     -24.707 -10.156  48.345  0.00  0.00    +0.010 A 
ATOM     40  C4  <0> A   1     -24.718  -9.909  49.716  0.00  0.00    -0.039 A 
ATOM     41  C5  <0> A   1     -24.552 -10.965  50.610  0.00  0.00    +0.011 A 
ATOM     42  C6  <0> A   1     -24.377 -12.248  50.133  0.00  0.00    +0.006 A 
ENDBRANCH  31  40
ENDBRANCH  30  34
ENDBRANCH   1  30
TORSDOF 12
ENDMDL
MODEL 7
REMARK VINA RESULT:      -8.6     13.046     16.849
REMARK  Name = CHEMBL122674
REMARK  12 active torsions:
REMARK  status: ('A' for Active; 'I' for Inactive)
REMARK    1  A    between atoms: C4_4  and  C7_7
REMARK    2  A    between atoms: C10_10  and  C13_13
REMARK    3  A    between atoms: C13_13  and  C14_14
REMARK    4  A    between atoms: N2_21  and  C28_36
REMARK    5  A    between atoms: C20_22  and  C21_23
REMARK    6  A    between atoms: C22_24  and  C23_25
REMARK    7  A    between atoms: C23_25  and  C24_27
REMARK    8  A    between atoms: C23_25  and  O4_35
REMARK    9  A    between atoms: C24_27  and  C25_28
REMARK   10  A    between atoms: C25_28  and  C26_30
REMARK   11  A    between atoms: C25_28  and  O3_34
REMARK   12  A    between atoms: C26_30  and  C27_31
REMARK                            x       y       z     vdW  Elec       q    Type
REMARK                         _______ _______ _______ _____ _____    ______ ____
ROOT
ATOM      1  C14 <0> A   1     -24.451  -3.540  50.940  0.00  0.00    +0.092 C 
ATOM      2  C15 <0> A   1     -23.011  -3.764  51.415  0.00  0.00    +0.029 C 
ATOM      3  C16 <0> A   1     -22.104  -2.667  50.854  0.00  0.00    +0.016 C 
ATOM      4  C17 <0> A   1     -22.402  -1.339  51.561  0.00  0.00    +0.104 C 
ATOM      5  C18 <0> A   1     -23.892  -1.107  51.521  0.00  0.00    -0.211 C 
ATOM      6  C19 <0> A   1     -24.829  -2.108  51.235  0.00  0.00    +0.089 C 
ATOM      7  N1  <0> A   1     -26.023  -1.585  51.275  0.00  0.00    -0.263 NA
ATOM      8  N2  <0> A   1     -25.909  -0.224  51.590  0.00  0.00    -0.330 N 
ATOM      9  C20 <0> A   1     -24.578   0.061  51.740  0.00  0.00    +0.124 C 
ENDROOT
BRANCH   8  10
ATOM     10  C28 <0> A   1     -26.967   0.684  51.726  0.00  0.00    +0.150 A 
ATOM     11  C29 <0> A   1     -27.468   0.986  52.985  0.00  0.00    +0.047 A 
ATOM     12  C30 <0> A   1     -28.512   1.882  53.117  0.00  0.00    +0.017 A 
ATOM     13  C31 <0> A   1     -29.058   2.478  51.992  0.00  0.00    +0.097 A 
ATOM     14  C32 <0> A   1     -28.561   2.178  50.735  0.00  0.00    +0.007 A 
ATOM     15  C33 <0> A   1     -27.514   1.288  50.600  0.00  0.00    +0.056 A 
ATOM     16  F1  <0> A   1     -30.079   3.354  52.123  0.00  0.00    -0.135 F 
ENDBRANCH   8  10
BRANCH   9  17
ATOM     17  C21 <0> A   1     -23.992   1.371  52.074  0.00  0.00    +0.027 C 
ATOM     18  C22 <0> A   1     -23.182   1.975  51.211  0.00  0.00    -0.028 C 
BRANCH  18  19
ATOM     19  C23 <0> A   1     -22.583   3.315  51.551  0.00  0.00    +0.254 C 
BRANCH  19  20
ATOM     20  O4  <0> A   1     -23.362   3.939  52.574  0.00  0.00    -0.536 OA
ATOM     21  H28 <0> A   1     -24.316   3.823  52.468  0.00  0.00    +0.368 HD
ENDBRANCH  19  20
BRANCH  19  22
ATOM     22  C24 <0> A   1     -21.149   3.121  52.048  0.00  0.00    -0.040 C 
BRANCH  22  23
ATOM     23  C25 <0> A   1     -20.183   3.851  51.111  0.00  0.00    +0.232 C 
BRANCH  23  24
ATOM     24  O3  <0> A   1     -19.807   2.981  50.043  0.00  0.00    -0.528 OA
ATOM     25  H27 <0> A   1     -20.089   2.064  50.164  0.00  0.00    +0.351 HD
ENDBRANCH  23  24
BRANCH  23  26
ATOM     26  C26 <0> A   1     -20.868   5.094  50.540  0.00  0.00    -0.102 C 
BRANCH  26  27
ATOM     27  C27 <0> A   1     -20.480   5.262  49.094  0.00  0.00    +0.491 C 
ATOM     28  O1  <0> A   1     -21.270   4.967  48.213  0.00  0.00    -0.681 OA
ATOM     29  O2  <0> A   1     -19.377   5.694  48.805  0.00  0.00    -0.712 OA
ENDBRANCH  26  27
ENDBRANCH  23  26
ENDBRANCH  22  23
ENDBRANCH  19  22
ENDBRANCH  18  19
ENDBRANCH   9  17
BRANCH   1  30
ATOM     30  C13 <0> A   1     -25.395  -4.487  51.686  0.00  0.00    +0.081 C 
BRANCH  30  34
ATOM     31  C7  <0> A   1     -24.891  -8.463  50.199  0.00  0.00    -0.050 A 
ATOM     32  C8  <0> A   1     -25.605  -7.525  49.457  0.00  0.00    +0.002 A 
ATOM     33  C9  <0> A   1     -25.765  -6.243  49.942  0.00  0.00    +0.007 A 
ATOM     34  C10 <0> A   1     -25.218  -5.888  51.161  0.00  0.00    -0.083 A 
ATOM     35  C11 <0> A   1     -24.507  -6.816  51.902  0.00  0.00    +0.063 A 
ATOM     36  C12 <0> A   1     -24.346  -8.103  51.429  0.00  0.00    +0.005 A 
BRANCH  31  40
ATOM     37  C1  <0> A   1     -24.388 -12.418  48.718  0.00  0.00    -0.002 A 
ATOM     38  C2  <0> A   1     -24.373 -12.186  50.082  0.00  0.00    +0.004 A 
ATOM     39  C3  <0> A   1     -24.535 -10.905  50.568  0.00  0.00    +0.010 A 
ATOM     40  C4  <0> A   1     -24.716  -9.844  49.682  0.00  0.00    -0.039 A 
ATOM     41  C5  <0> A   1     -24.731 -10.084  48.310  0.00  0.00    +0.011 A 
ATOM     42  C6  <0> A   1     -24.567 -11.369  47.835  0.00  0.00    +0.006 A 
ENDBRANCH  31  40
ENDBRANCH  30  34
ENDBRANCH   1  30
TORSDOF 12
ENDMDL
MODEL 8
REMARK VINA RESULT:      -8.6     15.633     18.974
REMARK  Name = CHEMBL122674
REMARK  12 active torsions:
REMARK  status: ('A' for Active; 'I' for Inactive)
REMARK    1  A    between atoms: C4_4  and  C7_7
REMARK    2  A    between atoms: C10_10  and  C13_13
REMARK    3  A    between atoms: C13_13  and  C14_14
REMARK    4  A    between atoms: N2_21  and  C28_36
REMARK    5  A    between atoms: C20_22  and  C21_23
REMARK    6  A    between atoms: C22_24  and  C23_25
REMARK    7  A    between atoms: C23_25  and  C24_27
REMARK    8  A    between atoms: C23_25  and  O4_35
REMARK    9  A    between atoms: C24_27  and  C25_28
REMARK   10  A    between atoms: C25_28  and  C26_30
REMARK   11  A    between atoms: C25_28  and  O3_34
REMARK   12  A    between atoms: C26_30  and  C27_31
REMARK                            x       y       z     vdW  Elec       q    Type
REMARK                         _______ _______ _______ _____ _____    ______ ____
ROOT
ATOM      1  C14 <0> A   1     -24.102  -1.003  51.506  0.00  0.00    +0.092 C 
ATOM      2  C15 <0> A   1     -22.581  -1.124  51.357  0.00  0.00    +0.029 C 
ATOM      3  C16 <0> A   1     -22.045  -2.166  52.340  0.00  0.00    +0.016 C 
ATOM      4  C17 <0> A   1     -22.458  -3.570  51.880  0.00  0.00    +0.104 C 
ATOM      5  C18 <0> A   1     -23.941  -3.560  51.607  0.00  0.00    -0.211 C 
ATOM      6  C19 <0> A   1     -24.694  -2.390  51.438  0.00  0.00    +0.089 C 
ATOM      7  N1  <0> A   1     -25.936  -2.723  51.221  0.00  0.00    -0.263 NA
ATOM      8  N2  <0> A   1     -26.039  -4.121  51.239  0.00  0.00    -0.330 N 
ATOM      9  C20 <0> A   1     -24.791  -4.629  51.480  0.00  0.00    +0.124 C 
ENDROOT
BRANCH   8  10
ATOM     10  C28 <0> A   1     -27.210  -4.866  51.047  0.00  0.00    +0.150 A 
ATOM     11  C29 <0> A   1     -27.618  -5.202  49.763  0.00  0.00    +0.047 A 
ATOM     12  C30 <0> A   1     -28.773  -5.936  49.575  0.00  0.00    +0.017 A 
ATOM     13  C31 <0> A   1     -29.524  -6.337  50.668  0.00  0.00    +0.097 A 
ATOM     14  C32 <0> A   1     -29.120  -6.001  51.949  0.00  0.00    +0.007 A 
ATOM     15  C33 <0> A   1     -27.963  -5.273  52.141  0.00  0.00    +0.056 A 
ATOM     16  F1  <0> A   1     -30.654  -7.054  50.483  0.00  0.00    -0.135 F 
ENDBRANCH   8  10
BRANCH   9  17
ATOM     17  C21 <0> A   1     -24.427  -6.053  51.583  0.00  0.00    +0.027 C 
ATOM     18  C22 <0> A   1     -24.339  -6.797  50.486  0.00  0.00    -0.028 C 
BRANCH  18  19
ATOM     19  C23 <0> A   1     -23.967  -8.254  50.591  0.00  0.00    +0.254 C 
BRANCH  19  20
ATOM     20  O4  <0> A   1     -23.230  -8.471  51.796  0.00  0.00    -0.536 OA
ATOM     21  H28 <0> A   1     -23.627  -8.063  52.579  0.00  0.00    +0.368 HD
ENDBRANCH  19  20
BRANCH  19  22
ATOM     22  C24 <0> A   1     -25.238  -9.105  50.610  0.00  0.00    -0.040 C 
BRANCH  22  23
ATOM     23  C25 <0> A   1     -24.870 -10.563  50.891  0.00  0.00    +0.232 C 
BRANCH  23  24
ATOM     24  O3  <0> A   1     -26.061 -11.345  50.989  0.00  0.00    -0.528 OA
ATOM     25  H27 <0> A   1     -26.195 -11.751  51.857  0.00  0.00    +0.351 HD
ENDBRANCH  23  24
BRANCH  23  26
ATOM     26  C26 <0> A   1     -24.001 -11.098  49.751  0.00  0.00    -0.102 C 
BRANCH  26  27
ATOM     27  C27 <0> A   1     -24.785 -12.106  48.951  0.00  0.00    +0.491 C 
ATOM     28  O1  <0> A   1     -25.365 -11.759  47.935  0.00  0.00    -0.681 OA
ATOM     29  O2  <0> A   1     -24.840 -13.267  49.318  0.00  0.00    -0.712 OA
ENDBRANCH  26  27
ENDBRANCH  23  26
ENDBRANCH  22  23
ENDBRANCH  19  22
ENDBRANCH  18  19
ENDBRANCH   9  17
BRANCH   1  30
ATOM     30  C13 <0> A   1     -24.665  -0.145  50.371  0.00  0.00    +0.081 C 
BRANCH  30  34
ATOM     31  C7  <0> A   1     -28.334   1.652  51.630  0.00  0.00    -0.050 A 
ATOM     32  C8  <0> A   1     -28.243   1.054  50.375  0.00  0.00    +0.002 A 
ATOM     33  C9  <0> A   1     -27.056   0.476  49.973  0.00  0.00    +0.007 A 
ATOM     34  C10 <0> A   1     -25.958   0.488  50.814  0.00  0.00    -0.083 A 
ATOM     35  C11 <0> A   1     -26.043   1.080  52.062  0.00  0.00    +0.063 A 
ATOM     36  C12 <0> A   1     -27.223   1.666  52.471  0.00  0.00    +0.005 A 
BRANCH  31  40
ATOM     37  C1  <0> A   1     -31.984   3.438  52.885  0.00  0.00    -0.002 A 
ATOM     38  C2  <0> A   1     -30.777   4.015  53.238  0.00  0.00    +0.004 A 
ATOM     39  C3  <0> A   1     -29.590   3.440  52.834  0.00  0.00    +0.010 A 
ATOM     40  C4  <0> A   1     -29.608   2.276  52.068  0.00  0.00    -0.039 A 
ATOM     41  C5  <0> A   1     -30.826   1.699  51.716  0.00  0.00    +0.011 A 
ATOM     42  C6  <0> A   1     -32.008   2.282  52.125  0.00  0.00    +0.006 A 
ENDBRANCH  31  40
ENDBRANCH  30  34
ENDBRANCH   1  30
TORSDOF 12
ENDMDL
MODEL 9
REMARK VINA RESULT:      -8.4     17.023     20.791
REMARK  Name = CHEMBL122674
REMARK  12 active torsions:
REMARK  status: ('A' for Active; 'I' for Inactive)
REMARK    1  A    between atoms: C4_4  and  C7_7
REMARK    2  A    between atoms: C10_10  and  C13_13
REMARK    3  A    between atoms: C13_13  and  C14_14
REMARK    4  A    between atoms: N2_21  and  C28_36
REMARK    5  A    between atoms: C20_22  and  C21_23
REMARK    6  A    between atoms: C22_24  and  C23_25
REMARK    7  A    between atoms: C23_25  and  C24_27
REMARK    8  A    between atoms: C23_25  and  O4_35
REMARK    9  A    between atoms: C24_27  and  C25_28
REMARK   10  A    between atoms: C25_28  and  C26_30
REMARK   11  A    between atoms: C25_28  and  O3_34
REMARK   12  A    between atoms: C26_30  and  C27_31
REMARK                            x       y       z     vdW  Elec       q    Type
REMARK                         _______ _______ _______ _____ _____    ______ ____
ROOT
ATOM      1  C14 <0> A   1     -25.308  -3.625  50.837  0.00  0.00    +0.092 C 
ATOM      2  C15 <0> A   1     -26.192  -3.041  51.944  0.00  0.00    +0.029 C 
ATOM      3  C16 <0> A   1     -27.649  -3.446  51.712  0.00  0.00    +0.016 C 
ATOM      4  C17 <0> A   1     -27.823  -4.941  52.009  0.00  0.00    +0.104 C 
ATOM      5  C18 <0> A   1     -26.756  -5.699  51.258  0.00  0.00    -0.211 C 
ATOM      6  C19 <0> A   1     -25.609  -5.101  50.721  0.00  0.00    +0.089 C 
ATOM      7  N1  <0> A   1     -24.894  -6.022  50.136  0.00  0.00    -0.263 NA
ATOM      8  N2  <0> A   1     -25.548  -7.254  50.272  0.00  0.00    -0.330 N 
ATOM      9  C20 <0> A   1     -26.705  -7.039  50.973  0.00  0.00    +0.124 C 
ENDROOT
BRANCH   8  10
ATOM     10  C28 <0> A   1     -25.100  -8.486  49.779  0.00  0.00    +0.150 A 
ATOM     11  C29 <0> A   1     -24.275  -9.288  50.556  0.00  0.00    +0.047 A 
ATOM     12  C30 <0> A   1     -23.833 -10.503  50.068  0.00  0.00    +0.017 A 
ATOM     13  C31 <0> A   1     -24.214 -10.921  48.803  0.00  0.00    +0.097 A 
ATOM     14  C32 <0> A   1     -25.035 -10.121  48.026  0.00  0.00    +0.007 A 
ATOM     15  C33 <0> A   1     -25.483  -8.910  48.513  0.00  0.00    +0.056 A 
ATOM     16  F1  <0> A   1     -23.780 -12.108  48.327  0.00  0.00    -0.135 F 
ENDBRANCH   8  10
BRANCH   9  17
ATOM     17  C21 <0> A   1     -27.705  -8.053  51.349  0.00  0.00    +0.027 C 
ATOM     18  C22 <0> A   1     -28.776  -8.244  50.584  0.00  0.00    -0.028 C 
BRANCH  18  19
ATOM     19  C23 <0> A   1     -29.799  -9.282  50.968  0.00  0.00    +0.254 C 
BRANCH  19  20
ATOM     20  O4  <0> A   1     -29.347 -10.573  50.555  0.00  0.00    -0.536 OA
ATOM     21  H28 <0> A   1     -28.991 -10.596  49.656  0.00  0.00    +0.368 HD
ENDBRANCH  19  20
BRANCH  19  22
ATOM     22  C24 <0> A   1     -29.992  -9.270  52.486  0.00  0.00    -0.040 C 
BRANCH  22  23
ATOM     23  C25 <0> A   1     -31.274 -10.028  52.841  0.00  0.00    +0.232 C 
BRANCH  23  24
ATOM     24  O3  <0> A   1     -31.859 -10.560  51.652  0.00  0.00    -0.528 OA
ATOM     25  H27 <0> A   1     -32.140  -9.887  51.017  0.00  0.00    +0.351 HD
ENDBRANCH  23  24
BRANCH  23  26
ATOM     26  C26 <0> A   1     -30.939 -11.172  53.801  0.00  0.00    -0.102 C 
BRANCH  26  27
ATOM     27  C27 <0> A   1     -30.955 -12.479  53.052  0.00  0.00    +0.491 C 
ATOM     28  O1  <0> A   1     -30.010 -12.787  52.344  0.00  0.00    -0.681 OA
ATOM     29  O2  <0> A   1     -31.912 -13.228  53.151  0.00  0.00    -0.712 OA
ENDBRANCH  26  27
ENDBRANCH  23  26
ENDBRANCH  22  23
ENDBRANCH  19  22
ENDBRANCH  18  19
ENDBRANCH   9  17
BRANCH   1  30
ATOM     30  C13 <0> A   1     -23.833  -3.425  51.193  0.00  0.00    +0.081 C 
BRANCH  30  34
ATOM     31  C7  <0> A   1     -22.951   0.755  51.323  0.00  0.00    -0.050 A 
ATOM     32  C8  <0> A   1     -23.922   0.273  50.448  0.00  0.00    +0.002 A 
ATOM     33  C9  <0> A   1     -24.203  -1.078  50.410  0.00  0.00    +0.007 A 
ATOM     34  C10 <0> A   1     -23.523  -1.952  51.239  0.00  0.00    -0.083 A 
ATOM     35  C11 <0> A   1     -22.558  -1.478  52.110  0.00  0.00    +0.063 A 
ATOM     36  C12 <0> A   1     -22.265  -0.130  52.152  0.00  0.00    +0.005 A 
BRANCH  31  40
ATOM     37  C1  <0> A   1     -22.074   4.915  51.454  0.00  0.00    -0.002 A 
ATOM     38  C2  <0> A   1     -21.452   4.108  50.517  0.00  0.00    +0.004 A 
ATOM     39  C3  <0> A   1     -21.733   2.758  50.470  0.00  0.00    +0.010 A 
ATOM     40  C4  <0> A   1     -22.645   2.207  51.368  0.00  0.00    -0.039 A 
ATOM     41  C5  <0> A   1     -23.268   3.024  52.309  0.00  0.00    +0.011 A 
ATOM     42  C6  <0> A   1     -22.980   4.373  52.347  0.00  0.00    +0.006 A 
ENDBRANCH  31  40
ENDBRANCH  30  34
ENDBRANCH   1  30
TORSDOF 12
ENDMDL
MODEL 10
REMARK VINA RESULT:      -8.4     16.661     20.543
REMARK  Name = CHEMBL122674
REMARK  12 active torsions:
REMARK  status: ('A' for Active; 'I' for Inactive)
REMARK    1  A    between atoms: C4_4  and  C7_7
REMARK    2  A    between atoms: C10_10  and  C13_13
REMARK    3  A    between atoms: C13_13  and  C14_14
REMARK    4  A    between atoms: N2_21  and  C28_36
REMARK    5  A    between atoms: C20_22  and  C21_23
REMARK    6  A    between atoms: C22_24  and  C23_25
REMARK    7  A    between atoms: C23_25  and  C24_27
REMARK    8  A    between atoms: C23_25  and  O4_35
REMARK    9  A    between atoms: C24_27  and  C25_28
REMARK   10  A    between atoms: C25_28  and  C26_30
REMARK   11  A    between atoms: C25_28  and  O3_34
REMARK   12  A    between atoms: C26_30  and  C27_31
REMARK                            x       y       z     vdW  Elec       q    Type
REMARK                         _______ _______ _______ _____ _____    ______ ____
ROOT
ATOM      1  C14 <0> A   1     -24.367  -2.142  50.567  0.00  0.00    +0.092 C 
ATOM      2  C15 <0> A   1     -24.974  -1.225  51.635  0.00  0.00    +0.029 C 
ATOM      3  C16 <0> A   1     -26.457  -1.551  51.816  0.00  0.00    +0.016 C 
ATOM      4  C17 <0> A   1     -26.606  -2.902  52.527  0.00  0.00    +0.104 C 
ATOM      5  C18 <0> A   1     -25.748  -3.912  51.806  0.00  0.00    -0.211 C 
ATOM      6  C19 <0> A   1     -24.727  -3.568  50.910  0.00  0.00    +0.089 C 
ATOM      7  N1  <0> A   1     -24.183  -4.664  50.459  0.00  0.00    -0.263 NA
ATOM      8  N2  <0> A   1     -24.828  -5.762  51.046  0.00  0.00    -0.330 N 
ATOM      9  C20 <0> A   1     -25.799  -5.280  51.881  0.00  0.00    +0.124 C 
ENDROOT
BRANCH   8  10
ATOM     10  C28 <0> A   1     -24.532  -7.112  50.817  0.00  0.00    +0.150 A 
ATOM     11  C29 <0> A   1     -23.861  -7.851  51.782  0.00  0.00    +0.047 A 
ATOM     12  C30 <0> A   1     -23.570  -9.182  51.555  0.00  0.00    +0.017 A 
ATOM     13  C31 <0> A   1     -23.948  -9.780  50.364  0.00  0.00    +0.097 A 
ATOM     14  C32 <0> A   1     -24.616  -9.045  49.399  0.00  0.00    +0.007 A 
ATOM     15  C33 <0> A   1     -24.914  -7.716  49.625  0.00  0.00    +0.056 A 
ATOM     16  F1  <0> A   1     -23.662 -11.082  50.143  0.00  0.00    -0.135 F 
ENDBRANCH   8  10
BRANCH   9  17
ATOM     17  C21 <0> A   1     -26.723  -6.078  52.706  0.00  0.00    +0.027 C 
ATOM     18  C22 <0> A   1     -27.973  -6.276  52.298  0.00  0.00    -0.028 C 
BRANCH  18  19
ATOM     19  C23 <0> A   1     -28.919  -7.092  53.141  0.00  0.00    +0.254 C 
BRANCH  19  20
ATOM     20  O4  <0> A   1     -28.901  -6.606  54.484  0.00  0.00    -0.536 OA
ATOM     21  H28 <0> A   1     -29.509  -5.870  54.644  0.00  0.00    +0.368 HD
ENDBRANCH  19  20
BRANCH  19  22
ATOM     22  C24 <0> A   1     -30.335  -6.975  52.575  0.00  0.00    -0.040 C 
BRANCH  22  23
ATOM     23  C25 <0> A   1     -30.976  -8.364  52.514  0.00  0.00    +0.232 C 
BRANCH  23  24
ATOM     24  O3  <0> A   1     -29.977  -9.336  52.201  0.00  0.00    -0.528 OA
ATOM     25  H27 <0> A   1     -30.314 -10.107  51.724  0.00  0.00    +0.351 HD
ENDBRANCH  23  24
BRANCH  23  26
ATOM     26  C26 <0> A   1     -31.603  -8.696  53.869  0.00  0.00    -0.102 C 
BRANCH  26  27
ATOM     27  C27 <0> A   1     -31.029  -9.989  54.387  0.00  0.00    +0.491 C 
ATOM     28  O1  <0> A   1     -30.068  -9.971  55.139  0.00  0.00    -0.681 OA
ATOM     29  O2  <0> A   1     -31.523 -11.053  54.055  0.00  0.00    -0.712 OA
ENDBRANCH  26  27
ENDBRANCH  23  26
ENDBRANCH  22  23
ENDBRANCH  19  22
ENDBRANCH  18  19
ENDBRANCH   9  17
BRANCH   1  30
ATOM     30  C13 <0> A   1     -22.845  -1.984  50.555  0.00  0.00    +0.081 C 
BRANCH  30  34
ATOM     31  C7  <0> A   1     -21.315  -2.587  54.501  0.00  0.00    -0.050 A 
ATOM     32  C8  <0> A   1     -20.997  -3.483  53.483  0.00  0.00    +0.002 A 
ATOM     33  C9  <0> A   1     -21.494  -3.284  52.211  0.00  0.00    +0.007 A 
ATOM     34  C10 <0> A   1     -22.305  -2.197  51.945  0.00  0.00    -0.083 A 
ATOM     35  C11 <0> A   1     -22.624  -1.302  52.952  0.00  0.00    +0.063 A 
ATOM     36  C12 <0> A   1     -22.137  -1.495  54.228  0.00  0.00    +0.005 A 
BRANCH  31  40
ATOM     37  C1  <0> A   1     -19.793  -3.186  58.426  0.00  0.00    -0.002 A 
ATOM     38  C2  <0> A   1     -19.169  -3.785  57.346  0.00  0.00    +0.004 A 
ATOM     39  C3  <0> A   1     -19.659  -3.594  56.071  0.00  0.00    +0.010 A 
ATOM     40  C4  <0> A   1     -20.783  -2.796  55.871  0.00  0.00    -0.039 A 
ATOM     41  C5  <0> A   1     -21.408  -2.195  56.962  0.00  0.00    +0.011 A 
ATOM     42  C6  <0> A   1     -20.909  -2.393  58.234  0.00  0.00    +0.006 A 
ENDBRANCH  31  40
ENDBRANCH  30  34
ENDBRANCH   1  30
TORSDOF 12
ENDMDL
