REMARK  Name = CHEMBL318070
REMARK  16 active torsions:
REMARK  status: ('A' for Active; 'I' for Inactive)
REMARK    1  A    between atoms: C1_1  and  C2_2
REMARK    2  A    between atoms: C2_2  and  C3_3
REMARK    3  A    between atoms: C2_2  and  C4_4
REMARK    4  A    between atoms: C5_5  and  C19_21
REMARK    5  A    between atoms: C6_6  and  C13_14
REMARK    6  A    between atoms: C8_8  and  C9_10
REMARK    7  A    between atoms: C9_10  and  C10_11
REMARK    8  A    between atoms: C9_10  and  C11_12
REMARK    9  A    between atoms: C9_10  and  C12_13
REMARK   10  A    between atoms: C20_22  and  C21_23
REMARK   11  A    between atoms: C21_23  and  C22_24
REMARK   12  A    between atoms: C21_23  and  O4_32
REMARK   13  A    between atoms: C22_24  and  C23_25
REMARK   14  A    between atoms: C23_25  and  C24_27
REMARK   15  A    between atoms: C23_25  and  O3_31
REMARK   16  A    between atoms: C24_27  and  C25_28
REMARK                            x       y       z     vdW  Elec       q    Type
REMARK                         _______ _______ _______ _____ _____    ______ ____
ROOT
ATOM      1  C4  <0> A   1      -1.412  -0.526   0.013  0.00  0.00    +0.153 A 
ATOM      2  C5  <0> A   1      -1.858  -1.332  -1.034  0.00  0.00    -0.088 A 
ATOM      3  C6  <0> A   1      -3.184  -1.810  -1.004  0.00  0.00    +0.006 A 
ATOM      4  C7  <0> A   1      -3.988  -1.448   0.080  0.00  0.00    -0.026 A 
ATOM      5  C8  <0> A   1      -3.460  -0.645   1.070  0.00  0.00    +0.142 A 
ATOM      6  N1  <0> A   1      -2.212  -0.220   1.013  0.00  0.00    -0.469 NA
ENDROOT
BRANCH   3   7
ATOM      7  C13 <0> A   1      -3.709  -2.669  -2.090  0.00  0.00    -0.063 A 
ATOM      8  C14 <0> A   1      -3.548  -2.290  -3.422  0.00  0.00    +0.078 A 
ATOM      9  C15 <0> A   1      -4.039  -3.094  -4.430  0.00  0.00    -0.011 A 
ATOM     10  C16 <0> A   1      -4.692  -4.276  -4.120  0.00  0.00    +0.107 A 
ATOM     11  C17 <0> A   1      -4.855  -4.657  -2.798  0.00  0.00    -0.017 A 
ATOM     12  C18 <0> A   1      -4.362  -3.863  -1.783  0.00  0.00    +0.056 A 
ATOM     13  F1  <0> A   1      -5.173  -5.059  -5.110  0.00  0.00    -0.137 F 
ENDBRANCH   3   7
BRANCH   5  14
ATOM     14  C9  <0> A   1      -4.323  -0.252   2.242  0.00  0.00    -0.018 C 
ATOM     15  C10 <0> A   1      -4.475  -1.446   3.186  0.00  0.00    +0.039 C 
ATOM     16  C11 <0> A   1      -3.667   0.910   2.991  0.00  0.00    +0.045 C 
ATOM     17  C12 <0> A   1      -5.702   0.179   1.738  0.00  0.00    +0.037 C 
ENDBRANCH   5  14
BRANCH   1  19
ATOM     18  C1  <0> A   1      -0.019   1.526   0.010  0.00  0.00    +0.035 C 
ATOM     19  C2  <0> A   1       0.002  -0.004   0.002  0.00  0.00    +0.043 C 
ATOM     20  C3  <0> A   1       0.742  -0.511   1.242  0.00  0.00    +0.036 C 
ENDBRANCH   1  19
BRANCH   2  21
ATOM     21  C19 <0> A   1      -0.959  -1.678  -2.152  0.00  0.00    +0.003 C 
ATOM     22  C20 <0> A   1      -0.828  -2.943  -2.530  0.00  0.00    -0.038 C 
BRANCH  22  23
ATOM     23  C21 <0> A   1       0.090  -3.297  -3.672  0.00  0.00    +0.250 C 
BRANCH  23  24
ATOM     24  O4  <0> A   1       0.788  -2.127  -4.103  0.00  0.00    -0.537 OA
ATOM     25  H31 <0> A   1       1.332  -1.718  -3.415  0.00  0.00    +0.366 HD
ENDBRANCH  23  24
BRANCH  23  26
ATOM     26  C22 <0> A   1       1.099  -4.351  -3.208  0.00  0.00    -0.042 C 
BRANCH  26  27
ATOM     27  C23 <0> A   1       1.949  -4.801  -4.398  0.00  0.00    +0.231 C 
BRANCH  27  28
ATOM     28  O3  <0> A   1       2.736  -3.703  -4.863  0.00  0.00    -0.528 OA
ATOM     29  H30 <0> A   1       3.341  -3.344  -4.200  0.00  0.00    +0.350 HD
ENDBRANCH  27  28
BRANCH  27  30
ATOM     30  C24 <0> A   1       2.871  -5.941  -3.963  0.00  0.00    -0.102 C 
BRANCH  30  31
ATOM     31  C25 <0> A   1       3.620  -6.467  -5.160  0.00  0.00    +0.491 C 
ATOM     32  O1  <0> A   1       3.433  -5.975  -6.260  0.00  0.00    -0.681 OA
ATOM     33  O2  <0> A   1       4.412  -7.384  -5.029  0.00  0.00    -0.713 OA
ENDBRANCH  30  31
ENDBRANCH  27  30
ENDBRANCH  26  27
ENDBRANCH  23  26
ENDBRANCH  22  23
ENDBRANCH   2  21
TORSDOF 11
