REMARK VINA RESULT:      -7.0     13.177     16.685
REMARK  Name = CHEMBL331610
REMARK  16 active torsions:
REMARK  status: ('A' for Active; 'I' for Inactive)
REMARK    1  A    between atoms: C1_1  and  C2_2
REMARK    2  A    between atoms: C2_2  and  C3_3
REMARK    3  A    between atoms: C3_3  and  C4_4
REMARK    4  A    between atoms: C3_3  and  C5_5
REMARK    5  A    between atoms: C3_3  and  C6_6
REMARK    6  A    between atoms: C6_6  and  O2_8
REMARK    7  A    between atoms: O2_8  and  C7_9
REMARK    8  A    between atoms: C8_11  and  C26_37
REMARK    9  A    between atoms: C9_13  and  C25_36
REMARK   10  A    between atoms: C13_18  and  C18_25
REMARK   11  A    between atoms: C14_20  and  C17_24
REMARK   12  A    between atoms: C18_25  and  C19_26
REMARK   13  A    between atoms: C19_26  and  C20_27
REMARK   14  A    between atoms: C22_29  and  O5_35
REMARK   15  A    between atoms: C26_37  and  C27_39
REMARK   16  A    between atoms: C26_37  and  O6_45
REMARK                            x       y       z     vdW  Elec       q    Type
REMARK                         _______ _______ _______ _____ _____    ______ ____
ROOT
ATOM      1  C7  <0> A   1     -24.935  -2.245  51.929  0.00  0.00    +0.201 C 
ATOM      2  C8  <0> A   1     -26.024  -1.286  51.453  0.00  0.00    -0.048 C 
ATOM      3  C9  <0> A   1     -27.127  -1.239  52.518  0.00  0.00    +0.033 C 
ATOM      4  C10 <0> A   1     -26.514  -0.705  53.788  0.00  0.00    -0.039 C 
ATOM      5  C11 <0> A   1     -25.256  -0.962  54.091  0.00  0.00    -0.069 C 
ATOM      6  C12 <0> A   1     -24.359  -1.829  53.261  0.00  0.00    +0.044 C 
ATOM      7  C13 <0> A   1     -23.014  -1.114  53.111  0.00  0.00    +0.011 C 
ATOM      8  C14 <0> A   1     -22.391  -0.950  54.498  0.00  0.00    +0.022 C 
ATOM      9  C15 <0> A   1     -23.362  -0.368  55.478  0.00  0.00    -0.017 C 
ATOM     10  C16 <0> A   1     -24.669  -0.371  55.316  0.00  0.00    -0.011 C 
ATOM     11  C17 <0> A   1     -21.176  -0.025  54.392  0.00  0.00    +0.029 C 
ATOM     12  C25 <0> A   1     -27.677  -2.647  52.759  0.00  0.00    +0.041 C 
ENDROOT
BRANCH   1  13
ATOM     13  O2  <0> A   1     -25.492  -3.555  52.054  0.00  0.00    -0.333 OA
BRANCH  13  14
ATOM     14  C6  <0> A   1     -24.994  -4.508  51.250  0.00  0.00    +0.464 C 
ATOM     15  O1  <0> A   1     -23.967  -4.312  50.645  0.00  0.00    -0.502 OA
BRANCH  14  16
ATOM     16  C3  <0> A   1     -25.716  -5.823  51.103  0.00  0.00    -0.052 C 
ATOM     17  C4  <0> A   1     -26.801  -5.692  50.033  0.00  0.00    +0.060 C 
ATOM     18  C5  <0> A   1     -26.360  -6.203  52.439  0.00  0.00    +0.060 C 
BRANCH  16  20
ATOM     19  C1  <0> A   1     -24.170  -7.599  51.938  0.00  0.00    +0.024 C 
ATOM     20  C2  <0> A   1     -24.720  -6.908  50.689  0.00  0.00    +0.036 C 
ENDBRANCH  16  20
ENDBRANCH  14  16
ENDBRANCH  13  14
ENDBRANCH   1  13
BRANCH   7  21
ATOM     21  C18 <0> A   1     -23.232   0.262  52.477  0.00  0.00    +0.034 C 
BRANCH  21  22
ATOM     22  C19 <0> A   1     -22.047   0.599  51.571  0.00  0.00    +0.053 C 
BRANCH  22  23
ATOM     23  C20 <0> A   1     -22.101   2.080  51.189  0.00  0.00    +0.178 C 
ATOM     24  C21 <0> A   1     -20.687   2.582  50.886  0.00  0.00    +0.033 C 
ATOM     25  C22 <0> A   1     -20.741   4.075  50.545  0.00  0.00    +0.181 C 
ATOM     26  C23 <0> A   1     -21.330   4.836  51.739  0.00  0.00    +0.007 C 
ATOM     27  C24 <0> A   1     -22.635   4.175  52.126  0.00  0.00    +0.498 C 
ATOM     28  O3  <0> A   1     -23.636   4.829  52.295  0.00  0.00    -0.454 OA
ATOM     29  O4  <0> A   1     -22.647   2.834  52.277  0.00  0.00    -0.341 OA
BRANCH  25  30
ATOM     30  O5  <0> A   1     -21.565   4.274  49.394  0.00  0.00    -0.563 OA
ATOM     31  H35 <0> A   1     -22.447   3.887  49.469  0.00  0.00    +0.385 HD
ENDBRANCH  25  30
ENDBRANCH  22  23
ENDBRANCH  21  22
ENDBRANCH   7  21
BRANCH   2  32
ATOM     32  C26 <0> A   1     -25.432   0.112  51.261  0.00  0.00    +0.279 C 
BRANCH  32  33
ATOM     33  C27 <0> A   1     -26.530   1.140  51.350  0.00  0.00    -0.067 A 
ATOM     34  C28 <0> A   1     -26.333   2.301  52.074  0.00  0.00    -0.003 A 
ATOM     35  C29 <0> A   1     -27.340   3.244  52.156  0.00  0.00    +0.005 A 
ATOM     36  C30 <0> A   1     -28.544   3.026  51.513  0.00  0.00    -0.009 A 
ATOM     37  C31 <0> A   1     -28.741   1.866  50.788  0.00  0.00    -0.014 A 
ATOM     38  C32 <0> A   1     -27.732   0.925  50.703  0.00  0.00    +0.014 A 
ENDBRANCH  32  33
BRANCH  32  39
ATOM     39  O6  <0> A   1     -24.807   0.192  49.978  0.00  0.00    -0.535 OA
ATOM     40  H44 <0> A   1     -25.101  -0.485  49.354  0.00  0.00    +0.364 HD
ENDBRANCH  32  39
ENDBRANCH   2  32
TORSDOF 11
