REMARK VINA RESULT:      -7.6      3.068      6.480
REMARK  Name = CHEMBL47537
REMARK  6 active torsions:
REMARK  status: ('A' for Active; 'I' for Inactive)
REMARK    1  A    between atoms: C4_4  and  O1_7
REMARK    2  A    between atoms: O1_7  and  C7_8
REMARK    3  A    between atoms: C12_13  and  C13_14
REMARK    4  A    between atoms: C13_14  and  C14_15
REMARK    5  A    between atoms: C14_15  and  C15_16
REMARK    6  A    between atoms: C17_18  and  O4_24
REMARK                            x       y       z     vdW  Elec       q    Type
REMARK                         _______ _______ _______ _____ _____    ______ ____
ROOT
ATOM      1  C7  <0> A   1      -4.162   5.167  48.996  0.00  0.00    +0.153 A 
ATOM      2  C8  <0> A   1      -4.441   5.222  50.354  0.00  0.00    -0.035 A 
ATOM      3  C9  <0> A   1      -4.002   6.297  51.105  0.00  0.00    +0.010 A 
ATOM      4  C10 <0> A   1      -3.286   7.316  50.503  0.00  0.00    +0.017 A 
ATOM      5  C11 <0> A   1      -3.007   7.263  49.150  0.00  0.00    +0.010 A 
ATOM      6  C12 <0> A   1      -3.439   6.186  48.396  0.00  0.00    -0.095 A 
ATOM      7 Cl1  <0> A   1      -2.109   8.543  48.397  0.00  0.00    -0.040 Cl
ATOM      8 Cl2  <0> A   1      -4.350   6.367  52.805  0.00  0.00    -0.048 Cl
ENDROOT
BRANCH   1   9
ATOM      9  O1  <0> A   1      -4.592   4.111  48.256  0.00  0.00    -0.239 OA
BRANCH   9  13
ATOM     10  C1  <0> A   1      -8.612   3.886  47.353  0.00  0.00    +0.014 A 
ATOM     11  C2  <0> A   1      -7.761   4.611  46.539  0.00  0.00    +0.029 A 
ATOM     12  C3  <0> A   1      -6.415   4.688  46.840  0.00  0.00    -0.007 A 
ATOM     13  C4  <0> A   1      -5.917   4.038  47.959  0.00  0.00    +0.077 A 
ATOM     14  C5  <0> A   1      -6.772   3.310  48.774  0.00  0.00    +0.017 A 
ATOM     15  C6  <0> A   1      -8.118   3.236  48.469  0.00  0.00    +0.031 A 
ENDBRANCH   9  13
ENDBRANCH   1   9
BRANCH   6  16
ATOM     16  C13 <0> A   1      -3.130   6.126  46.922  0.00  0.00    +0.098 C 
BRANCH  16  17
ATOM     17  C14 <0> A   1      -1.850   5.318  46.703  0.00  0.00    +0.062 C 
BRANCH  17  18
ATOM     18  C15 <0> A   1      -2.184   4.026  45.953  0.00  0.00    +0.199 C 
ATOM     19  C16 <0> A   1      -1.005   3.635  45.058  0.00  0.00    +0.041 C 
ATOM     20  C17 <0> A   1      -1.360   2.364  44.279  0.00  0.00    +0.184 C 
ATOM     21  C18 <0> A   1      -2.606   2.636  43.427  0.00  0.00    +0.021 C 
ATOM     22  C19 <0> A   1      -3.680   3.209  44.326  0.00  0.00    +0.496 C 
ATOM     23  O2  <0> A   1      -4.803   2.765  44.314  0.00  0.00    -0.453 OA
ATOM     24  O3  <0> A   1      -3.346   4.232  45.142  0.00  0.00    -0.365 OA
BRANCH  20  25
ATOM     25  O4  <0> A   1      -1.625   1.300  45.194  0.00  0.00    -0.563 OA
ATOM     26  H18 <0> A   1      -0.833   0.829  45.491  0.00  0.00    +0.386 HD
ENDBRANCH  20  25
ENDBRANCH  17  18
ENDBRANCH  16  17
ENDBRANCH   6  16
TORSDOF 6
