REMARK VINA RESULT:      -7.5      6.160      9.959
REMARK  Name = CHEMBL398523
REMARK  15 active torsions:
REMARK  status: ('A' for Active; 'I' for Inactive)
REMARK    1  A    between atoms: C1_1  and  C2_2
REMARK    2  A    between atoms: C2_2  and  C3_3
REMARK    3  A    between atoms: C2_2  and  C4_4
REMARK    4  A    between atoms: C5_5  and  C25_30
REMARK    5  A    between atoms: N1_6  and  C19_23
REMARK    6  A    between atoms: C6_8  and  C7_9
REMARK    7  A    between atoms: C12_16  and  C13_17
REMARK    8  A    between atoms: C25_30  and  C26_31
REMARK    9  A    between atoms: C26_31  and  C27_32
REMARK   10  A    between atoms: C27_32  and  C28_34
REMARK   11  A    between atoms: C27_32  and  O5_42
REMARK   12  A    between atoms: C28_34  and  C29_35
REMARK   13  A    between atoms: C29_35  and  C30_37
REMARK   14  A    between atoms: C29_35  and  O4_41
REMARK   15  A    between atoms: C30_37  and  C31_38
REMARK                            x       y       z     vdW  Elec       q    Type
REMARK                         _______ _______ _______ _____ _____    ______ ____
ROOT
ATOM      1  C4  <0> A   1     -26.815  -4.135  51.609  0.00  0.00    -0.123 C 
ATOM      2  C5  <0> A   1     -26.517  -2.816  51.661  0.00  0.00    +0.031 C 
ATOM      3  N1  <0> A   1     -27.675  -2.137  51.444  0.00  0.00    -0.236 N 
ATOM      4  N2  <0> A   1     -28.644  -2.961  51.267  0.00  0.00    -0.263 NA
ATOM      5  C6  <0> A   1     -28.204  -4.202  51.346  0.00  0.00    +0.002 C 
ENDROOT
BRANCH   5   6
ATOM      6  C7  <0> A   1     -29.009  -5.430  51.192  0.00  0.00    +0.594 C 
ATOM      7  O1  <0> A   1     -28.972  -6.055  50.150  0.00  0.00    -0.481 OA
ATOM      8  N3  <0> A   1     -29.784  -5.859  52.208  0.00  0.00    -0.597 N 
ATOM      9  C8  <0> A   1     -29.947  -5.045  53.420  0.00  0.00    +0.274 C 
ATOM     10  C9  <0> A   1     -29.598  -5.904  54.641  0.00  0.00    +0.009 C 
ATOM     11  C10 <0> A   1     -30.446  -7.179  54.620  0.00  0.00    +0.009 C 
ATOM     12  C11 <0> A   1     -30.131  -7.983  53.358  0.00  0.00    +0.021 C 
ATOM     13  C12 <0> A   1     -30.489  -7.146  52.121  0.00  0.00    +0.268 C 
BRANCH  13  14
ATOM     14  C13 <0> A   1     -30.059  -7.873  50.874  0.00  0.00    -0.055 A 
ATOM     15  C14 <0> A   1     -30.884  -7.893  49.765  0.00  0.00    +0.040 A 
ATOM     16  C15 <0> A   1     -30.488  -8.560  48.621  0.00  0.00    -0.005 A 
ATOM     17  C16 <0> A   1     -29.267  -9.206  48.584  0.00  0.00    -0.006 A 
ATOM     18  C17 <0> A   1     -28.441  -9.186  49.694  0.00  0.00    -0.006 A 
ATOM     19  C18 <0> A   1     -28.835  -8.516  50.836  0.00  0.00    -0.003 A 
ENDBRANCH  13  14
ENDBRANCH   5   6
BRANCH   3  20
ATOM     20  C19 <0> A   1     -27.794  -0.741  51.419  0.00  0.00    +0.117 A 
ATOM     21  C20 <0> A   1     -27.408  -0.031  50.290  0.00  0.00    +0.068 A 
ATOM     22  C21 <0> A   1     -27.526   1.345  50.267  0.00  0.00    +0.020 A 
ATOM     23  C22 <0> A   1     -28.029   2.016  51.368  0.00  0.00    +0.112 A 
ATOM     24  C23 <0> A   1     -28.413   1.310  52.496  0.00  0.00    +0.008 A 
ATOM     25  C24 <0> A   1     -28.302  -0.066  52.520  0.00  0.00    +0.070 A 
ATOM     26  F1  <0> A   1     -28.143   3.363  51.343  0.00  0.00    -0.131 F 
ENDBRANCH   3  20
BRANCH   1  28
ATOM     27  C1  <0> A   1     -26.517  -6.357  52.672  0.00  0.00    +0.028 C 
ATOM     28  C2  <0> A   1     -25.864  -5.291  51.789  0.00  0.00    +0.060 C 
ATOM     29  C3  <0> A   1     -25.531  -5.894  50.423  0.00  0.00    +0.025 C 
ENDBRANCH   1  28
BRANCH   2  30
ATOM     30  C25 <0> A   1     -25.159  -2.213  51.911  0.00  0.00    +0.127 C 
BRANCH  30  31
ATOM     31  C26 <0> A   1     -24.355  -2.212  50.609  0.00  0.00    -0.008 C 
BRANCH  31  32
ATOM     32  C27 <0> A   1     -22.900  -1.843  50.909  0.00  0.00    +0.214 C 
BRANCH  32  33
ATOM     33  O5  <0> A   1     -22.718  -0.437  50.730  0.00  0.00    -0.540 OA
ATOM     34  H37 <0> A   1     -23.516   0.031  50.447  0.00  0.00    +0.363 HD
ENDBRANCH  32  33
BRANCH  32  35
ATOM     35  C28 <0> A   1     -22.566  -2.220  52.354  0.00  0.00    -0.052 C 
BRANCH  35  36
ATOM     36  C29 <0> A   1     -21.695  -3.477  52.365  0.00  0.00    +0.231 C 
BRANCH  36  37
ATOM     37  O4  <0> A   1     -20.756  -3.415  51.289  0.00  0.00    -0.528 OA
ATOM     38  H36 <0> A   1     -21.159  -3.271  50.423  0.00  0.00    +0.349 HD
ENDBRANCH  36  37
BRANCH  36  39
ATOM     39  C30 <0> A   1     -20.943  -3.565  53.694  0.00  0.00    -0.103 C 
BRANCH  39  40
ATOM     40  C31 <0> A   1     -19.469  -3.737  53.427  0.00  0.00    +0.491 C 
ATOM     41  O2  <0> A   1     -18.720  -2.779  53.510  0.00  0.00    -0.681 OA
ATOM     42  O3  <0> A   1     -19.028  -4.833  53.130  0.00  0.00    -0.713 OA
ENDBRANCH  39  40
ENDBRANCH  36  39
ENDBRANCH  35  36
ENDBRANCH  32  35
ENDBRANCH  31  32
ENDBRANCH  30  31
ENDBRANCH   2  30
TORSDOF 13
