REMARK VINA RESULT:      -7.7     16.289     19.431
REMARK  Name = CHEMBL329307
REMARK  14 active torsions:
REMARK  status: ('A' for Active; 'I' for Inactive)
REMARK    1  A    between atoms: C1_1  and  C2_2
REMARK    2  A    between atoms: C2_2  and  C3_3
REMARK    3  A    between atoms: C2_2  and  C4_4
REMARK    4  A    between atoms: C6_6  and  C22_29
REMARK    5  A    between atoms: C8_8  and  C16_22
REMARK    6  A    between atoms: C9_9  and  O1_10
REMARK    7  A    between atoms: O1_10  and  C10_11
REMARK    8  A    between atoms: C10_11  and  C11_12
REMARK    9  A    between atoms: C11_12  and  C12_13
REMARK   10  A    between atoms: C11_12  and  O5_21
REMARK   11  A    between atoms: C12_13  and  C13_14
REMARK   12  A    between atoms: C13_14  and  C14_16
REMARK   13  A    between atoms: C13_14  and  O4_20
REMARK   14  A    between atoms: C14_16  and  C15_17
REMARK                            x       y       z     vdW  Elec       q    Type
REMARK                         _______ _______ _______ _____ _____    ______ ____
ROOT
ATOM      1  C4  <0> A   1     -26.444  -1.165  52.805  0.00  0.00    -0.085 A 
ATOM      2  C5  <0> A   1     -27.323  -0.102  52.846  0.00  0.00    +0.040 A 
ATOM      3  C6  <0> A   1     -28.560  -0.192  52.208  0.00  0.00    -0.052 A 
ATOM      4  C7  <0> A   1     -28.911  -1.355  51.529  0.00  0.00    +0.043 A 
ATOM      5  C8  <0> A   1     -28.025  -2.426  51.490  0.00  0.00    -0.059 A 
ATOM      6  C9  <0> A   1     -26.783  -2.326  52.127  0.00  0.00    +0.119 A 
ENDROOT
BRANCH   5   7
ATOM      7  C16 <0> A   1     -28.392  -3.669  50.769  0.00  0.00    -0.061 A 
ATOM      8  C17 <0> A   1     -28.939  -4.746  51.466  0.00  0.00    +0.083 A 
ATOM      9  C18 <0> A   1     -29.280  -5.900  50.791  0.00  0.00    -0.013 A 
ATOM     10  C19 <0> A   1     -29.078  -5.990  49.423  0.00  0.00    +0.104 A 
ATOM     11  C20 <0> A   1     -28.534  -4.924  48.728  0.00  0.00    -0.020 A 
ATOM     12  C21 <0> A   1     -28.197  -3.763  49.393  0.00  0.00    +0.052 A 
ATOM     13  F1  <0> A   1     -29.412  -7.123  48.767  0.00  0.00    -0.138 F 
ENDBRANCH   5   7
BRANCH   3  14
ATOM     14  C22 <0> A   1     -29.502   0.953  52.254  0.00  0.00    -0.047 A 
ATOM     15  C23 <0> A   1     -30.859   0.752  52.009  0.00  0.00    +0.053 A 
ATOM     16  C24 <0> A   1     -31.732   1.821  52.054  0.00  0.00    -0.011 A 
ATOM     17  C25 <0> A   1     -31.262   3.090  52.343  0.00  0.00    +0.096 A 
ATOM     18  C26 <0> A   1     -29.913   3.295  52.587  0.00  0.00    -0.011 A 
ATOM     19  C27 <0> A   1     -29.034   2.232  52.550  0.00  0.00    +0.053 A 
ATOM     20  F2  <0> A   1     -32.120   4.134  52.385  0.00  0.00    -0.140 F 
ENDBRANCH   3  14
BRANCH   1  22
ATOM     21  C1  <0> A   1     -24.203  -0.108  52.715  0.00  0.00    +0.030 C 
ATOM     22  C2  <0> A   1     -25.108  -1.062  53.496  0.00  0.00    +0.033 C 
ATOM     23  C3  <0> A   1     -25.309  -0.528  54.916  0.00  0.00    +0.025 C 
ENDBRANCH   1  22
BRANCH   6  24
ATOM     24  O1  <0> A   1     -25.913  -3.367  52.086  0.00  0.00    -0.316 OA
BRANCH  24  25
ATOM     25  C10 <0> A   1     -24.919  -3.343  51.060  0.00  0.00    +0.151 C 
BRANCH  25  26
ATOM     26  C11 <0> A   1     -24.391  -4.760  50.826  0.00  0.00    +0.225 C 
BRANCH  26  27
ATOM     27  O5  <0> A   1     -23.341  -5.036  51.757  0.00  0.00    -0.531 OA
ATOM     28  H19 <0> A   1     -23.554  -4.802  52.670  0.00  0.00    +0.363 HD
ENDBRANCH  26  27
BRANCH  26  29
ATOM     29  C12 <0> A   1     -25.526  -5.766  51.024  0.00  0.00    -0.043 C 
BRANCH  29  30
ATOM     30  C13 <0> A   1     -25.313  -6.964  50.096  0.00  0.00    +0.235 C 
BRANCH  30  31
ATOM     31  O4  <0> A   1     -24.083  -6.803  49.387  0.00  0.00    -0.526 OA
ATOM     32  H18 <0> A   1     -23.306  -6.732  49.957  0.00  0.00    +0.350 HD
ENDBRANCH  30  31
BRANCH  30  33
ATOM     33  C14 <0> A   1     -25.259  -8.248  50.927  0.00  0.00    -0.101 C 
BRANCH  33  34
ATOM     34  C15 <0> A   1     -23.825  -8.573  51.257  0.00  0.00    +0.491 C 
ATOM     35  O2  <0> A   1     -23.208  -9.370  50.571  0.00  0.00    -0.680 OA
ATOM     36  O3  <0> A   1     -23.283  -8.041  52.210  0.00  0.00    -0.713 OA
ENDBRANCH  33  34
ENDBRANCH  30  33
ENDBRANCH  29  30
ENDBRANCH  26  29
ENDBRANCH  25  26
ENDBRANCH  24  25
ENDBRANCH   6  24
TORSDOF 12
