REMARK  Name = CHEMBL102168
REMARK  15 active torsions:
REMARK  status: ('A' for Active; 'I' for Inactive)
REMARK    1  A    between atoms: C1_1  and  C2_2
REMARK    2  A    between atoms: C2_2  and  C3_3
REMARK    3  A    between atoms: C2_2  and  C4_4
REMARK    4  A    between atoms: C6_6  and  S1_29
REMARK    5  A    between atoms: C8_8  and  C16_22
REMARK    6  A    between atoms: C9_9  and  O1_10
REMARK    7  A    between atoms: O1_10  and  C10_11
REMARK    8  A    between atoms: C10_11  and  C11_12
REMARK    9  A    between atoms: C11_12  and  C12_13
REMARK   10  A    between atoms: C11_12  and  O5_21
REMARK   11  A    between atoms: C12_13  and  C13_14
REMARK   12  A    between atoms: C13_14  and  C14_16
REMARK   13  A    between atoms: C13_14  and  O4_20
REMARK   14  A    between atoms: C14_16  and  C15_17
REMARK   15  A    between atoms: S1_29  and  C22_30
REMARK                            x       y       z     vdW  Elec       q    Type
REMARK                         _______ _______ _______ _____ _____    ______ ____
ROOT
ATOM      1  C4  <0> A   1      -1.389  -0.511   0.042  0.00  0.00    -0.097 A 
ATOM      2  C5  <0> A   1      -2.245  -0.195   1.080  0.00  0.00    +0.091 A 
ATOM      3  C6  <0> A   1      -3.550  -0.673   1.081  0.00  0.00    -0.151 A 
ATOM      4  C7  <0> A   1      -3.999  -1.471   0.038  0.00  0.00    +0.095 A 
ATOM      5  C8  <0> A   1      -3.139  -1.791  -1.009  0.00  0.00    -0.070 A 
ATOM      6  C9  <0> A   1      -1.829  -1.302  -1.006  0.00  0.00    +0.147 A 
ENDROOT
BRANCH   5   7
ATOM      7  C16 <0> A   1      -3.613  -2.643  -2.127  0.00  0.00    -0.063 A 
ATOM      8  C17 <0> A   1      -3.412  -2.242  -3.446  0.00  0.00    +0.083 A 
ATOM      9  C18 <0> A   1      -3.854  -3.038  -4.482  0.00  0.00    -0.012 A 
ATOM     10  C19 <0> A   1      -4.498  -4.235  -4.213  0.00  0.00    +0.107 A 
ATOM     11  C20 <0> A   1      -4.701  -4.638  -2.903  0.00  0.00    -0.018 A 
ATOM     12  C21 <0> A   1      -4.257  -3.850  -1.860  0.00  0.00    +0.055 A 
ATOM     13  F1  <0> A   1      -4.930  -5.011  -5.231  0.00  0.00    -0.137 F 
ENDBRANCH   5   7
BRANCH   1  15
ATOM     14  C1  <0> A   1       0.003   1.540   0.065  0.00  0.00    +0.031 C 
ATOM     15  C2  <0> A   1       0.025   0.011   0.048  0.00  0.00    +0.035 C 
ATOM     16  C3  <0> A   1       0.753  -0.503   1.292  0.00  0.00    +0.028 C 
ENDBRANCH   1  15
BRANCH   6  17
ATOM     17  O1  <0> A   1      -0.987  -1.608  -2.029  0.00  0.00    -0.317 OA
BRANCH  17  18
ATOM     18  C10 <0> A   1      -0.203  -2.795  -1.891  0.00  0.00    +0.156 C 
BRANCH  18  19
ATOM     19  C11 <0> A   1       0.676  -2.972  -3.130  0.00  0.00    +0.226 C 
BRANCH  19  20
ATOM     20  O5  <0> A   1       1.621  -1.902  -3.201  0.00  0.00    -0.530 OA
ATOM     21  H19 <0> A   1       2.211  -1.847  -2.437  0.00  0.00    +0.363 HD
ENDBRANCH  19  20
BRANCH  19  22
ATOM     22  C12 <0> A   1       1.422  -4.305  -3.041  0.00  0.00    -0.042 C 
BRANCH  22  23
ATOM     23  C13 <0> A   1       2.204  -4.540  -4.334  0.00  0.00    +0.235 C 
BRANCH  23  24
ATOM     24  O4  <0> A   1       3.222  -3.545  -4.463  0.00  0.00    -0.526 OA
ATOM     25  H18 <0> A   1       3.863  -3.542  -3.738  0.00  0.00    +0.350 HD
ENDBRANCH  23  24
BRANCH  23  26
ATOM     26  C14 <0> A   1       2.849  -5.927  -4.296  0.00  0.00    -0.101 C 
BRANCH  26  27
ATOM     27  C15 <0> A   1       3.516  -6.208  -5.617  0.00  0.00    +0.491 C 
ATOM     28  O2  <0> A   1       3.479  -5.375  -6.508  0.00  0.00    -0.680 OA
ATOM     29  O3  <0> A   1       4.092  -7.267  -5.797  0.00  0.00    -0.712 OA
ENDBRANCH  26  27
ENDBRANCH  23  26
ENDBRANCH  22  23
ENDBRANCH  19  22
ENDBRANCH  18  19
ENDBRANCH  17  18
ENDBRANCH   6  17
BRANCH   3  30
ATOM     30  S1  <0> A   1      -4.635  -0.267   2.408  0.00  0.00    +0.004 S 
BRANCH  30  31
ATOM     31  C22 <0> A   1      -5.303   1.298   1.949  0.00  0.00    -0.110 A 
ATOM     32  C23 <0> A   1      -6.120   1.992   2.833  0.00  0.00    +0.067 A 
ATOM     33  C24 <0> A   1      -6.642   3.218   2.470  0.00  0.00    +0.004 A 
ATOM     34  C25 <0> A   1      -6.351   3.756   1.228  0.00  0.00    +0.093 A 
ATOM     35  C26 <0> A   1      -5.536   3.067   0.346  0.00  0.00    +0.005 A 
ATOM     36  C27 <0> A   1      -5.007   1.843   0.706  0.00  0.00    +0.040 A 
ATOM     37  F2  <0> A   1      -6.863   4.956   0.876  0.00  0.00    -0.139 F 
ENDBRANCH  30  31
ENDBRANCH   3  30
TORSDOF 13
