REMARK  Name = CHEMBL468205
REMARK  13 active torsions:
REMARK  status: ('A' for Active; 'I' for Inactive)
REMARK    1  A    between atoms: C1_1  and  C2_2
REMARK    2  A    between atoms: C2_2  and  C3_3
REMARK    3  A    between atoms: C2_2  and  C4_4
REMARK    4  A    between atoms: C5_5  and  C18_24
REMARK    5  A    between atoms: C6_6  and  C12_17
REMARK    6  A    between atoms: N4_14  and  C11_16
REMARK    7  A    between atoms: C19_25  and  C20_26
REMARK    8  A    between atoms: C20_26  and  C21_28
REMARK    9  A    between atoms: C20_26  and  O4_36
REMARK   10  A    between atoms: C21_28  and  C22_29
REMARK   11  A    between atoms: C22_29  and  C23_31
REMARK   12  A    between atoms: C22_29  and  O3_35
REMARK   13  A    between atoms: C23_31  and  C24_32
REMARK                            x       y       z     vdW  Elec       q    Type
REMARK                         _______ _______ _______ _____ _____    ______ ____
ROOT
ATOM      1  C4  <0> A   1      -1.412  -0.526   0.013  0.00  0.00    +0.240 A 
ATOM      2  C5  <0> A   1      -1.876  -1.335  -1.028  0.00  0.00    -0.186 A 
ATOM      3  C6  <0> A   1      -3.207  -1.797  -0.969  0.00  0.00    +0.263 A 
ATOM      4  N1  <0> A   1      -3.962  -1.446   0.068  0.00  0.00    -0.541 NA
ATOM      5  C7  <0> A   1      -3.476  -0.676   1.029  0.00  0.00    +0.571 A 
ATOM      6  N2  <0> A   1      -2.228  -0.229   1.008  0.00  0.00    -0.551 NA
ATOM      7  N3  <0> A   1      -4.294  -0.333   2.092  0.00  0.00    -0.600 N 
ATOM      8  C8  <0> A   1      -5.614  -0.798   2.138  0.00  0.00    +0.316 C 
ATOM      9  C9  <0> A   1      -6.233  -1.621   1.183  0.00  0.00    -0.084 C 
ATOM     10  C10 <0> A   1      -7.503  -1.845   1.589  0.00  0.00    +0.234 C 
ATOM     11  N4  <0> A   1      -7.686  -1.192   2.756  0.00  0.00    -0.374 N 
ATOM     12  N5  <0> A   1      -6.487  -0.547   3.085  0.00  0.00    -0.332 NA
ATOM     13  C11 <0> A   1      -8.922  -1.167   3.543  0.00  0.00    +0.353 C 
ATOM     14  H10 <0> A   1      -3.953   0.230   2.804  0.00  0.00    +0.428 HD
ENDROOT
BRANCH   3  15
ATOM     15  C12 <0> A   1      -3.755  -2.658  -2.043  0.00  0.00    -0.072 A 
ATOM     16  C13 <0> A   1      -3.352  -2.469  -3.365  0.00  0.00    +0.099 A 
ATOM     17  C14 <0> A   1      -3.865  -3.272  -4.361  0.00  0.00    -0.014 A 
ATOM     18  C15 <0> A   1      -4.779  -4.267  -4.051  0.00  0.00    +0.120 A 
ATOM     19  C16 <0> A   1      -5.183  -4.458  -2.739  0.00  0.00    -0.024 A 
ATOM     20  C17 <0> A   1      -4.671  -3.663  -1.734  0.00  0.00    +0.090 A 
ATOM     21  F1  <0> A   1      -5.279  -5.051  -5.030  0.00  0.00    -0.136 F 
ENDBRANCH   3  15
BRANCH   1  23
ATOM     22  C1  <0> A   1      -0.019   1.526   0.010  0.00  0.00    +0.043 C 
ATOM     23  C2  <0> A   1       0.002  -0.004   0.002  0.00  0.00    +0.050 C 
ATOM     24  C3  <0> A   1       0.742  -0.511   1.242  0.00  0.00    +0.043 C 
ENDBRANCH   1  23
BRANCH   2  25
ATOM     25  C18 <0> A   1      -0.997  -1.697  -2.158  0.00  0.00    +0.014 C 
ATOM     26  C19 <0> A   1      -0.884  -2.965  -2.531  0.00  0.00    -0.039 C 
BRANCH  26  27
ATOM     27  C20 <0> A   1       0.013  -3.334  -3.684  0.00  0.00    +0.252 C 
BRANCH  27  28
ATOM     28  O4  <0> A   1       0.715  -2.172  -4.132  0.00  0.00    -0.537 OA
ATOM     29  H27 <0> A   1       1.273  -1.765  -3.455  0.00  0.00    +0.366 HD
ENDBRANCH  27  28
BRANCH  27  30
ATOM     30  C21 <0> A   1       1.019  -4.394  -3.230  0.00  0.00    -0.041 C 
BRANCH  30  31
ATOM     31  C22 <0> A   1       1.847  -4.859  -4.429  0.00  0.00    +0.231 C 
BRANCH  31  32
ATOM     32  O3  <0> A   1       2.637  -3.771  -4.913  0.00  0.00    -0.528 OA
ATOM     33  H26 <0> A   1       3.255  -3.413  -4.261  0.00  0.00    +0.350 HD
ENDBRANCH  31  32
BRANCH  31  34
ATOM     34  C23 <0> A   1       2.765  -6.006  -4.001  0.00  0.00    -0.102 C 
BRANCH  34  35
ATOM     35  C24 <0> A   1       3.490  -6.545  -5.207  0.00  0.00    +0.490 C 
ATOM     36  O1  <0> A   1       3.292  -6.057  -6.307  0.00  0.00    -0.681 OA
ATOM     37  O2  <0> A   1       4.276  -7.469  -5.083  0.00  0.00    -0.713 OA
ENDBRANCH  34  35
ENDBRANCH  31  34
ENDBRANCH  30  31
ENDBRANCH  27  30
ENDBRANCH  26  27
ENDBRANCH   2  25
TORSDOF 10
