REMARK VINA RESULT:      -7.7      3.362      8.513
REMARK  Name = CHEMBL99838
REMARK  15 active torsions:
REMARK  status: ('A' for Active; 'I' for Inactive)
REMARK    1  A    between atoms: C1_1  and  C2_2
REMARK    2  A    between atoms: C2_2  and  C3_3
REMARK    3  A    between atoms: C2_2  and  C4_4
REMARK    4  A    between atoms: C6_6  and  C23_29
REMARK    5  A    between atoms: C8_8  and  C16_22
REMARK    6  A    between atoms: C9_9  and  O1_10
REMARK    7  A    between atoms: O1_10  and  C10_11
REMARK    8  A    between atoms: C10_11  and  C11_12
REMARK    9  A    between atoms: C11_12  and  C12_13
REMARK   10  A    between atoms: C11_12  and  O5_21
REMARK   11  A    between atoms: C12_13  and  C13_14
REMARK   12  A    between atoms: C13_14  and  C14_16
REMARK   13  A    between atoms: C13_14  and  O4_20
REMARK   14  A    between atoms: C14_16  and  C15_17
REMARK   15  A    between atoms: C16_22  and  C17_23
REMARK                            x       y       z     vdW  Elec       q    Type
REMARK                         _______ _______ _______ _____ _____    ______ ____
ROOT
ATOM      1  C4  <0> A   1     -13.888  11.044  46.805  0.00  0.00    -0.086 A 
ATOM      2  C5  <0> A   1     -13.734  11.314  45.462  0.00  0.00    +0.028 A 
ATOM      3  C6  <0> A   1     -13.737  10.272  44.537  0.00  0.00    -0.053 A 
ATOM      4  C7  <0> A   1     -13.895   8.957  44.974  0.00  0.00    +0.027 A 
ATOM      5  C8  <0> A   1     -14.049   8.692  46.318  0.00  0.00    -0.088 A 
ATOM      6  C9  <0> A   1     -14.040   9.733  47.237  0.00  0.00    +0.106 A 
ENDROOT
BRANCH   3   7
ATOM      7  C23 <0> A   1     -13.571  10.559  43.091  0.00  0.00    -0.037 A 
ATOM      8  C24 <0> A   1     -14.521  11.324  42.417  0.00  0.00    +0.011 A 
ATOM      9  C25 <0> A   1     -14.363  11.588  41.072  0.00  0.00    +0.006 A 
ATOM     10  C26 <0> A   1     -13.263  11.096  40.392  0.00  0.00    -0.002 A 
ATOM     11  C27 <0> A   1     -12.317  10.335  41.056  0.00  0.00    +0.006 A 
ATOM     12  C28 <0> A   1     -12.463  10.069  42.402  0.00  0.00    +0.012 A 
ENDBRANCH   3   7
BRANCH   1  14
ATOM     13  C1  <0> A   1     -12.656  13.052  47.577  0.00  0.00    +0.028 C 
ATOM     14  C2  <0> A   1     -13.886  12.171  47.805  0.00  0.00    +0.032 C 
ATOM     15  C3  <0> A   1     -15.153  13.010  47.631  0.00  0.00    +0.023 C 
ENDBRANCH   1  14
BRANCH   6  16
ATOM     16  O1  <0> A   1     -14.186   9.469  48.562  0.00  0.00    -0.316 OA
BRANCH  16  17
ATOM     17  C10 <0> A   1     -15.480   9.685  49.128  0.00  0.00    +0.146 C 
BRANCH  17  18
ATOM     18  C11 <0> A   1     -16.082   8.343  49.553  0.00  0.00    +0.225 C 
BRANCH  18  19
ATOM     19  O5  <0> A   1     -16.497   8.420  50.919  0.00  0.00    -0.531 OA
ATOM     20  H19 <0> A   1     -15.788   8.256  51.556  0.00  0.00    +0.362 HD
ENDBRANCH  18  19
BRANCH  18  21
ATOM     21  C12 <0> A   1     -17.289   8.022  48.671  0.00  0.00    -0.044 C 
BRANCH  21  22
ATOM     22  C13 <0> A   1     -18.252   7.113  49.436  0.00  0.00    +0.235 C 
BRANCH  22  23
ATOM     23  O4  <0> A   1     -19.435   7.843  49.766  0.00  0.00    -0.527 OA
ATOM     24  H18 <0> A   1     -19.778   8.385  49.042  0.00  0.00    +0.350 HD
ENDBRANCH  22  23
BRANCH  22  25
ATOM     25  C14 <0> A   1     -18.622   5.912  48.562  0.00  0.00    -0.101 C 
BRANCH  25  26
ATOM     26  C15 <0> A   1     -20.043   6.059  48.081  0.00  0.00    +0.491 C 
ATOM     27  O2  <0> A   1     -20.290   6.766  47.118  0.00  0.00    -0.680 OA
ATOM     28  O3  <0> A   1     -20.944   5.473  48.654  0.00  0.00    -0.713 OA
ENDBRANCH  25  26
ENDBRANCH  22  25
ENDBRANCH  21  22
ENDBRANCH  18  21
ENDBRANCH  17  18
ENDBRANCH  16  17
ENDBRANCH   6  16
BRANCH   5  29
ATOM     29  C16 <0> A   1     -14.220   7.272  46.791  0.00  0.00    +0.071 C 
BRANCH  29  30
ATOM     30  C17 <0> A   1     -14.663   6.394  45.618  0.00  0.00    +0.002 C 
ATOM     31  C18 <0> A   1     -16.189   6.289  45.608  0.00  0.00    +0.006 C 
ATOM     32  C19 <0> A   1     -16.633   5.412  44.435  0.00  0.00    -0.001 C 
ATOM     33  C20 <0> A   1     -16.027   4.015  44.586  0.00  0.00    -0.002 C 
ATOM     34  C21 <0> A   1     -14.500   4.121  44.596  0.00  0.00    +0.004 C 
ATOM     35  C22 <0> A   1     -14.058   4.997  45.768  0.00  0.00    +0.009 C 
ENDBRANCH  29  30
ENDBRANCH   5  29
TORSDOF 13
