REMARK  Name = CHEMBL250382
REMARK  18 active torsions:
REMARK  status: ('A' for Active; 'I' for Inactive)
REMARK    1  A    between atoms: C1_1  and  C2_2
REMARK    2  A    between atoms: C2_2  and  C3_3
REMARK    3  A    between atoms: C3_3  and  C4_4
REMARK    4  A    between atoms: C4_4  and  N1_5
REMARK    5  A    between atoms: C5_6  and  C6_8
REMARK    6  A    between atoms: C7_9  and  C21_33
REMARK    7  A    between atoms: C8_10  and  O2_20
REMARK    8  A    between atoms: N2_11  and  C9_13
REMARK    9  A    between atoms: O2_20  and  C15_21
REMARK   10  A    between atoms: C15_21  and  C16_22
REMARK   11  A    between atoms: C16_22  and  C17_24
REMARK   12  A    between atoms: C16_22  and  O6_32
REMARK   13  A    between atoms: C17_24  and  C18_25
REMARK   14  A    between atoms: C18_25  and  C19_27
REMARK   15  A    between atoms: C18_25  and  O5_31
REMARK   16  A    between atoms: C19_27  and  C20_28
REMARK   17  A    between atoms: C21_33  and  C22_34
REMARK   18  A    between atoms: C21_33  and  C23_35
REMARK                            x       y       z     vdW  Elec       q    Type
REMARK                         _______ _______ _______ _____ _____    ______ ____
ROOT
ATOM      1  C6  <0> A   1      -4.408  -4.470   0.097  0.00  0.00    +0.043 C 
ATOM      2  C7  <0> A   1      -4.965  -5.762  -0.006  0.00  0.00    -0.159 C 
ATOM      3  C8  <0> A   1      -6.314  -5.630  -0.037  0.00  0.00    +0.259 C 
ATOM      4  N2  <0> A   1      -6.605  -4.303   0.042  0.00  0.00    -0.319 N 
ATOM      5  N3  <0> A   1      -5.398  -3.598   0.131  0.00  0.00    -0.238 NA
ENDROOT
BRANCH   4   6
ATOM      6  C9  <0> A   1      -7.889  -3.740   0.041  0.00  0.00    +0.127 A 
ATOM      7  C10 <0> A   1      -8.182  -2.675   0.882  0.00  0.00    +0.066 A 
ATOM      8  C11 <0> A   1      -9.447  -2.122   0.879  0.00  0.00    +0.008 A 
ATOM      9  C12 <0> A   1     -10.423  -2.628   0.036  0.00  0.00    +0.107 A 
ATOM     10  C13 <0> A   1     -10.133  -3.690  -0.804  0.00  0.00    +0.018 A 
ATOM     11  C14 <0> A   1      -8.867  -4.243  -0.807  0.00  0.00    +0.066 A 
ATOM     12  F1  <0> A   1     -11.660  -2.085   0.035  0.00  0.00    -0.132 F 
ENDBRANCH   4   6
BRANCH   1  14
ATOM     13  N1  <0> A   1      -2.563  -2.864   0.160  0.00  0.00    -0.718 N 
ATOM     14  C5  <0> A   1      -2.968  -4.149   0.162  0.00  0.00    +0.604 C 
ATOM     15  O1  <0> A   1      -2.147  -5.045   0.217  0.00  0.00    -0.515 OA
ATOM     16  H12 <0> A   1      -3.217  -2.149   0.116  0.00  0.00    +0.407 HD
BRANCH  13  17
ATOM     17  C4  <0> A   1      -1.134  -2.545   0.224  0.00  0.00    +0.261 C 
BRANCH  17  18
ATOM     18  C3  <0> A   1      -0.949  -1.027   0.207  0.00  0.00    +0.007 C 
BRANCH  18  20
ATOM     19  C1  <0> A   1       0.729   0.824   0.258  0.00  0.00    +0.012 C 
ATOM     20  C2  <0> A   1       0.543  -0.695   0.274  0.00  0.00    +0.010 C 
ENDBRANCH  18  20
ENDBRANCH  17  18
ENDBRANCH  13  17
ENDBRANCH   1  14
BRANCH   2  21
ATOM     21  C21 <0> A   1      -4.198  -7.057  -0.070  0.00  0.00    +0.078 C 
ATOM     22  C22 <0> A   1      -4.671  -7.987   1.050  0.00  0.00    +0.021 C 
ATOM     23  C23 <0> A   1      -4.439  -7.726  -1.425  0.00  0.00    +0.029 C 
ENDBRANCH   2  21
BRANCH   3  24
ATOM     24  O2  <0> A   1      -7.214  -6.642  -0.133  0.00  0.00    -0.283 OA
BRANCH  24  25
ATOM     25  C15 <0> A   1      -7.809  -7.098   1.084  0.00  0.00    +0.154 C 
BRANCH  25  26
ATOM     26  C16 <0> A   1      -8.702  -8.306   0.795  0.00  0.00    +0.230 C 
BRANCH  26  27
ATOM     27  O6  <0> A   1      -7.896  -9.395   0.338  0.00  0.00    -0.527 OA
ATOM     28  H24 <0> A   1      -7.225  -9.681   0.972  0.00  0.00    +0.365 HD
ENDBRANCH  26  27
BRANCH  26  29
ATOM     29  C17 <0> A   1      -9.435  -8.717   2.073  0.00  0.00    -0.041 C 
BRANCH  29  30
ATOM     30  C18 <0> A   1     -10.420  -9.844   1.756  0.00  0.00    +0.236 C 
BRANCH  30  31
ATOM     31  O5  <0> A   1      -9.697 -11.007   1.346  0.00  0.00    -0.526 OA
ATOM     32  H23 <0> A   1      -9.082 -11.343   2.012  0.00  0.00    +0.351 HD
ENDBRANCH  30  31
BRANCH  30  33
ATOM     33  C19 <0> A   1     -11.241 -10.170   3.005  0.00  0.00    -0.101 C 
BRANCH  33  34
ATOM     34  C20 <0> A   1     -12.293 -11.193   2.662  0.00  0.00    +0.491 C 
ATOM     35  O3  <0> A   1     -12.378 -11.622   1.524  0.00  0.00    -0.680 OA
ATOM     36  O4  <0> A   1     -13.060 -11.591   3.523  0.00  0.00    -0.712 OA
ENDBRANCH  33  34
ENDBRANCH  30  33
ENDBRANCH  29  30
ENDBRANCH  26  29
ENDBRANCH  25  26
ENDBRANCH  24  25
ENDBRANCH   3  24
TORSDOF 15
