REMARK VINA RESULT:      -8.3      0.000      0.000
REMARK  Name = CHEMBL11891
REMARK  11 active torsions:
REMARK  status: ('A' for Active; 'I' for Inactive)
REMARK    1  A    between atoms: C6_6  and  C7_7
REMARK    2  A    between atoms: C7_7  and  C17_27
REMARK    3  A    between atoms: C8_8  and  C9_9
REMARK    4  A    between atoms: C8_8  and  N1_22
REMARK    5  A    between atoms: C10_10  and  C11_11
REMARK    6  A    between atoms: C11_11  and  C12_13
REMARK    7  A    between atoms: C11_11  and  O4_21
REMARK    8  A    between atoms: C12_13  and  C13_14
REMARK    9  A    between atoms: C13_14  and  C14_16
REMARK   10  A    between atoms: C13_14  and  O3_20
REMARK   11  A    between atoms: C14_16  and  C15_17
REMARK                            x       y       z     vdW  Elec       q    Type
REMARK                         _______ _______ _______ _____ _____    ______ ____
ROOT
ATOM      1  C7  <0> A   1     -13.615   8.295  45.798  0.00  0.00    -0.013 C 
ATOM      2  C8  <0> A   1     -12.521   8.728  45.105  0.00  0.00    +0.158 C 
ENDROOT
BRANCH   1   8
ATOM      3  C1  <0> A   1     -15.103   6.946  44.325  0.00  0.00    +0.071 A 
ATOM      4  C2  <0> A   1     -15.702   5.750  43.992  0.00  0.00    -0.011 A 
ATOM      5  C3  <0> A   1     -15.471   4.618  44.758  0.00  0.00    +0.111 A 
ATOM      6  C4  <0> A   1     -14.637   4.682  45.863  0.00  0.00    -0.005 A 
ATOM      7  C5  <0> A   1     -14.032   5.873  46.206  0.00  0.00    +0.067 A 
ATOM      8  C6  <0> A   1     -14.261   7.016  45.436  0.00  0.00    -0.058 A 
ATOM      9  F2  <0> A   1     -16.062   3.449  44.427  0.00  0.00    -0.136 F 
ENDBRANCH   1   8
BRANCH   1  10
ATOM     10  C17 <0> A   1     -14.153   9.105  46.910  0.00  0.00    -0.080 A 
ATOM     11  C18 <0> A   1     -15.205   9.995  46.684  0.00  0.00    +0.060 A 
ATOM     12  C19 <0> A   1     -15.703  10.749  47.727  0.00  0.00    -0.008 A 
ATOM     13  C20 <0> A   1     -15.160  10.625  48.996  0.00  0.00    +0.112 A 
ATOM     14  C21 <0> A   1     -14.115   9.744  49.226  0.00  0.00    -0.007 A 
ATOM     15  C22 <0> A   1     -13.613   8.981  48.193  0.00  0.00    +0.072 A 
ATOM     16  F1  <0> A   1     -15.653  11.366  50.013  0.00  0.00    -0.135 F 
ENDBRANCH   1  10
BRANCH   2  17
ATOM     17  N1  <0> A   1     -11.910   9.937  45.448  0.00  0.00    -0.332 N 
ATOM     18  C16 <0> A   1     -10.787  10.110  46.181  0.00  0.00    +0.468 C 
ATOM     19  N2  <0> A   1     -10.571  11.398  46.259  0.00  0.00    -0.329 NA
ATOM     20  N3  <0> A   1     -11.479  12.049  45.627  0.00  0.00    -0.035 NA
ATOM     21  N4  <0> A   1     -12.328  11.234  45.101  0.00  0.00    -0.068 NA
ENDBRANCH   2  17
BRANCH   2  22
ATOM     22  C9  <0> A   1     -11.987   7.924  44.001  0.00  0.00    +0.005 C 
ATOM     23  C10 <0> A   1     -12.073   8.371  42.749  0.00  0.00    -0.010 C 
BRANCH  23  24
ATOM     24  C11 <0> A   1     -11.630   7.497  41.604  0.00  0.00    +0.254 C 
BRANCH  24  25
ATOM     25  O4  <0> A   1     -11.563   6.138  42.040  0.00  0.00    -0.533 OA
ATOM     26  H14 <0> A   1     -11.303   6.035  42.967  0.00  0.00    +0.365 HD
ENDBRANCH  24  25
BRANCH  24  27
ATOM     27  C12 <0> A   1     -12.631   7.615  40.454  0.00  0.00    -0.039 C 
BRANCH  27  28
ATOM     28  C13 <0> A   1     -12.534   9.012  39.835  0.00  0.00    +0.233 C 
BRANCH  28  29
ATOM     29  O3  <0> A   1     -12.255   8.896  38.439  0.00  0.00    -0.527 OA
ATOM     30  H13 <0> A   1     -12.556   8.066  38.044  0.00  0.00    +0.350 HD
ENDBRANCH  28  29
BRANCH  28  31
ATOM     31  C14 <0> A   1     -13.860   9.749  40.030  0.00  0.00    -0.101 C 
BRANCH  31  32
ATOM     32  C15 <0> A   1     -13.646  11.228  39.835  0.00  0.00    +0.491 C 
ATOM     33  O1  <0> A   1     -12.539  11.651  39.549  0.00  0.00    -0.681 OA
ATOM     34  O2  <0> A   1     -14.579  12.002  39.963  0.00  0.00    -0.712 OA
ENDBRANCH  31  32
ENDBRANCH  28  31
ENDBRANCH  27  28
ENDBRANCH  24  27
ENDBRANCH  23  24
ENDBRANCH   2  22
TORSDOF 11
