MODEL 1
REMARK VINA RESULT:      -8.6      0.000      0.000
REMARK  Name = CHEMBL340139
REMARK  9 active torsions:
REMARK  status: ('A' for Active; 'I' for Inactive)
REMARK    1  A    between atoms: C1_1  and  C2_2
REMARK    2  A    between atoms: C2_2  and  C3_3
REMARK    3  A    between atoms: C2_2  and  C4_4
REMARK    4  A    between atoms: C5_5  and  C23_26
REMARK    5  A    between atoms: C6_6  and  C17_19
REMARK    6  A    between atoms: N1_7  and  C7_9
REMARK    7  A    between atoms: C23_26  and  C24_27
REMARK    8  A    between atoms: C24_27  and  C25_28
REMARK    9  A    between atoms: C27_31  and  O3_37
REMARK                            x       y       z     vdW  Elec       q    Type
REMARK                         _______ _______ _______ _____ _____    ______ ____
ROOT
ATOM      1  C4  <0> A   1     -13.498  10.219  42.448  0.00  0.00    +0.094 C 
ATOM      2  C5  <0> A   1     -13.087   9.102  43.174  0.00  0.00    -0.200 C 
ATOM      3  C6  <0> A   1     -12.946   9.479  44.481  0.00  0.00    +0.131 C 
ATOM      4  N1  <0> A   1     -13.264  10.805  44.556  0.00  0.00    -0.319 N 
ATOM      5  N2  <0> A   1     -13.600  11.237  43.267  0.00  0.00    -0.269 NA
ENDROOT
BRANCH   4   6
ATOM      6  C7  <0> A   1     -13.253  11.591  45.712  0.00  0.00    +0.160 A 
ATOM      7  C8  <0> A   1     -12.086  12.187  46.137  0.00  0.00    +0.020 A 
ATOM      8  C9  <0> A   1     -12.064  12.971  47.287  0.00  0.00    +0.031 A 
ATOM      9  C10 <0> A   1     -13.192  13.172  48.023  0.00  0.00    +0.036 A 
ATOM     10  C11 <0> A   1     -14.404  12.583  47.623  0.00  0.00    -0.040 A 
ATOM     11  C12 <0> A   1     -14.439  11.787  46.451  0.00  0.00    -0.044 A 
ATOM     12  C13 <0> A   1     -15.651  11.203  46.051  0.00  0.00    +0.039 A 
ATOM     13  C14 <0> A   1     -16.777  11.413  46.789  0.00  0.00    +0.010 A 
ATOM     14  C15 <0> A   1     -16.745  12.200  47.937  0.00  0.00    +0.018 A 
ATOM     15  C16 <0> A   1     -15.585  12.772  48.362  0.00  0.00    +0.023 A 
ENDBRANCH   4   6
BRANCH   3  16
ATOM     16  C17 <0> A   1     -12.527   8.612  45.603  0.00  0.00    -0.047 A 
ATOM     17  C18 <0> A   1     -13.458   8.209  46.562  0.00  0.00    +0.082 A 
ATOM     18  C19 <0> A   1     -13.063   7.400  47.607  0.00  0.00    -0.006 A 
ATOM     19  C20 <0> A   1     -11.743   6.988  47.705  0.00  0.00    +0.113 A 
ATOM     20  C21 <0> A   1     -10.814   7.386  46.757  0.00  0.00    -0.011 A 
ATOM     21  C22 <0> A   1     -11.201   8.190  45.705  0.00  0.00    +0.065 A 
ATOM     22  F1  <0> A   1     -11.360   6.196  48.731  0.00  0.00    -0.136 F 
ENDBRANCH   3  16
BRANCH   1  24
ATOM     23  C1  <0> A   1     -14.686  11.437  40.645  0.00  0.00    +0.035 C 
ATOM     24  C2  <0> A   1     -13.773  10.253  40.967  0.00  0.00    +0.075 C 
ATOM     25  C3  <0> A   1     -12.454  10.405  40.206  0.00  0.00    +0.035 C 
ENDBRANCH   1  24
BRANCH   2  26
ATOM     26  C23 <0> A   1     -12.843   7.723  42.618  0.00  0.00    +0.112 C 
BRANCH  26  27
ATOM     27  C24 <0> A   1     -14.183   7.021  42.390  0.00  0.00    +0.055 C 
BRANCH  27  28
ATOM     28  C25 <0> A   1     -14.679   6.426  43.710  0.00  0.00    +0.197 C 
ATOM     29  C26 <0> A   1     -16.118   5.933  43.539  0.00  0.00    +0.040 C 
ATOM     30  C27 <0> A   1     -16.597   5.301  44.850  0.00  0.00    +0.183 C 
ATOM     31  C28 <0> A   1     -15.672   4.129  45.202  0.00  0.00    +0.020 C 
ATOM     32  C29 <0> A   1     -14.242   4.624  45.163  0.00  0.00    +0.496 C 
ATOM     33  O1  <0> A   1     -13.481   4.398  46.074  0.00  0.00    -0.453 OA
ATOM     34  O2  <0> A   1     -13.842   5.325  44.082  0.00  0.00    -0.365 OA
BRANCH  30  35
ATOM     35  O3  <0> A   1     -16.557   6.276  45.894  0.00  0.00    -0.563 OA
ATOM     36  H29 <0> A   1     -16.475   5.899  46.781  0.00  0.00    +0.386 HD
ENDBRANCH  30  35
ENDBRANCH  27  28
ENDBRANCH  26  27
ENDBRANCH   2  26
TORSDOF 7
ENDMDL
MODEL 2
REMARK VINA RESULT:      -8.4      2.584      5.798
REMARK  Name = CHEMBL340139
REMARK  9 active torsions:
REMARK  status: ('A' for Active; 'I' for Inactive)
REMARK    1  A    between atoms: C1_1  and  C2_2
REMARK    2  A    between atoms: C2_2  and  C3_3
REMARK    3  A    between atoms: C2_2  and  C4_4
REMARK    4  A    between atoms: C5_5  and  C23_26
REMARK    5  A    between atoms: C6_6  and  C17_19
REMARK    6  A    between atoms: N1_7  and  C7_9
REMARK    7  A    between atoms: C23_26  and  C24_27
REMARK    8  A    between atoms: C24_27  and  C25_28
REMARK    9  A    between atoms: C27_31  and  O3_37
REMARK                            x       y       z     vdW  Elec       q    Type
REMARK                         _______ _______ _______ _____ _____    ______ ____
ROOT
ATOM      1  C4  <0> A   1     -13.460  10.050  46.604  0.00  0.00    +0.094 C 
ATOM      2  C5  <0> A   1     -14.180   8.867  46.764  0.00  0.00    -0.200 C 
ATOM      3  C6  <0> A   1     -14.087   8.158  45.599  0.00  0.00    +0.131 C 
ATOM      4  N1  <0> A   1     -13.324   8.893  44.737  0.00  0.00    -0.319 N 
ATOM      5  N2  <0> A   1     -12.953  10.072  45.396  0.00  0.00    -0.269 NA
ENDROOT
BRANCH   4   6
ATOM      6  C7  <0> A   1     -12.978   8.535  43.431  0.00  0.00    +0.160 A 
ATOM      7  C8  <0> A   1     -12.270   7.378  43.192  0.00  0.00    +0.020 A 
ATOM      8  C9  <0> A   1     -11.919   7.013  41.895  0.00  0.00    +0.031 A 
ATOM      9  C10 <0> A   1     -12.266   7.786  40.829  0.00  0.00    +0.036 A 
ATOM     10  C11 <0> A   1     -12.990   8.973  41.030  0.00  0.00    -0.040 A 
ATOM     11  C12 <0> A   1     -13.357   9.352  42.345  0.00  0.00    -0.044 A 
ATOM     12  C13 <0> A   1     -14.084  10.536  42.544  0.00  0.00    +0.039 A 
ATOM     13  C14 <0> A   1     -14.432  11.302  41.472  0.00  0.00    +0.010 A 
ATOM     14  C15 <0> A   1     -14.078  10.926  40.178  0.00  0.00    +0.018 A 
ATOM     15  C16 <0> A   1     -13.362   9.791  39.948  0.00  0.00    +0.023 A 
ENDBRANCH   4   6
BRANCH   3  16
ATOM     16  C17 <0> A   1     -14.699   6.841  45.323  0.00  0.00    -0.047 A 
ATOM     17  C18 <0> A   1     -15.835   6.752  44.516  0.00  0.00    +0.082 A 
ATOM     18  C19 <0> A   1     -16.402   5.521  44.260  0.00  0.00    -0.006 A 
ATOM     19  C20 <0> A   1     -15.846   4.373  44.804  0.00  0.00    +0.113 A 
ATOM     20  C21 <0> A   1     -14.719   4.456  45.606  0.00  0.00    -0.011 A 
ATOM     21  C22 <0> A   1     -14.141   5.682  45.862  0.00  0.00    +0.065 A 
ATOM     22  F1  <0> A   1     -16.405   3.170  44.551  0.00  0.00    -0.136 F 
ENDBRANCH   3  16
BRANCH   1  24
ATOM     23  C1  <0> A   1     -11.931  11.795  47.479  0.00  0.00    +0.035 C 
ATOM     24  C2  <0> A   1     -13.298  11.129  47.645  0.00  0.00    +0.075 C 
ATOM     25  C3  <0> A   1     -14.400  12.176  47.471  0.00  0.00    +0.035 C 
ENDBRANCH   1  24
BRANCH   2  26
ATOM     26  C23 <0> A   1     -14.927   8.444  48.002  0.00  0.00    +0.112 C 
BRANCH  26  27
ATOM     27  C24 <0> A   1     -16.421   8.713  47.814  0.00  0.00    +0.055 C 
BRANCH  27  28
ATOM     28  C25 <0> A   1     -17.192   7.393  47.894  0.00  0.00    +0.197 C 
ATOM     29  C26 <0> A   1     -16.743   6.614  49.134  0.00  0.00    +0.040 C 
ATOM     30  C27 <0> A   1     -17.545   5.313  49.234  0.00  0.00    +0.183 C 
ATOM     31  C28 <0> A   1     -19.037   5.657  49.334  0.00  0.00    +0.020 C 
ATOM     32  C29 <0> A   1     -19.387   6.591  48.195  0.00  0.00    +0.496 C 
ATOM     33  O1  <0> A   1     -20.346   6.381  47.491  0.00  0.00    -0.453 OA
ATOM     34  O2  <0> A   1     -18.595   7.663  47.987  0.00  0.00    -0.365 OA
BRANCH  30  35
ATOM     35  O3  <0> A   1     -17.312   4.516  48.070  0.00  0.00    -0.563 OA
ATOM     36  H29 <0> A   1     -17.387   3.564  48.224  0.00  0.00    +0.386 HD
ENDBRANCH  30  35
ENDBRANCH  27  28
ENDBRANCH  26  27
ENDBRANCH   2  26
TORSDOF 7
ENDMDL
MODEL 3
REMARK VINA RESULT:      -8.1     17.040     19.071
REMARK  Name = CHEMBL340139
REMARK  9 active torsions:
REMARK  status: ('A' for Active; 'I' for Inactive)
REMARK    1  A    between atoms: C1_1  and  C2_2
REMARK    2  A    between atoms: C2_2  and  C3_3
REMARK    3  A    between atoms: C2_2  and  C4_4
REMARK    4  A    between atoms: C5_5  and  C23_26
REMARK    5  A    between atoms: C6_6  and  C17_19
REMARK    6  A    between atoms: N1_7  and  C7_9
REMARK    7  A    between atoms: C23_26  and  C24_27
REMARK    8  A    between atoms: C24_27  and  C25_28
REMARK    9  A    between atoms: C27_31  and  O3_37
REMARK                            x       y       z     vdW  Elec       q    Type
REMARK                         _______ _______ _______ _____ _____    ______ ____
ROOT
ATOM      1  C4  <0> A   1     -27.775  -3.545  50.373  0.00  0.00    +0.094 C 
ATOM      2  C5  <0> A   1     -26.873  -3.402  51.426  0.00  0.00    -0.200 C 
ATOM      3  C6  <0> A   1     -26.940  -2.108  51.863  0.00  0.00    +0.131 C 
ATOM      4  N1  <0> A   1     -27.866  -1.467  51.090  0.00  0.00    -0.319 N 
ATOM      5  N2  <0> A   1     -28.365  -2.394  50.166  0.00  0.00    -0.269 NA
ENDROOT
BRANCH   4   6
ATOM      6  C7  <0> A   1     -28.246  -0.126  51.200  0.00  0.00    +0.160 A 
ATOM      7  C8  <0> A   1     -27.407   0.873  50.758  0.00  0.00    +0.020 A 
ATOM      8  C9  <0> A   1     -27.775   2.211  50.864  0.00  0.00    +0.031 A 
ATOM      9  C10 <0> A   1     -28.972   2.570  51.404  0.00  0.00    +0.036 A 
ATOM     10  C11 <0> A   1     -29.858   1.582  51.865  0.00  0.00    -0.040 A 
ATOM     11  C12 <0> A   1     -29.496   0.216  51.758  0.00  0.00    -0.044 A 
ATOM     12  C13 <0> A   1     -30.384  -0.770  52.216  0.00  0.00    +0.039 A 
ATOM     13  C14 <0> A   1     -31.582  -0.403  52.750  0.00  0.00    +0.010 A 
ATOM     14  C15 <0> A   1     -31.942   0.939  52.850  0.00  0.00    +0.018 A 
ATOM     15  C16 <0> A   1     -31.100   1.923  52.428  0.00  0.00    +0.023 A 
ENDBRANCH   4   6
BRANCH   3  16
ATOM     16  C17 <0> A   1     -26.155  -1.513  52.965  0.00  0.00    -0.047 A 
ATOM     17  C18 <0> A   1     -26.807  -0.938  54.058  0.00  0.00    +0.082 A 
ATOM     18  C19 <0> A   1     -26.070  -0.384  55.084  0.00  0.00    -0.006 A 
ATOM     19  C20 <0> A   1     -24.685  -0.399  55.032  0.00  0.00    +0.113 A 
ATOM     20  C21 <0> A   1     -24.033  -0.968  53.950  0.00  0.00    -0.011 A 
ATOM     21  C22 <0> A   1     -24.761  -1.529  52.921  0.00  0.00    +0.065 A 
ATOM     22  F1  <0> A   1     -23.968   0.145  56.040  0.00  0.00    -0.136 F 
ENDBRANCH   3  16
BRANCH   1  24
ATOM     23  C1  <0> A   1     -28.950  -5.729  50.399  0.00  0.00    +0.035 C 
ATOM     24  C2  <0> A   1     -28.025  -4.812  49.595  0.00  0.00    +0.075 C 
ATOM     25  C3  <0> A   1     -28.684  -4.469  48.258  0.00  0.00    +0.035 C 
ENDBRANCH   1  24
BRANCH   2  26
ATOM     26  C23 <0> A   1     -25.983  -4.482  51.985  0.00  0.00    +0.112 C 
BRANCH  26  27
ATOM     27  C24 <0> A   1     -24.667  -4.512  51.206  0.00  0.00    +0.055 C 
BRANCH  27  28
ATOM     28  C25 <0> A   1     -24.256  -5.965  50.956  0.00  0.00    +0.197 C 
ATOM     29  C26 <0> A   1     -24.976  -6.879  51.951  0.00  0.00    +0.040 C 
ATOM     30  C27 <0> A   1     -24.594  -8.336  51.671  0.00  0.00    +0.183 C 
ATOM     31  C28 <0> A   1     -25.003  -8.688  50.235  0.00  0.00    +0.020 C 
ATOM     32  C29 <0> A   1     -24.430  -7.639  49.307  0.00  0.00    +0.496 C 
ATOM     33  O1  <0> A   1     -23.820  -7.955  48.313  0.00  0.00    -0.453 OA
ATOM     34  O2  <0> A   1     -24.617  -6.341  49.622  0.00  0.00    -0.365 OA
BRANCH  30  35
ATOM     35  O3  <0> A   1     -23.182  -8.498  51.823  0.00  0.00    -0.563 OA
ATOM     36  H29 <0> A   1     -22.718  -8.696  50.997  0.00  0.00    +0.386 HD
ENDBRANCH  30  35
ENDBRANCH  27  28
ENDBRANCH  26  27
ENDBRANCH   2  26
TORSDOF 7
ENDMDL
MODEL 4
REMARK VINA RESULT:      -8.1     16.461     19.279
REMARK  Name = CHEMBL340139
REMARK  9 active torsions:
REMARK  status: ('A' for Active; 'I' for Inactive)
REMARK    1  A    between atoms: C1_1  and  C2_2
REMARK    2  A    between atoms: C2_2  and  C3_3
REMARK    3  A    between atoms: C2_2  and  C4_4
REMARK    4  A    between atoms: C5_5  and  C23_26
REMARK    5  A    between atoms: C6_6  and  C17_19
REMARK    6  A    between atoms: N1_7  and  C7_9
REMARK    7  A    between atoms: C23_26  and  C24_27
REMARK    8  A    between atoms: C24_27  and  C25_28
REMARK    9  A    between atoms: C27_31  and  O3_37
REMARK                            x       y       z     vdW  Elec       q    Type
REMARK                         _______ _______ _______ _____ _____    ______ ____
ROOT
ATOM      1  C4  <0> A   1     -27.679  -4.939  50.968  0.00  0.00    +0.094 C 
ATOM      2  C5  <0> A   1     -26.334  -4.787  51.300  0.00  0.00    -0.200 C 
ATOM      3  C6  <0> A   1     -26.074  -3.448  51.394  0.00  0.00    +0.131 C 
ATOM      4  N1  <0> A   1     -27.239  -2.789  51.123  0.00  0.00    -0.319 N 
ATOM      5  N2  <0> A   1     -28.221  -3.752  50.857  0.00  0.00    -0.269 NA
ENDROOT
BRANCH   4   6
ATOM      6  C7  <0> A   1     -27.419  -1.403  51.111  0.00  0.00    +0.160 A 
ATOM      7  C8  <0> A   1     -27.068  -0.666  50.001  0.00  0.00    +0.020 A 
ATOM      8  C9  <0> A   1     -27.242   0.715  49.979  0.00  0.00    +0.031 A 
ATOM      9  C10 <0> A   1     -27.763   1.375  51.050  0.00  0.00    +0.036 A 
ATOM     10  C11 <0> A   1     -28.135   0.660  52.201  0.00  0.00    -0.040 A 
ATOM     11  C12 <0> A   1     -27.967  -0.747  52.233  0.00  0.00    -0.044 A 
ATOM     12  C13 <0> A   1     -28.343  -1.459  53.382  0.00  0.00    +0.039 A 
ATOM     13  C14 <0> A   1     -28.869  -0.793  54.448  0.00  0.00    +0.010 A 
ATOM     14  C15 <0> A   1     -29.040   0.589  54.415  0.00  0.00    +0.018 A 
ATOM     15  C16 <0> A   1     -28.676   1.315  53.322  0.00  0.00    +0.023 A 
ENDBRANCH   4   6
BRANCH   3  16
ATOM     16  C17 <0> A   1     -24.773  -2.829  51.726  0.00  0.00    -0.047 A 
ATOM     17  C18 <0> A   1     -23.731  -2.846  50.796  0.00  0.00    +0.082 A 
ATOM     18  C19 <0> A   1     -22.520  -2.267  51.110  0.00  0.00    -0.006 A 
ATOM     19  C20 <0> A   1     -22.336  -1.668  52.347  0.00  0.00    +0.113 A 
ATOM     20  C21 <0> A   1     -23.366  -1.649  53.273  0.00  0.00    -0.011 A 
ATOM     21  C22 <0> A   1     -24.583  -2.220  52.967  0.00  0.00    +0.065 A 
ATOM     22  F1  <0> A   1     -21.147  -1.102  52.650  0.00  0.00    -0.136 F 
ENDBRANCH   3  16
BRANCH   1  24
ATOM     23  C1  <0> A   1     -29.708  -6.244  51.543  0.00  0.00    +0.035 C 
ATOM     24  C2  <0> A   1     -28.392  -6.252  50.764  0.00  0.00    +0.075 C 
ATOM     25  C3  <0> A   1     -28.682  -6.449  49.275  0.00  0.00    +0.035 C 
ENDBRANCH   1  24
BRANCH   2  26
ATOM     26  C23 <0> A   1     -25.342  -5.901  51.518  0.00  0.00    +0.112 C 
BRANCH  26  27
ATOM     27  C24 <0> A   1     -24.611  -6.196  50.207  0.00  0.00    +0.055 C 
BRANCH  27  28
ATOM     28  C25 <0> A   1     -25.161  -7.486  49.595  0.00  0.00    +0.197 C 
ATOM     29  C26 <0> A   1     -24.049  -8.199  48.821  0.00  0.00    +0.040 C 
ATOM     30  C27 <0> A   1     -24.592  -9.510  48.244  0.00  0.00    +0.183 C 
ATOM     31  C28 <0> A   1     -25.085 -10.393  49.398  0.00  0.00    +0.020 C 
ATOM     32  C29 <0> A   1     -26.032  -9.575  50.250  0.00  0.00    +0.496 C 
ATOM     33  O1  <0> A   1     -27.112 -10.012  50.572  0.00  0.00    -0.453 OA
ATOM     34  O2  <0> A   1     -25.637  -8.345  50.638  0.00  0.00    -0.365 OA
BRANCH  30  35
ATOM     35  O3  <0> A   1     -25.677  -9.229  47.355  0.00  0.00    -0.563 OA
ATOM     36  H29 <0> A   1     -25.420  -8.731  46.567  0.00  0.00    +0.386 HD
ENDBRANCH  30  35
ENDBRANCH  27  28
ENDBRANCH  26  27
ENDBRANCH   2  26
TORSDOF 7
ENDMDL
MODEL 5
REMARK VINA RESULT:      -7.9      3.467      5.903
REMARK  Name = CHEMBL340139
REMARK  9 active torsions:
REMARK  status: ('A' for Active; 'I' for Inactive)
REMARK    1  A    between atoms: C1_1  and  C2_2
REMARK    2  A    between atoms: C2_2  and  C3_3
REMARK    3  A    between atoms: C2_2  and  C4_4
REMARK    4  A    between atoms: C5_5  and  C23_26
REMARK    5  A    between atoms: C6_6  and  C17_19
REMARK    6  A    between atoms: N1_7  and  C7_9
REMARK    7  A    between atoms: C23_26  and  C24_27
REMARK    8  A    between atoms: C24_27  and  C25_28
REMARK    9  A    between atoms: C27_31  and  O3_37
REMARK                            x       y       z     vdW  Elec       q    Type
REMARK                         _______ _______ _______ _____ _____    ______ ____
ROOT
ATOM      1  C4  <0> A   1     -15.446  10.602  47.361  0.00  0.00    +0.094 C 
ATOM      2  C5  <0> A   1     -14.979   9.602  46.508  0.00  0.00    -0.200 C 
ATOM      3  C6  <0> A   1     -15.240   8.395  47.094  0.00  0.00    +0.131 C 
ATOM      4  N1  <0> A   1     -15.855   8.648  48.287  0.00  0.00    -0.319 N 
ATOM      5  N2  <0> A   1     -15.964  10.038  48.424  0.00  0.00    -0.269 NA
ENDROOT
BRANCH   4   6
ATOM      6  C7  <0> A   1     -16.295   7.693  49.208  0.00  0.00    +0.160 A 
ATOM      7  C8  <0> A   1     -15.514   7.362  50.293  0.00  0.00    +0.020 A 
ATOM      8  C9  <0> A   1     -15.941   6.411  51.216  0.00  0.00    +0.031 A 
ATOM      9  C10 <0> A   1     -17.141   5.783  51.072  0.00  0.00    +0.036 A 
ATOM     10  C11 <0> A   1     -17.969   6.093  49.980  0.00  0.00    -0.040 A 
ATOM     11  C12 <0> A   1     -17.546   7.063  49.038  0.00  0.00    -0.044 A 
ATOM     12  C13 <0> A   1     -18.376   7.375  47.950  0.00  0.00    +0.039 A 
ATOM     13  C14 <0> A   1     -19.577   6.746  47.816  0.00  0.00    +0.010 A 
ATOM     14  C15 <0> A   1     -19.997   5.797  48.745  0.00  0.00    +0.018 A 
ATOM     15  C16 <0> A   1     -19.213   5.461  49.806  0.00  0.00    +0.023 A 
ENDBRANCH   4   6
BRANCH   3  16
ATOM     16  C17 <0> A   1     -14.916   7.063  46.541  0.00  0.00    -0.047 A 
ATOM     17  C18 <0> A   1     -15.782   6.452  45.631  0.00  0.00    +0.082 A 
ATOM     18  C19 <0> A   1     -15.475   5.210  45.117  0.00  0.00    -0.006 A 
ATOM     19  C20 <0> A   1     -14.308   4.568  45.502  0.00  0.00    +0.113 A 
ATOM     20  C21 <0> A   1     -13.446   5.168  46.405  0.00  0.00    -0.011 A 
ATOM     21  C22 <0> A   1     -13.741   6.413  46.920  0.00  0.00    +0.065 A 
ATOM     22  F1  <0> A   1     -14.013   3.350  44.996  0.00  0.00    -0.136 F 
ENDBRANCH   3  16
BRANCH   1  24
ATOM     23  C1  <0> A   1     -16.567  12.780  47.743  0.00  0.00    +0.035 C 
ATOM     24  C2  <0> A   1     -15.362  12.085  47.106  0.00  0.00    +0.075 C 
ATOM     25  C3  <0> A   1     -14.073  12.636  47.718  0.00  0.00    +0.035 C 
ENDBRANCH   1  24
BRANCH   2  26
ATOM     26  C23 <0> A   1     -14.308   9.815  45.176  0.00  0.00    +0.112 C 
BRANCH  26  27
ATOM     27  C24 <0> A   1     -12.816   9.500  45.300  0.00  0.00    +0.055 C 
BRANCH  27  28
ATOM     28  C25 <0> A   1     -12.251   9.152  43.922  0.00  0.00    +0.197 C 
ATOM     29  C26 <0> A   1     -12.698   7.741  43.529  0.00  0.00    +0.040 C 
ATOM     30  C27 <0> A   1     -12.165   7.410  42.131  0.00  0.00    +0.183 C 
ATOM     31  C28 <0> A   1     -12.716   8.438  41.135  0.00  0.00    +0.020 C 
ATOM     32  C29 <0> A   1     -12.422   9.823  41.670  0.00  0.00    +0.496 C 
ATOM     33  O1  <0> A   1     -11.918  10.667  40.967  0.00  0.00    -0.453 OA
ATOM     34  O2  <0> A   1     -12.738  10.088  42.954  0.00  0.00    -0.365 OA
BRANCH  30  35
ATOM     35  O3  <0> A   1     -10.736   7.465  42.138  0.00  0.00    -0.563 OA
ATOM     36  H29 <0> A   1     -10.331   7.054  42.914  0.00  0.00    +0.386 HD
ENDBRANCH  30  35
ENDBRANCH  27  28
ENDBRANCH  26  27
ENDBRANCH   2  26
TORSDOF 7
ENDMDL
MODEL 6
REMARK VINA RESULT:      -7.9     15.973     19.024
REMARK  Name = CHEMBL340139
REMARK  9 active torsions:
REMARK  status: ('A' for Active; 'I' for Inactive)
REMARK    1  A    between atoms: C1_1  and  C2_2
REMARK    2  A    between atoms: C2_2  and  C3_3
REMARK    3  A    between atoms: C2_2  and  C4_4
REMARK    4  A    between atoms: C5_5  and  C23_26
REMARK    5  A    between atoms: C6_6  and  C17_19
REMARK    6  A    between atoms: N1_7  and  C7_9
REMARK    7  A    between atoms: C23_26  and  C24_27
REMARK    8  A    between atoms: C24_27  and  C25_28
REMARK    9  A    between atoms: C27_31  and  O3_37
REMARK                            x       y       z     vdW  Elec       q    Type
REMARK                         _______ _______ _______ _____ _____    ______ ____
ROOT
ATOM      1  C4  <0> A   1     -27.530  -4.600  51.290  0.00  0.00    +0.094 C 
ATOM      2  C5  <0> A   1     -26.184  -4.369  51.568  0.00  0.00    -0.200 C 
ATOM      3  C6  <0> A   1     -25.994  -3.017  51.629  0.00  0.00    +0.131 C 
ATOM      4  N1  <0> A   1     -27.203  -2.427  51.391  0.00  0.00    -0.319 N 
ATOM      5  N2  <0> A   1     -28.140  -3.446  51.179  0.00  0.00    -0.269 NA
ENDROOT
BRANCH   4   6
ATOM      6  C7  <0> A   1     -27.459  -1.053  51.362  0.00  0.00    +0.160 A 
ATOM      7  C8  <0> A   1     -27.271  -0.335  50.201  0.00  0.00    +0.020 A 
ATOM      8  C9  <0> A   1     -27.522   1.033  50.161  0.00  0.00    +0.031 A 
ATOM      9  C10 <0> A   1     -27.961   1.700  51.265  0.00  0.00    +0.036 A 
ATOM     10  C11 <0> A   1     -28.167   1.004  52.468  0.00  0.00    -0.040 A 
ATOM     11  C12 <0> A   1     -27.919  -0.390  52.519  0.00  0.00    -0.044 A 
ATOM     12  C13 <0> A   1     -28.130  -1.084  53.721  0.00  0.00    +0.039 A 
ATOM     13  C14 <0> A   1     -28.574  -0.411  54.819  0.00  0.00    +0.010 A 
ATOM     14  C15 <0> A   1     -28.824   0.958  54.768  0.00  0.00    +0.018 A 
ATOM     15  C16 <0> A   1     -28.619   1.666  53.623  0.00  0.00    +0.023 A 
ENDBRANCH   4   6
BRANCH   3  16
ATOM     16  C17 <0> A   1     -24.718  -2.321  51.900  0.00  0.00    -0.047 A 
ATOM     17  C18 <0> A   1     -23.789  -2.136  50.874  0.00  0.00    +0.082 A 
ATOM     18  C19 <0> A   1     -22.601  -1.486  51.132  0.00  0.00    -0.006 A 
ATOM     19  C20 <0> A   1     -22.327  -1.018  52.407  0.00  0.00    +0.113 A 
ATOM     20  C21 <0> A   1     -23.245  -1.200  53.430  0.00  0.00    -0.011 A 
ATOM     21  C22 <0> A   1     -24.439  -1.843  53.180  0.00  0.00    +0.065 A 
ATOM     22  F1  <0> A   1     -21.161  -0.382  52.655  0.00  0.00    -0.136 F 
ENDBRANCH   3  16
BRANCH   1  24
ATOM     23  C1  <0> A   1     -29.549  -5.943  51.813  0.00  0.00    +0.035 C 
ATOM     24  C2  <0> A   1     -28.177  -5.954  51.136  0.00  0.00    +0.075 C 
ATOM     25  C3  <0> A   1     -28.344  -6.273  49.649  0.00  0.00    +0.035 C 
ENDBRANCH   1  24
BRANCH   2  26
ATOM     26  C23 <0> A   1     -25.126  -5.423  51.767  0.00  0.00    +0.112 C 
BRANCH  26  27
ATOM     27  C24 <0> A   1     -24.678  -5.960  50.407  0.00  0.00    +0.055 C 
BRANCH  27  28
ATOM     28  C25 <0> A   1     -24.770  -7.488  50.406  0.00  0.00    +0.197 C 
ATOM     29  C26 <0> A   1     -24.602  -8.009  48.976  0.00  0.00    +0.040 C 
ATOM     30  C27 <0> A   1     -24.653  -9.540  48.984  0.00  0.00    +0.183 C 
ATOM     31  C28 <0> A   1     -23.524 -10.069  49.878  0.00  0.00    +0.020 C 
ATOM     32  C29 <0> A   1     -23.615  -9.373  51.219  0.00  0.00    +0.496 C 
ATOM     33  O1  <0> A   1     -23.583 -10.004  52.249  0.00  0.00    -0.453 OA
ATOM     34  O2  <0> A   1     -23.733  -8.030  51.231  0.00  0.00    -0.365 OA
BRANCH  30  35
ATOM     35  O3  <0> A   1     -25.916  -9.974  49.496  0.00  0.00    -0.563 OA
ATOM     36  H29 <0> A   1     -26.675  -9.524  49.102  0.00  0.00    +0.386 HD
ENDBRANCH  30  35
ENDBRANCH  27  28
ENDBRANCH  26  27
ENDBRANCH   2  26
TORSDOF 7
ENDMDL
MODEL 7
REMARK VINA RESULT:      -7.9     15.418     18.551
REMARK  Name = CHEMBL340139
REMARK  9 active torsions:
REMARK  status: ('A' for Active; 'I' for Inactive)
REMARK    1  A    between atoms: C1_1  and  C2_2
REMARK    2  A    between atoms: C2_2  and  C3_3
REMARK    3  A    between atoms: C2_2  and  C4_4
REMARK    4  A    between atoms: C5_5  and  C23_26
REMARK    5  A    between atoms: C6_6  and  C17_19
REMARK    6  A    between atoms: N1_7  and  C7_9
REMARK    7  A    between atoms: C23_26  and  C24_27
REMARK    8  A    between atoms: C24_27  and  C25_28
REMARK    9  A    between atoms: C27_31  and  O3_37
REMARK                            x       y       z     vdW  Elec       q    Type
REMARK                         _______ _______ _______ _____ _____    ______ ____
ROOT
ATOM      1  C4  <0> A   1     -27.204  -3.944  51.575  0.00  0.00    +0.094 C 
ATOM      2  C5  <0> A   1     -25.849  -3.624  51.492  0.00  0.00    -0.200 C 
ATOM      3  C6  <0> A   1     -25.667  -2.410  52.093  0.00  0.00    +0.131 C 
ATOM      4  N1  <0> A   1     -26.888  -1.989  52.536  0.00  0.00    -0.319 N 
ATOM      5  N2  <0> A   1     -27.827  -2.970  52.192  0.00  0.00    -0.269 NA
ENDROOT
BRANCH   4   6
ATOM      6  C7  <0> A   1     -27.155  -0.793  53.209  0.00  0.00    +0.160 A 
ATOM      7  C8  <0> A   1     -27.101  -0.743  54.585  0.00  0.00    +0.020 A 
ATOM      8  C9  <0> A   1     -27.365   0.442  55.265  0.00  0.00    +0.031 A 
ATOM      9  C10 <0> A   1     -27.683   1.583  54.593  0.00  0.00    +0.036 A 
ATOM     10  C11 <0> A   1     -27.746   1.574  53.189  0.00  0.00    -0.040 A 
ATOM     11  C12 <0> A   1     -27.475   0.375  52.486  0.00  0.00    -0.044 A 
ATOM     12  C13 <0> A   1     -27.535   0.369  51.084  0.00  0.00    +0.039 A 
ATOM     13  C14 <0> A   1     -27.848   1.516  50.417  0.00  0.00    +0.010 A 
ATOM     14  C15 <0> A   1     -28.109   2.697  51.108  0.00  0.00    +0.018 A 
ATOM     15  C16 <0> A   1     -28.072   2.737  52.468  0.00  0.00    +0.023 A 
ENDBRANCH   4   6
BRANCH   3  16
ATOM     16  C17 <0> A   1     -24.386  -1.685  52.235  0.00  0.00    -0.047 A 
ATOM     17  C18 <0> A   1     -23.945  -0.835  51.219  0.00  0.00    +0.082 A 
ATOM     18  C19 <0> A   1     -22.750  -0.161  51.357  0.00  0.00    -0.006 A 
ATOM     19  C20 <0> A   1     -21.986  -0.327  52.502  0.00  0.00    +0.113 A 
ATOM     20  C21 <0> A   1     -22.418  -1.170  53.513  0.00  0.00    -0.011 A 
ATOM     21  C22 <0> A   1     -23.615  -1.844  53.387  0.00  0.00    +0.065 A 
ATOM     22  F1  <0> A   1     -20.816   0.335  52.631  0.00  0.00    -0.136 F 
ENDBRANCH   3  16
BRANCH   1  24
ATOM     23  C1  <0> A   1     -28.089  -6.177  52.189  0.00  0.00    +0.035 C 
ATOM     24  C2  <0> A   1     -27.846  -5.198  51.039  0.00  0.00    +0.075 C 
ATOM     25  C3  <0> A   1     -29.181  -4.845  50.379  0.00  0.00    +0.035 C 
ENDBRANCH   1  24
BRANCH   2  26
ATOM     26  C23 <0> A   1     -24.776  -4.469  50.856  0.00  0.00    +0.112 C 
BRANCH  26  27
ATOM     27  C24 <0> A   1     -24.165  -5.396  51.908  0.00  0.00    +0.055 C 
BRANCH  27  28
ATOM     28  C25 <0> A   1     -24.477  -6.850  51.551  0.00  0.00    +0.197 C 
ATOM     29  C26 <0> A   1     -24.579  -6.991  50.029  0.00  0.00    +0.040 C 
ATOM     30  C27 <0> A   1     -24.851  -8.456  49.672  0.00  0.00    +0.183 C 
ATOM     31  C28 <0> A   1     -23.701  -9.319  50.209  0.00  0.00    +0.020 C 
ATOM     32  C29 <0> A   1     -23.510  -8.995  51.676  0.00  0.00    +0.496 C 
ATOM     33  O1  <0> A   1     -23.433  -9.874  52.501  0.00  0.00    -0.453 OA
ATOM     34  O2  <0> A   1     -23.429  -7.697  52.035  0.00  0.00    -0.365 OA
BRANCH  30  35
ATOM     35  O3  <0> A   1     -26.083  -8.873  50.266  0.00  0.00    -0.563 OA
ATOM     36  H29 <0> A   1     -26.855  -8.752  49.695  0.00  0.00    +0.386 HD
ENDBRANCH  30  35
ENDBRANCH  27  28
ENDBRANCH  26  27
ENDBRANCH   2  26
TORSDOF 7
ENDMDL
MODEL 8
REMARK VINA RESULT:      -7.9     19.636     23.999
REMARK  Name = CHEMBL340139
REMARK  9 active torsions:
REMARK  status: ('A' for Active; 'I' for Inactive)
REMARK    1  A    between atoms: C1_1  and  C2_2
REMARK    2  A    between atoms: C2_2  and  C3_3
REMARK    3  A    between atoms: C2_2  and  C4_4
REMARK    4  A    between atoms: C5_5  and  C23_26
REMARK    5  A    between atoms: C6_6  and  C17_19
REMARK    6  A    between atoms: N1_7  and  C7_9
REMARK    7  A    between atoms: C23_26  and  C24_27
REMARK    8  A    between atoms: C24_27  and  C25_28
REMARK    9  A    between atoms: C27_31  and  O3_37
REMARK                            x       y       z     vdW  Elec       q    Type
REMARK                         _______ _______ _______ _____ _____    ______ ____
ROOT
ATOM      1  C4  <0> A   1     -25.832  -6.196  51.049  0.00  0.00    +0.094 C 
ATOM      2  C5  <0> A   1     -27.130  -6.698  51.120  0.00  0.00    -0.200 C 
ATOM      3  C6  <0> A   1     -27.151  -7.903  50.475  0.00  0.00    +0.131 C 
ATOM      4  N1  <0> A   1     -25.887  -8.136  50.013  0.00  0.00    -0.319 N 
ATOM      5  N2  <0> A   1     -25.089  -7.047  50.386  0.00  0.00    -0.269 NA
ENDROOT
BRANCH   4   6
ATOM      6  C7  <0> A   1     -25.465  -9.259  49.295  0.00  0.00    +0.160 A 
ATOM      7  C8  <0> A   1     -25.430  -9.231  47.918  0.00  0.00    +0.020 A 
ATOM      8  C9  <0> A   1     -25.013 -10.344  47.193  0.00  0.00    +0.031 A 
ATOM      9  C10 <0> A   1     -24.628 -11.488  47.822  0.00  0.00    +0.036 A 
ATOM     10  C11 <0> A   1     -24.647 -11.557  49.226  0.00  0.00    -0.040 A 
ATOM     11  C12 <0> A   1     -25.065 -10.429  49.974  0.00  0.00    -0.044 A 
ATOM     12  C13 <0> A   1     -25.079 -10.499  51.376  0.00  0.00    +0.039 A 
ATOM     13  C14 <0> A   1     -24.687 -11.645  51.998  0.00  0.00    +0.010 A 
ATOM     14  C15 <0> A   1     -24.270 -12.753  51.264  0.00  0.00    +0.018 A 
ATOM     15  C16 <0> A   1     -24.254 -12.726  49.903  0.00  0.00    +0.023 A 
ENDBRANCH   4   6
BRANCH   3  16
ATOM     16  C17 <0> A   1     -28.323  -8.788  50.306  0.00  0.00    -0.047 A 
ATOM     17  C18 <0> A   1     -29.090  -8.721  49.141  0.00  0.00    +0.082 A 
ATOM     18  C19 <0> A   1     -30.182  -9.548  48.988  0.00  0.00    -0.006 A 
ATOM     19  C20 <0> A   1     -30.519 -10.446  49.989  0.00  0.00    +0.113 A 
ATOM     20  C21 <0> A   1     -29.762 -10.516  51.148  0.00  0.00    -0.011 A 
ATOM     21  C22 <0> A   1     -28.664  -9.697  51.308  0.00  0.00    +0.065 A 
ATOM     22  F1  <0> A   1     -31.590 -11.255  49.835  0.00  0.00    -0.136 F 
ENDBRANCH   3  16
BRANCH   1  24
ATOM     23  C1  <0> A   1     -23.833  -4.827  51.579  0.00  0.00    +0.035 C 
ATOM     24  C2  <0> A   1     -25.361  -4.887  51.632  0.00  0.00    +0.075 C 
ATOM     25  C3  <0> A   1     -25.946  -3.729  50.822  0.00  0.00    +0.035 C 
ENDBRANCH   1  24
BRANCH   2  26
ATOM     26  C23 <0> A   1     -28.303  -6.032  51.792  0.00  0.00    +0.112 C 
BRANCH  26  27
ATOM     27  C24 <0> A   1     -28.287  -6.356  53.287  0.00  0.00    +0.055 C 
BRANCH  27  28
ATOM     28  C25 <0> A   1     -29.687  -6.785  53.732  0.00  0.00    +0.197 C 
ATOM     29  C26 <0> A   1     -30.616  -6.834  52.516  0.00  0.00    +0.040 C 
ATOM     30  C27 <0> A   1     -32.006  -7.303  52.958  0.00  0.00    +0.183 C 
ATOM     31  C28 <0> A   1     -31.882  -8.696  53.588  0.00  0.00    +0.020 C 
ATOM     32  C29 <0> A   1     -30.807  -8.642  54.653  0.00  0.00    +0.496 C 
ATOM     33  O1  <0> A   1     -31.005  -9.084  55.759  0.00  0.00    -0.453 OA
ATOM     34  O2  <0> A   1     -29.622  -8.084  54.331  0.00  0.00    -0.365 OA
BRANCH  30  35
ATOM     35  O3  <0> A   1     -32.538  -6.386  53.918  0.00  0.00    -0.563 OA
ATOM     36  H29 <0> A   1     -32.372  -6.638  54.836  0.00  0.00    +0.386 HD
ENDBRANCH  30  35
ENDBRANCH  27  28
ENDBRANCH  26  27
ENDBRANCH   2  26
TORSDOF 7
ENDMDL
MODEL 9
REMARK VINA RESULT:      -7.8     12.644     16.219
REMARK  Name = CHEMBL340139
REMARK  9 active torsions:
REMARK  status: ('A' for Active; 'I' for Inactive)
REMARK    1  A    between atoms: C1_1  and  C2_2
REMARK    2  A    between atoms: C2_2  and  C3_3
REMARK    3  A    between atoms: C2_2  and  C4_4
REMARK    4  A    between atoms: C5_5  and  C23_26
REMARK    5  A    between atoms: C6_6  and  C17_19
REMARK    6  A    between atoms: N1_7  and  C7_9
REMARK    7  A    between atoms: C23_26  and  C24_27
REMARK    8  A    between atoms: C24_27  and  C25_28
REMARK    9  A    between atoms: C27_31  and  O3_37
REMARK                            x       y       z     vdW  Elec       q    Type
REMARK                         _______ _______ _______ _____ _____    ______ ____
ROOT
ATOM      1  C4  <0> A   1     -20.922   1.642  52.393  0.00  0.00    +0.094 C 
ATOM      2  C5  <0> A   1     -22.109   1.045  51.971  0.00  0.00    -0.200 C 
ATOM      3  C6  <0> A   1     -22.126  -0.237  52.446  0.00  0.00    +0.131 C 
ATOM      4  N1  <0> A   1     -20.969  -0.424  53.147  0.00  0.00    -0.319 N 
ATOM      5  N2  <0> A   1     -20.237   0.769  53.089  0.00  0.00    -0.269 NA
ENDROOT
BRANCH   4   6
ATOM      6  C7  <0> A   1     -20.581  -1.597  53.801  0.00  0.00    +0.160 A 
ATOM      7  C8  <0> A   1     -19.926  -2.594  53.112  0.00  0.00    +0.020 A 
ATOM      8  C9  <0> A   1     -19.537  -3.767  53.753  0.00  0.00    +0.031 A 
ATOM      9  C10 <0> A   1     -19.791  -3.961  55.077  0.00  0.00    +0.036 A 
ATOM     10  C11 <0> A   1     -20.455  -2.968  55.816  0.00  0.00    -0.040 A 
ATOM     11  C12 <0> A   1     -20.852  -1.769  55.175  0.00  0.00    -0.044 A 
ATOM     12  C13 <0> A   1     -21.511  -0.776  55.917  0.00  0.00    +0.039 A 
ATOM     13  C14 <0> A   1     -21.757  -0.975  57.242  0.00  0.00    +0.010 A 
ATOM     14  C15 <0> A   1     -21.362  -2.152  57.875  0.00  0.00    +0.018 A 
ATOM     15  C16 <0> A   1     -20.731  -3.141  57.184  0.00  0.00    +0.023 A 
ENDBRANCH   4   6
BRANCH   3  16
ATOM     16  C17 <0> A   1     -23.197  -1.235  52.240  0.00  0.00    -0.047 A 
ATOM     17  C18 <0> A   1     -23.135  -2.116  51.158  0.00  0.00    +0.082 A 
ATOM     18  C19 <0> A   1     -24.137  -3.045  50.970  0.00  0.00    -0.006 A 
ATOM     19  C20 <0> A   1     -25.203  -3.105  51.853  0.00  0.00    +0.113 A 
ATOM     20  C21 <0> A   1     -25.271  -2.233  52.927  0.00  0.00    -0.011 A 
ATOM     21  C22 <0> A   1     -24.271  -1.304  53.128  0.00  0.00    +0.065 A 
ATOM     22  F1  <0> A   1     -26.182  -4.017  51.664  0.00  0.00    -0.136 F 
ENDBRANCH   3  16
BRANCH   1  24
ATOM     23  C1  <0> A   1     -19.559   3.551  53.198  0.00  0.00    +0.035 C 
ATOM     24  C2  <0> A   1     -20.494   3.056  52.092  0.00  0.00    +0.075 C 
ATOM     25  C3  <0> A   1     -19.761   3.092  50.750  0.00  0.00    +0.035 C 
ENDBRANCH   1  24
BRANCH   2  26
ATOM     26  C23 <0> A   1     -23.184   1.697  51.141  0.00  0.00    +0.112 C 
BRANCH  26  27
ATOM     27  C24 <0> A   1     -24.187   2.396  52.062  0.00  0.00    +0.055 C 
BRANCH  27  28
ATOM     28  C25 <0> A   1     -25.561   1.741  51.911  0.00  0.00    +0.197 C 
ATOM     29  C26 <0> A   1     -26.639   2.826  51.843  0.00  0.00    +0.040 C 
ATOM     30  C27 <0> A   1     -28.010   2.169  51.651  0.00  0.00    +0.183 C 
ATOM     31  C28 <0> A   1     -27.991   1.357  50.349  0.00  0.00    +0.020 C 
ATOM     32  C29 <0> A   1     -26.789   0.437  50.380  0.00  0.00    +0.496 C 
ATOM     33  O1  <0> A   1     -26.899  -0.738  50.121  0.00  0.00    -0.453 OA
ATOM     34  O2  <0> A   1     -25.593   0.967  50.706  0.00  0.00    -0.365 OA
BRANCH  30  35
ATOM     35  O3  <0> A   1     -28.285   1.303  52.755  0.00  0.00    -0.563 OA
ATOM     36  H29 <0> A   1     -29.108   0.803  52.666  0.00  0.00    +0.386 HD
ENDBRANCH  30  35
ENDBRANCH  27  28
ENDBRANCH  26  27
ENDBRANCH   2  26
TORSDOF 7
ENDMDL
MODEL 10
REMARK VINA RESULT:      -7.8      3.534      6.103
REMARK  Name = CHEMBL340139
REMARK  9 active torsions:
REMARK  status: ('A' for Active; 'I' for Inactive)
REMARK    1  A    between atoms: C1_1  and  C2_2
REMARK    2  A    between atoms: C2_2  and  C3_3
REMARK    3  A    between atoms: C2_2  and  C4_4
REMARK    4  A    between atoms: C5_5  and  C23_26
REMARK    5  A    between atoms: C6_6  and  C17_19
REMARK    6  A    between atoms: N1_7  and  C7_9
REMARK    7  A    between atoms: C23_26  and  C24_27
REMARK    8  A    between atoms: C24_27  and  C25_28
REMARK    9  A    between atoms: C27_31  and  O3_37
REMARK                            x       y       z     vdW  Elec       q    Type
REMARK                         _______ _______ _______ _____ _____    ______ ____
ROOT
ATOM      1  C4  <0> A   1     -15.230  10.599  47.146  0.00  0.00    +0.094 C 
ATOM      2  C5  <0> A   1     -14.598   9.584  46.428  0.00  0.00    -0.200 C 
ATOM      3  C6  <0> A   1     -15.245   8.411  46.703  0.00  0.00    +0.131 C 
ATOM      4  N1  <0> A   1     -16.256   8.701  47.574  0.00  0.00    -0.319 N 
ATOM      5  N2  <0> A   1     -16.215  10.076  47.833  0.00  0.00    -0.269 NA
ENDROOT
BRANCH   4   6
ATOM      6  C7  <0> A   1     -17.166   7.787  48.114  0.00  0.00    +0.160 A 
ATOM      7  C8  <0> A   1     -18.285   7.416  47.400  0.00  0.00    +0.020 A 
ATOM      8  C9  <0> A   1     -19.198   6.508  47.927  0.00  0.00    +0.031 A 
ATOM      9  C10 <0> A   1     -19.013   5.961  49.161  0.00  0.00    +0.036 A 
ATOM     10  C11 <0> A   1     -17.884   6.312  49.921  0.00  0.00    -0.040 A 
ATOM     11  C12 <0> A   1     -16.945   7.232  49.391  0.00  0.00    -0.044 A 
ATOM     12  C13 <0> A   1     -15.816   7.577  50.150  0.00  0.00    +0.039 A 
ATOM     13  C14 <0> A   1     -15.634   7.022  51.381  0.00  0.00    +0.010 A 
ATOM     14  C15 <0> A   1     -16.554   6.113  51.900  0.00  0.00    +0.018 A 
ATOM     15  C16 <0> A   1     -17.666   5.763  51.197  0.00  0.00    +0.023 A 
ENDBRANCH   4   6
BRANCH   3  16
ATOM     16  C17 <0> A   1     -14.911   7.078  46.158  0.00  0.00    -0.047 A 
ATOM     17  C18 <0> A   1     -15.560   6.606  45.015  0.00  0.00    +0.082 A 
ATOM     18  C19 <0> A   1     -15.245   5.361  44.511  0.00  0.00    -0.006 A 
ATOM     19  C20 <0> A   1     -14.287   4.580  45.137  0.00  0.00    +0.113 A 
ATOM     20  C21 <0> A   1     -13.640   5.043  46.271  0.00  0.00    -0.011 A 
ATOM     21  C22 <0> A   1     -13.943   6.289  46.780  0.00  0.00    +0.065 A 
ATOM     22  F1  <0> A   1     -13.982   3.362  44.639  0.00  0.00    -0.136 F 
ENDBRANCH   3  16
BRANCH   1  24
ATOM     23  C1  <0> A   1     -16.042  12.907  47.553  0.00  0.00    +0.035 C 
ATOM     24  C2  <0> A   1     -14.841  12.056  47.137  0.00  0.00    +0.075 C 
ATOM     25  C3  <0> A   1     -13.691  12.282  48.120  0.00  0.00    +0.035 C 
ENDBRANCH   1  24
BRANCH   2  26
ATOM     26  C23 <0> A   1     -13.414   9.751  45.512  0.00  0.00    +0.112 C 
BRANCH  26  27
ATOM     27  C24 <0> A   1     -13.830  10.559  44.282  0.00  0.00    +0.055 C 
BRANCH  27  28
ATOM     28  C25 <0> A   1     -13.074  10.047  43.054  0.00  0.00    +0.197 C 
ATOM     29  C26 <0> A   1     -13.499   8.606  42.757  0.00  0.00    +0.040 C 
ATOM     30  C27 <0> A   1     -12.771   8.111  41.503  0.00  0.00    +0.183 C 
ATOM     31  C28 <0> A   1     -13.134   9.025  40.326  0.00  0.00    +0.020 C 
ATOM     32  C29 <0> A   1     -12.882  10.458  40.742  0.00  0.00    +0.496 C 
ATOM     33  O1  <0> A   1     -12.251  11.209  40.036  0.00  0.00    -0.453 OA
ATOM     34  O2  <0> A   1     -13.380  10.873  41.925  0.00  0.00    -0.365 OA
BRANCH  30  35
ATOM     35  O3  <0> A   1     -11.359   8.147  41.724  0.00  0.00    -0.563 OA
ATOM     36  H29 <0> A   1     -10.914   8.892  41.298  0.00  0.00    +0.386 HD
ENDBRANCH  30  35
ENDBRANCH  27  28
ENDBRANCH  26  27
ENDBRANCH   2  26
TORSDOF 7
ENDMDL
