MODEL 1
REMARK VINA RESULT:      -7.9      0.000      0.000
REMARK  Name = CHEMBL143143
REMARK  13 active torsions:
REMARK  status: ('A' for Active; 'I' for Inactive)
REMARK    1  A    between atoms: C1_1  and  C2_2
REMARK    2  A    between atoms: C2_2  and  C3_3
REMARK    3  A    between atoms: C2_2  and  C4_4
REMARK    4  A    between atoms: C7_7  and  C15_21
REMARK    5  A    between atoms: N1_8  and  C8_9
REMARK    6  A    between atoms: C8_9  and  C9_10
REMARK    7  A    between atoms: C9_10  and  C10_11
REMARK    8  A    between atoms: C10_11  and  C11_12
REMARK    9  A    between atoms: C10_11  and  O4_20
REMARK   10  A    between atoms: C11_12  and  C12_13
REMARK   11  A    between atoms: C12_13  and  C13_15
REMARK   12  A    between atoms: C12_13  and  O3_19
REMARK   13  A    between atoms: C13_15  and  C14_16
REMARK                            x       y       z     vdW  Elec       q    Type
REMARK                         _______ _______ _______ _____ _____    ______ ____
ROOT
ATOM      1  C4  <0> A   1     -14.316   6.624  45.292  0.00  0.00    +0.089 C 
ATOM      2  C5  <0> A   1     -15.248   6.954  46.211  0.00  0.00    -0.144 C 
ATOM      3  C6  <0> A   1     -15.018   8.286  46.596  0.00  0.00    -0.126 C 
ATOM      4  C7  <0> A   1     -13.940   8.731  45.890  0.00  0.00    +0.099 C 
ATOM      5  N1  <0> A   1     -13.505   7.703  45.091  0.00  0.00    -0.417 N 
ATOM      6 Br1  <0> A   1     -16.018   9.278  47.857  0.00  0.00    -0.015 Br
ATOM      7 Br2  <0> A   1     -16.619   5.826  46.865  0.00  0.00    -0.013 Br
ENDROOT
BRANCH   4   8
ATOM      8  C15 <0> A   1     -13.341  10.081  45.974  0.00  0.00    -0.041 A 
ATOM      9  C16 <0> A   1     -12.352  10.350  46.921  0.00  0.00    +0.056 A 
ATOM     10  C17 <0> A   1     -11.797  11.610  46.994  0.00  0.00    -0.007 A 
ATOM     11  C18 <0> A   1     -12.220  12.609  46.131  0.00  0.00    +0.110 A 
ATOM     12  C19 <0> A   1     -13.202  12.346  45.190  0.00  0.00    -0.007 A 
ATOM     13  C20 <0> A   1     -13.760  11.088  45.103  0.00  0.00    +0.080 A 
ATOM     14  F1  <0> A   1     -11.672  13.841  46.207  0.00  0.00    -0.136 F 
ENDBRANCH   4   8
BRANCH   1  16
ATOM     15  C1  <0> A   1     -14.175   4.176  45.658  0.00  0.00    +0.040 C 
ATOM     16  C2  <0> A   1     -14.188   5.288  44.607  0.00  0.00    +0.053 C 
ATOM     17  C3  <0> A   1     -15.374   5.083  43.663  0.00  0.00    +0.041 C 
ENDBRANCH   1  16
BRANCH   5  18
ATOM     18  C8  <0> A   1     -12.365   7.757  44.174  0.00  0.00    +0.302 C 
BRANCH  18  19
ATOM     19  C9  <0> A   1     -12.837   8.236  42.800  0.00  0.00    -0.014 C 
BRANCH  19  20
ATOM     20  C10 <0> A   1     -11.968   7.603  41.712  0.00  0.00    +0.218 C 
BRANCH  20  21
ATOM     21  O4  <0> A   1     -11.671   6.251  42.067  0.00  0.00    -0.541 OA
ATOM     22  H19 <0> A   1     -11.718   6.074  43.016  0.00  0.00    +0.367 HD
ENDBRANCH  20  21
BRANCH  20  23
ATOM     23  C11 <0> A   1     -12.722   7.627  40.379  0.00  0.00    -0.047 C 
BRANCH  23  24
ATOM     24  C12 <0> A   1     -12.579   9.009  39.739  0.00  0.00    +0.231 C 
BRANCH  24  25
ATOM     25  O3  <0> A   1     -12.203   8.864  38.368  0.00  0.00    -0.528 OA
ATOM     26  H18 <0> A   1     -12.143   9.700  37.886  0.00  0.00    +0.350 HD
ENDBRANCH  24  25
BRANCH  24  27
ATOM     27  C13 <0> A   1     -13.914   9.751  39.826  0.00  0.00    -0.102 C 
BRANCH  27  28
ATOM     28  C14 <0> A   1     -13.664  11.237  39.830  0.00  0.00    +0.491 C 
ATOM     29  O1  <0> A   1     -12.582  11.674  39.475  0.00  0.00    -0.681 OA
ATOM     30  O2  <0> A   1     -14.544  12.002  40.188  0.00  0.00    -0.712 OA
ENDBRANCH  27  28
ENDBRANCH  24  27
ENDBRANCH  23  24
ENDBRANCH  20  23
ENDBRANCH  19  20
ENDBRANCH  18  19
ENDBRANCH   5  18
TORSDOF 11
ENDMDL
MODEL 2
REMARK VINA RESULT:      -7.9      0.494      1.158
REMARK  Name = CHEMBL143143
REMARK  13 active torsions:
REMARK  status: ('A' for Active; 'I' for Inactive)
REMARK    1  A    between atoms: C1_1  and  C2_2
REMARK    2  A    between atoms: C2_2  and  C3_3
REMARK    3  A    between atoms: C2_2  and  C4_4
REMARK    4  A    between atoms: C7_7  and  C15_21
REMARK    5  A    between atoms: N1_8  and  C8_9
REMARK    6  A    between atoms: C8_9  and  C9_10
REMARK    7  A    between atoms: C9_10  and  C10_11
REMARK    8  A    between atoms: C10_11  and  C11_12
REMARK    9  A    between atoms: C10_11  and  O4_20
REMARK   10  A    between atoms: C11_12  and  C12_13
REMARK   11  A    between atoms: C12_13  and  C13_15
REMARK   12  A    between atoms: C12_13  and  O3_19
REMARK   13  A    between atoms: C13_15  and  C14_16
REMARK                            x       y       z     vdW  Elec       q    Type
REMARK                         _______ _______ _______ _____ _____    ______ ____
ROOT
ATOM      1  C4  <0> A   1     -14.589   6.599  45.385  0.00  0.00    +0.089 C 
ATOM      2  C5  <0> A   1     -15.437   6.970  46.368  0.00  0.00    -0.144 C 
ATOM      3  C6  <0> A   1     -15.136   8.298  46.715  0.00  0.00    -0.126 C 
ATOM      4  C7  <0> A   1     -14.101   8.699  45.923  0.00  0.00    +0.099 C 
ATOM      5  N1  <0> A   1     -13.762   7.648  45.109  0.00  0.00    -0.417 N 
ATOM      6 Br1  <0> A   1     -16.005   9.337  48.034  0.00  0.00    -0.015 Br
ATOM      7 Br2  <0> A   1     -16.790   5.896  47.139  0.00  0.00    -0.013 Br
ENDROOT
BRANCH   4   8
ATOM      8  C15 <0> A   1     -13.455  10.029  45.943  0.00  0.00    -0.041 A 
ATOM      9  C16 <0> A   1     -13.909  11.040  45.095  0.00  0.00    +0.056 A 
ATOM     10  C17 <0> A   1     -13.303  12.279  45.119  0.00  0.00    -0.007 A 
ATOM     11  C18 <0> A   1     -12.246  12.521  45.981  0.00  0.00    +0.110 A 
ATOM     12  C19 <0> A   1     -11.791  11.520  46.824  0.00  0.00    -0.007 A 
ATOM     13  C20 <0> A   1     -12.394  10.278  46.814  0.00  0.00    +0.080 A 
ATOM     14  F1  <0> A   1     -11.656  13.736  46.000  0.00  0.00    -0.136 F 
ENDBRANCH   4   8
BRANCH   1  16
ATOM     15  C1  <0> A   1     -14.273   4.167  45.754  0.00  0.00    +0.040 C 
ATOM     16  C2  <0> A   1     -14.556   5.251  44.712  0.00  0.00    +0.053 C 
ATOM     17  C3  <0> A   1     -15.908   4.980  44.048  0.00  0.00    +0.041 C 
ENDBRANCH   1  16
BRANCH   5  18
ATOM     18  C8  <0> A   1     -12.694   7.654  44.107  0.00  0.00    +0.302 C 
BRANCH  18  19
ATOM     19  C9  <0> A   1     -13.291   7.920  42.724  0.00  0.00    -0.014 C 
BRANCH  19  20
ATOM     20  C10 <0> A   1     -12.204   7.763  41.659  0.00  0.00    +0.218 C 
BRANCH  20  21
ATOM     21  O4  <0> A   1     -11.605   6.471  41.778  0.00  0.00    -0.541 OA
ATOM     22  H19 <0> A   1     -12.074   5.873  42.374  0.00  0.00    +0.367 HD
ENDBRANCH  20  21
BRANCH  20  23
ATOM     23  C11 <0> A   1     -12.828   7.911  40.269  0.00  0.00    -0.047 C 
BRANCH  23  24
ATOM     24  C12 <0> A   1     -12.389   9.241  39.654  0.00  0.00    +0.231 C 
BRANCH  24  25
ATOM     25  O3  <0> A   1     -12.813   9.300  38.290  0.00  0.00    -0.528 OA
ATOM     26  H18 <0> A   1     -13.738   9.555  38.177  0.00  0.00    +0.350 HD
ENDBRANCH  24  25
BRANCH  24  27
ATOM     27  C13 <0> A   1     -13.020  10.396  40.434  0.00  0.00    -0.102 C 
BRANCH  27  28
ATOM     28  C14 <0> A   1     -13.813  11.265  39.491  0.00  0.00    +0.491 C 
ATOM     29  O1  <0> A   1     -15.031  11.203  39.484  0.00  0.00    -0.681 OA
ATOM     30  O2  <0> A   1     -13.236  12.029  38.736  0.00  0.00    -0.712 OA
ENDBRANCH  27  28
ENDBRANCH  24  27
ENDBRANCH  23  24
ENDBRANCH  20  23
ENDBRANCH  19  20
ENDBRANCH  18  19
ENDBRANCH   5  18
TORSDOF 11
ENDMDL
MODEL 3
REMARK VINA RESULT:      -7.2      2.502      4.495
REMARK  Name = CHEMBL143143
REMARK  13 active torsions:
REMARK  status: ('A' for Active; 'I' for Inactive)
REMARK    1  A    between atoms: C1_1  and  C2_2
REMARK    2  A    between atoms: C2_2  and  C3_3
REMARK    3  A    between atoms: C2_2  and  C4_4
REMARK    4  A    between atoms: C7_7  and  C15_21
REMARK    5  A    between atoms: N1_8  and  C8_9
REMARK    6  A    between atoms: C8_9  and  C9_10
REMARK    7  A    between atoms: C9_10  and  C10_11
REMARK    8  A    between atoms: C10_11  and  C11_12
REMARK    9  A    between atoms: C10_11  and  O4_20
REMARK   10  A    between atoms: C11_12  and  C12_13
REMARK   11  A    between atoms: C12_13  and  C13_15
REMARK   12  A    between atoms: C12_13  and  O3_19
REMARK   13  A    between atoms: C13_15  and  C14_16
REMARK                            x       y       z     vdW  Elec       q    Type
REMARK                         _______ _______ _______ _____ _____    ______ ____
ROOT
ATOM      1  C4  <0> A   1     -14.832   8.585  47.616  0.00  0.00    +0.089 C 
ATOM      2  C5  <0> A   1     -15.226   7.295  47.562  0.00  0.00    -0.144 C 
ATOM      3  C6  <0> A   1     -14.766   6.757  46.348  0.00  0.00    -0.126 C 
ATOM      4  C7  <0> A   1     -14.098   7.748  45.692  0.00  0.00    +0.099 C 
ATOM      5  N1  <0> A   1     -14.145   8.876  46.473  0.00  0.00    -0.417 N 
ATOM      6 Br1  <0> A   1     -15.024   4.986  45.737  0.00  0.00    -0.015 Br
ATOM      7 Br2  <0> A   1     -16.218   6.376  48.884  0.00  0.00    -0.013 Br
ENDROOT
BRANCH   4   8
ATOM      8  C15 <0> A   1     -13.444   7.630  44.372  0.00  0.00    -0.041 A 
ATOM      9  C16 <0> A   1     -14.209   7.376  43.232  0.00  0.00    +0.056 A 
ATOM     10  C17 <0> A   1     -13.593   7.268  42.003  0.00  0.00    -0.007 A 
ATOM     11  C18 <0> A   1     -12.219   7.411  41.897  0.00  0.00    +0.110 A 
ATOM     12  C19 <0> A   1     -11.455   7.663  43.025  0.00  0.00    -0.007 A 
ATOM     13  C20 <0> A   1     -12.061   7.779  44.260  0.00  0.00    +0.080 A 
ATOM     14  F1  <0> A   1     -11.621   7.304  40.690  0.00  0.00    -0.136 F 
ENDBRANCH   4   8
BRANCH   1  16
ATOM     15  C1  <0> A   1     -13.833  10.321  49.078  0.00  0.00    +0.040 C 
ATOM     16  C2  <0> A   1     -15.109   9.545  48.744  0.00  0.00    +0.053 C 
ATOM     17  C3  <0> A   1     -16.206  10.524  48.322  0.00  0.00    +0.041 C 
ENDBRANCH   1  16
BRANCH   5  18
ATOM     18  C8  <0> A   1     -13.554  10.172  46.137  0.00  0.00    +0.302 C 
BRANCH  18  19
ATOM     19  C9  <0> A   1     -14.487  10.930  45.191  0.00  0.00    -0.014 C 
BRANCH  19  20
ATOM     20  C10 <0> A   1     -13.672  11.538  44.048  0.00  0.00    +0.218 C 
BRANCH  20  21
ATOM     21  O4  <0> A   1     -12.284  11.281  44.264  0.00  0.00    -0.541 OA
ATOM     22  H19 <0> A   1     -11.835  10.880  43.508  0.00  0.00    +0.367 HD
ENDBRANCH  20  21
BRANCH  20  23
ATOM     23  C11 <0> A   1     -14.107  10.909  42.721  0.00  0.00    -0.047 C 
BRANCH  23  24
ATOM     24  C12 <0> A   1     -13.242  11.464  41.588  0.00  0.00    +0.231 C 
BRANCH  24  25
ATOM     25  O3  <0> A   1     -11.968  10.817  41.598  0.00  0.00    -0.528 OA
ATOM     26  H18 <0> A   1     -11.375  11.128  42.296  0.00  0.00    +0.350 HD
ENDBRANCH  24  25
BRANCH  24  27
ATOM     27  C13 <0> A   1     -13.934  11.207  40.247  0.00  0.00    -0.102 C 
BRANCH  27  28
ATOM     28  C14 <0> A   1     -12.894  11.066  39.165  0.00  0.00    +0.491 C 
ATOM     29  O1  <0> A   1     -12.580   9.959  38.761  0.00  0.00    -0.681 OA
ATOM     30  O2  <0> A   1     -12.368  12.060  38.692  0.00  0.00    -0.712 OA
ENDBRANCH  27  28
ENDBRANCH  24  27
ENDBRANCH  23  24
ENDBRANCH  20  23
ENDBRANCH  19  20
ENDBRANCH  18  19
ENDBRANCH   5  18
TORSDOF 11
ENDMDL
MODEL 4
REMARK VINA RESULT:      -7.1      2.594      4.892
REMARK  Name = CHEMBL143143
REMARK  13 active torsions:
REMARK  status: ('A' for Active; 'I' for Inactive)
REMARK    1  A    between atoms: C1_1  and  C2_2
REMARK    2  A    between atoms: C2_2  and  C3_3
REMARK    3  A    between atoms: C2_2  and  C4_4
REMARK    4  A    between atoms: C7_7  and  C15_21
REMARK    5  A    between atoms: N1_8  and  C8_9
REMARK    6  A    between atoms: C8_9  and  C9_10
REMARK    7  A    between atoms: C9_10  and  C10_11
REMARK    8  A    between atoms: C10_11  and  C11_12
REMARK    9  A    between atoms: C10_11  and  O4_20
REMARK   10  A    between atoms: C11_12  and  C12_13
REMARK   11  A    between atoms: C12_13  and  C13_15
REMARK   12  A    between atoms: C12_13  and  O3_19
REMARK   13  A    between atoms: C13_15  and  C14_16
REMARK                            x       y       z     vdW  Elec       q    Type
REMARK                         _______ _______ _______ _____ _____    ______ ____
ROOT
ATOM      1  C4  <0> A   1     -12.826   9.771  46.292  0.00  0.00    +0.089 C 
ATOM      2  C5  <0> A   1     -13.197   9.448  47.549  0.00  0.00    -0.144 C 
ATOM      3  C6  <0> A   1     -13.947   8.262  47.483  0.00  0.00    -0.126 C 
ATOM      4  C7  <0> A   1     -14.009   7.894  46.171  0.00  0.00    +0.099 C 
ATOM      5  N1  <0> A   1     -13.323   8.830  45.438  0.00  0.00    -0.417 N 
ATOM      6 Br1  <0> A   1     -14.724   7.343  48.941  0.00  0.00    -0.015 Br
ATOM      7 Br2  <0> A   1     -12.782  10.418  49.119  0.00  0.00    -0.013 Br
ENDROOT
BRANCH   4   8
ATOM      8  C15 <0> A   1     -14.700   6.703  45.633  0.00  0.00    -0.041 A 
ATOM      9  C16 <0> A   1     -13.963   5.584  45.243  0.00  0.00    +0.056 A 
ATOM     10  C17 <0> A   1     -14.613   4.474  44.743  0.00  0.00    -0.007 A 
ATOM     11  C18 <0> A   1     -15.994   4.470  44.626  0.00  0.00    +0.110 A 
ATOM     12  C19 <0> A   1     -16.729   5.579  45.012  0.00  0.00    -0.007 A 
ATOM     13  C20 <0> A   1     -16.091   6.692  45.519  0.00  0.00    +0.080 A 
ATOM     14  F1  <0> A   1     -16.625   3.381  44.136  0.00  0.00    -0.136 F 
ENDBRANCH   4   8
BRANCH   1  16
ATOM     15  C1  <0> A   1     -12.685  12.244  46.409  0.00  0.00    +0.040 C 
ATOM     16  C2  <0> A   1     -12.006  10.973  45.896  0.00  0.00    +0.053 C 
ATOM     17  C3  <0> A   1     -10.608  10.859  46.506  0.00  0.00    +0.041 C 
ENDBRANCH   1  16
BRANCH   5  18
ATOM     18  C8  <0> A   1     -13.150   8.817  43.985  0.00  0.00    +0.302 C 
BRANCH  18  19
ATOM     19  C9  <0> A   1     -11.798   8.189  43.637  0.00  0.00    -0.014 C 
BRANCH  19  20
ATOM     20  C10 <0> A   1     -11.809   7.730  42.178  0.00  0.00    +0.218 C 
BRANCH  20  21
ATOM     21  O4  <0> A   1     -11.789   6.302  42.127  0.00  0.00    -0.541 OA
ATOM     22  H19 <0> A   1     -11.033   5.936  41.650  0.00  0.00    +0.367 HD
ENDBRANCH  20  21
BRANCH  20  23
ATOM     23  C11 <0> A   1     -13.074   8.247  41.490  0.00  0.00    -0.047 C 
BRANCH  23  24
ATOM     24  C12 <0> A   1     -12.688   9.251  40.401  0.00  0.00    +0.231 C 
BRANCH  24  25
ATOM     25  O3  <0> A   1     -13.348   8.909  39.181  0.00  0.00    -0.528 OA
ATOM     26  H18 <0> A   1     -12.963   8.149  38.724  0.00  0.00    +0.350 HD
ENDBRANCH  24  25
BRANCH  24  27
ATOM     27  C13 <0> A   1     -13.108  10.657  40.832  0.00  0.00    -0.102 C 
BRANCH  27  28
ATOM     28  C14 <0> A   1     -13.882  11.314  39.718  0.00  0.00    +0.491 C 
ATOM     29  O1  <0> A   1     -13.294  11.956  38.863  0.00  0.00    -0.681 OA
ATOM     30  O2  <0> A   1     -15.095  11.202  39.669  0.00  0.00    -0.712 OA
ENDBRANCH  27  28
ENDBRANCH  24  27
ENDBRANCH  23  24
ENDBRANCH  20  23
ENDBRANCH  19  20
ENDBRANCH  18  19
ENDBRANCH   5  18
TORSDOF 11
ENDMDL
MODEL 5
REMARK VINA RESULT:      -6.9     22.810     23.907
REMARK  Name = CHEMBL143143
REMARK  13 active torsions:
REMARK  status: ('A' for Active; 'I' for Inactive)
REMARK    1  A    between atoms: C1_1  and  C2_2
REMARK    2  A    between atoms: C2_2  and  C3_3
REMARK    3  A    between atoms: C2_2  and  C4_4
REMARK    4  A    between atoms: C7_7  and  C15_21
REMARK    5  A    between atoms: N1_8  and  C8_9
REMARK    6  A    between atoms: C8_9  and  C9_10
REMARK    7  A    between atoms: C9_10  and  C10_11
REMARK    8  A    between atoms: C10_11  and  C11_12
REMARK    9  A    between atoms: C10_11  and  O4_20
REMARK   10  A    between atoms: C11_12  and  C12_13
REMARK   11  A    between atoms: C12_13  and  C13_15
REMARK   12  A    between atoms: C12_13  and  O3_19
REMARK   13  A    between atoms: C13_15  and  C14_16
REMARK                            x       y       z     vdW  Elec       q    Type
REMARK                         _______ _______ _______ _____ _____    ______ ____
ROOT
ATOM      1  C4  <0> A   1     -31.604  22.359  36.554  0.00  0.00    +0.089 C 
ATOM      2  C5  <0> A   1     -31.219  23.390  37.336  0.00  0.00    -0.144 C 
ATOM      3  C6  <0> A   1     -30.078  23.967  36.753  0.00  0.00    -0.126 C 
ATOM      4  C7  <0> A   1     -29.800  23.262  35.620  0.00  0.00    +0.099 C 
ATOM      5  N1  <0> A   1     -30.739  22.267  35.503  0.00  0.00    -0.417 N 
ATOM      6 Br1  <0> A   1     -29.108  25.449  37.416  0.00  0.00    -0.015 Br
ATOM      7 Br2  <0> A   1     -32.064  23.956  38.930  0.00  0.00    -0.013 Br
ENDROOT
BRANCH   4   8
ATOM      8  C15 <0> A   1     -28.683  23.519  34.687  0.00  0.00    -0.041 A 
ATOM      9  C16 <0> A   1     -28.931  23.667  33.322  0.00  0.00    +0.056 A 
ATOM     10  C17 <0> A   1     -27.884  23.907  32.456  0.00  0.00    -0.007 A 
ATOM     11  C18 <0> A   1     -26.589  24.001  32.939  0.00  0.00    +0.110 A 
ATOM     12  C19 <0> A   1     -26.338  23.855  34.293  0.00  0.00    -0.007 A 
ATOM     13  C20 <0> A   1     -27.377  23.621  35.170  0.00  0.00    +0.080 A 
ATOM     14  F1  <0> A   1     -25.568  24.237  32.087  0.00  0.00    -0.136 F 
ENDBRANCH   4   8
BRANCH   1  16
ATOM     15  C1  <0> A   1     -32.510  20.581  38.026  0.00  0.00    +0.040 C 
ATOM     16  C2  <0> A   1     -32.786  21.457  36.802  0.00  0.00    +0.053 C 
ATOM     17  C3  <0> A   1     -34.032  22.308  37.054  0.00  0.00    +0.041 C 
ENDBRANCH   1  16
BRANCH   5  18
ATOM     18  C8  <0> A   1     -30.803  21.276  34.427  0.00  0.00    +0.302 C 
BRANCH  18  19
ATOM     19  C9  <0> A   1     -31.911  21.660  33.444  0.00  0.00    -0.014 C 
BRANCH  19  20
ATOM     20  C10 <0> A   1     -32.300  20.438  32.610  0.00  0.00    +0.218 C 
BRANCH  20  21
ATOM     21  O4  <0> A   1     -32.530  20.837  31.258  0.00  0.00    -0.541 OA
ATOM     22  H19 <0> A   1     -31.961  20.395  30.615  0.00  0.00    +0.367 HD
ENDBRANCH  20  21
BRANCH  20  23
ATOM     23  C11 <0> A   1     -31.166  19.410  32.653  0.00  0.00    -0.047 C 
BRANCH  23  24
ATOM     24  C12 <0> A   1     -31.655  18.088  32.057  0.00  0.00    +0.231 C 
BRANCH  24  25
ATOM     25  O3  <0> A   1     -33.014  18.227  31.638  0.00  0.00    -0.528 OA
ATOM     26  H18 <0> A   1     -33.661  18.054  32.337  0.00  0.00    +0.350 HD
ENDBRANCH  24  25
BRANCH  24  27
ATOM     27  C13 <0> A   1     -30.786  17.720  30.852  0.00  0.00    -0.102 C 
BRANCH  27  28
ATOM     28  C14 <0> A   1     -31.601  17.840  29.590  0.00  0.00    +0.491 C 
ATOM     29  O1  <0> A   1     -31.774  18.933  29.078  0.00  0.00    -0.681 OA
ATOM     30  O2  <0> A   1     -32.085  16.843  29.080  0.00  0.00    -0.712 OA
ENDBRANCH  27  28
ENDBRANCH  24  27
ENDBRANCH  23  24
ENDBRANCH  20  23
ENDBRANCH  19  20
ENDBRANCH  18  19
ENDBRANCH   5  18
TORSDOF 11
ENDMDL
MODEL 6
REMARK VINA RESULT:      -6.9     23.020     24.405
REMARK  Name = CHEMBL143143
REMARK  13 active torsions:
REMARK  status: ('A' for Active; 'I' for Inactive)
REMARK    1  A    between atoms: C1_1  and  C2_2
REMARK    2  A    between atoms: C2_2  and  C3_3
REMARK    3  A    between atoms: C2_2  and  C4_4
REMARK    4  A    between atoms: C7_7  and  C15_21
REMARK    5  A    between atoms: N1_8  and  C8_9
REMARK    6  A    between atoms: C8_9  and  C9_10
REMARK    7  A    between atoms: C9_10  and  C10_11
REMARK    8  A    between atoms: C10_11  and  C11_12
REMARK    9  A    between atoms: C10_11  and  O4_20
REMARK   10  A    between atoms: C11_12  and  C12_13
REMARK   11  A    between atoms: C12_13  and  C13_15
REMARK   12  A    between atoms: C12_13  and  O3_19
REMARK   13  A    between atoms: C13_15  and  C14_16
REMARK                            x       y       z     vdW  Elec       q    Type
REMARK                         _______ _______ _______ _____ _____    ______ ____
ROOT
ATOM      1  C4  <0> A   1       3.881  22.108  32.962  0.00  0.00    +0.089 C 
ATOM      2  C5  <0> A   1       3.212  22.790  33.916  0.00  0.00    -0.144 C 
ATOM      3  C6  <0> A   1       3.650  22.320  35.166  0.00  0.00    -0.126 C 
ATOM      4  C7  <0> A   1       4.584  21.355  34.931  0.00  0.00    +0.099 C 
ATOM      5  N1  <0> A   1       4.720  21.222  33.572  0.00  0.00    -0.417 N 
ATOM      6 Br1  <0> A   1       3.056  22.915  36.860  0.00  0.00    -0.015 Br
ATOM      7 Br2  <0> A   1       1.917  24.137  33.624  0.00  0.00    -0.013 Br
ENDROOT
BRANCH   4   8
ATOM      8  C15 <0> A   1       5.316  20.584  35.959  0.00  0.00    -0.041 A 
ATOM      9  C16 <0> A   1       4.768  19.408  36.473  0.00  0.00    +0.056 A 
ATOM     10  C17 <0> A   1       5.456  18.692  37.431  0.00  0.00    -0.007 A 
ATOM     11  C18 <0> A   1       6.688  19.139  37.883  0.00  0.00    +0.110 A 
ATOM     12  C19 <0> A   1       7.235  20.306  37.375  0.00  0.00    -0.007 A 
ATOM     13  C20 <0> A   1       6.559  21.027  36.412  0.00  0.00    +0.080 A 
ATOM     14  F1  <0> A   1       7.357  18.435  38.821  0.00  0.00    -0.136 F 
ENDBRANCH   4   8
BRANCH   1  16
ATOM     15  C1  <0> A   1       5.100  22.486  30.836  0.00  0.00    +0.040 C 
ATOM     16  C2  <0> A   1       3.723  22.290  31.474  0.00  0.00    +0.053 C 
ATOM     17  C3  <0> A   1       3.056  21.050  30.878  0.00  0.00    +0.041 C 
ENDBRANCH   1  16
BRANCH   5  18
ATOM     18  C8  <0> A   1       5.619  20.288  32.891  0.00  0.00    +0.302 C 
BRANCH  18  19
ATOM     19  C9  <0> A   1       4.933  18.927  32.752  0.00  0.00    -0.014 C 
BRANCH  19  20
ATOM     20  C10 <0> A   1       5.199  18.361  31.357  0.00  0.00    +0.218 C 
BRANCH  20  21
ATOM     21  O4  <0> A   1       6.473  17.713  31.341  0.00  0.00    -0.541 OA
ATOM     22  H19 <0> A   1       7.219  18.316  31.229  0.00  0.00    +0.367 HD
ENDBRANCH  20  21
BRANCH  20  23
ATOM     23  C11 <0> A   1       4.107  17.349  31.000  0.00  0.00    -0.047 C 
BRANCH  23  24
ATOM     24  C12 <0> A   1       3.972  17.261  29.478  0.00  0.00    +0.231 C 
BRANCH  24  25
ATOM     25  O3  <0> A   1       4.707  18.325  28.872  0.00  0.00    -0.528 OA
ATOM     26  H18 <0> A   1       4.250  19.177  28.885  0.00  0.00    +0.350 HD
ENDBRANCH  24  25
BRANCH  24  27
ATOM     27  C13 <0> A   1       4.526  15.919  28.995  0.00  0.00    -0.102 C 
BRANCH  27  28
ATOM     28  C14 <0> A   1       5.640  16.161  28.010  0.00  0.00    +0.491 C 
ATOM     29  O1  <0> A   1       6.747  16.482  28.408  0.00  0.00    -0.681 OA
ATOM     30  O2  <0> A   1       5.435  16.034  26.814  0.00  0.00    -0.712 OA
ENDBRANCH  27  28
ENDBRANCH  24  27
ENDBRANCH  23  24
ENDBRANCH  20  23
ENDBRANCH  19  20
ENDBRANCH  18  19
ENDBRANCH   5  18
TORSDOF 11
ENDMDL
MODEL 7
REMARK VINA RESULT:      -6.9      2.862      5.238
REMARK  Name = CHEMBL143143
REMARK  13 active torsions:
REMARK  status: ('A' for Active; 'I' for Inactive)
REMARK    1  A    between atoms: C1_1  and  C2_2
REMARK    2  A    between atoms: C2_2  and  C3_3
REMARK    3  A    between atoms: C2_2  and  C4_4
REMARK    4  A    between atoms: C7_7  and  C15_21
REMARK    5  A    between atoms: N1_8  and  C8_9
REMARK    6  A    between atoms: C8_9  and  C9_10
REMARK    7  A    between atoms: C9_10  and  C10_11
REMARK    8  A    between atoms: C10_11  and  C11_12
REMARK    9  A    between atoms: C10_11  and  O4_20
REMARK   10  A    between atoms: C11_12  and  C12_13
REMARK   11  A    between atoms: C12_13  and  C13_15
REMARK   12  A    between atoms: C12_13  and  O3_19
REMARK   13  A    between atoms: C13_15  and  C14_16
REMARK                            x       y       z     vdW  Elec       q    Type
REMARK                         _______ _______ _______ _____ _____    ______ ____
ROOT
ATOM      1  C4  <0> A   1     -13.910  10.137  47.642  0.00  0.00    +0.089 C 
ATOM      2  C5  <0> A   1     -15.202   9.886  47.944  0.00  0.00    -0.144 C 
ATOM      3  C6  <0> A   1     -15.553   8.663  47.348  0.00  0.00    -0.126 C 
ATOM      4  C7  <0> A   1     -14.450   8.201  46.693  0.00  0.00    +0.099 C 
ATOM      5  N1  <0> A   1     -13.441   9.114  46.870  0.00  0.00    -0.417 N 
ATOM      6 Br1  <0> A   1     -17.240   7.814  47.439  0.00  0.00    -0.015 Br
ATOM      7 Br2  <0> A   1     -16.336  10.985  48.985  0.00  0.00    -0.013 Br
ENDROOT
BRANCH   4   8
ATOM      8  C15 <0> A   1     -14.360   6.942  45.923  0.00  0.00    -0.041 A 
ATOM      9  C16 <0> A   1     -14.649   6.934  44.558  0.00  0.00    +0.056 A 
ATOM     10  C17 <0> A   1     -14.562   5.757  43.844  0.00  0.00    -0.007 A 
ATOM     11  C18 <0> A   1     -14.190   4.583  44.480  0.00  0.00    +0.110 A 
ATOM     12  C19 <0> A   1     -13.903   4.586  45.835  0.00  0.00    -0.007 A 
ATOM     13  C20 <0> A   1     -13.980   5.759  46.558  0.00  0.00    +0.080 A 
ATOM     14  F1  <0> A   1     -14.106   3.433  43.777  0.00  0.00    -0.136 F 
ENDBRANCH   4   8
BRANCH   1  16
ATOM     15  C1  <0> A   1     -13.842  12.615  47.620  0.00  0.00    +0.040 C 
ATOM     16  C2  <0> A   1     -13.121  11.345  48.076  0.00  0.00    +0.053 C 
ATOM     17  C3  <0> A   1     -12.994  11.349  49.600  0.00  0.00    +0.041 C 
ENDBRANCH   1  16
BRANCH   5  18
ATOM     18  C8  <0> A   1     -12.086   9.005  46.326  0.00  0.00    +0.302 C 
BRANCH  18  19
ATOM     19  C9  <0> A   1     -12.109   9.329  44.830  0.00  0.00    -0.014 C 
BRANCH  19  20
ATOM     20  C10 <0> A   1     -13.053  10.505  44.577  0.00  0.00    +0.218 C 
BRANCH  20  21
ATOM     21  O4  <0> A   1     -12.297  11.716  44.505  0.00  0.00    -0.541 OA
ATOM     22  H19 <0> A   1     -12.696  12.396  43.946  0.00  0.00    +0.367 HD
ENDBRANCH  20  21
BRANCH  20  23
ATOM     23  C11 <0> A   1     -13.796  10.288  43.256  0.00  0.00    -0.047 C 
BRANCH  23  24
ATOM     24  C12 <0> A   1     -13.389  11.375  42.259  0.00  0.00    +0.231 C 
BRANCH  24  25
ATOM     25  O3  <0> A   1     -12.147  11.022  41.648  0.00  0.00    -0.528 OA
ATOM     26  H18 <0> A   1     -11.961  11.501  40.829  0.00  0.00    +0.350 HD
ENDBRANCH  24  25
BRANCH  24  27
ATOM     27  C13 <0> A   1     -14.467  11.506  41.181  0.00  0.00    -0.102 C 
BRANCH  27  28
ATOM     28  C14 <0> A   1     -13.921  11.023  39.862  0.00  0.00    +0.491 C 
ATOM     29  O1  <0> A   1     -13.749   9.831  39.673  0.00  0.00    -0.681 OA
ATOM     30  O2  <0> A   1     -13.651  11.825  38.984  0.00  0.00    -0.712 OA
ENDBRANCH  27  28
ENDBRANCH  24  27
ENDBRANCH  23  24
ENDBRANCH  20  23
ENDBRANCH  19  20
ENDBRANCH  18  19
ENDBRANCH   5  18
TORSDOF 11
ENDMDL
MODEL 8
REMARK VINA RESULT:      -6.8     21.944     23.194
REMARK  Name = CHEMBL143143
REMARK  13 active torsions:
REMARK  status: ('A' for Active; 'I' for Inactive)
REMARK    1  A    between atoms: C1_1  and  C2_2
REMARK    2  A    between atoms: C2_2  and  C3_3
REMARK    3  A    between atoms: C2_2  and  C4_4
REMARK    4  A    between atoms: C7_7  and  C15_21
REMARK    5  A    between atoms: N1_8  and  C8_9
REMARK    6  A    between atoms: C8_9  and  C9_10
REMARK    7  A    between atoms: C9_10  and  C10_11
REMARK    8  A    between atoms: C10_11  and  C11_12
REMARK    9  A    between atoms: C10_11  and  O4_20
REMARK   10  A    between atoms: C11_12  and  C12_13
REMARK   11  A    between atoms: C12_13  and  C13_15
REMARK   12  A    between atoms: C12_13  and  O3_19
REMARK   13  A    between atoms: C13_15  and  C14_16
REMARK                            x       y       z     vdW  Elec       q    Type
REMARK                         _______ _______ _______ _____ _____    ______ ____
ROOT
ATOM      1  C4  <0> A   1     -31.866  21.148  34.647  0.00  0.00    +0.089 C 
ATOM      2  C5  <0> A   1     -32.778  20.445  35.353  0.00  0.00    -0.144 C 
ATOM      3  C6  <0> A   1     -32.744  20.909  36.678  0.00  0.00    -0.126 C 
ATOM      4  C7  <0> A   1     -31.801  21.892  36.740  0.00  0.00    +0.099 C 
ATOM      5  N1  <0> A   1     -31.257  22.033  35.488  0.00  0.00    -0.417 N 
ATOM      6 Br1  <0> A   1     -33.809  20.287  38.112  0.00  0.00    -0.015 Br
ATOM      7 Br2  <0> A   1     -33.901  19.082  34.677  0.00  0.00    -0.013 Br
ENDROOT
BRANCH   4   8
ATOM      8  C15 <0> A   1     -31.427  22.664  37.944  0.00  0.00    -0.041 A 
ATOM      9  C16 <0> A   1     -30.416  22.201  38.787  0.00  0.00    +0.056 A 
ATOM     10  C17 <0> A   1     -30.071  22.926  39.909  0.00  0.00    -0.007 A 
ATOM     11  C18 <0> A   1     -30.725  24.112  40.199  0.00  0.00    +0.110 A 
ATOM     12  C19 <0> A   1     -31.729  24.577  39.366  0.00  0.00    -0.007 A 
ATOM     13  C20 <0> A   1     -32.079  23.863  38.238  0.00  0.00    +0.080 A 
ATOM     14  F1  <0> A   1     -30.383  24.819  41.298  0.00  0.00    -0.136 F 
ENDBRANCH   4   8
BRANCH   1  16
ATOM     15  C1  <0> A   1     -31.152  19.532  32.908  0.00  0.00    +0.040 C 
ATOM     16  C2  <0> A   1     -31.566  20.980  33.180  0.00  0.00    +0.053 C 
ATOM     17  C3  <0> A   1     -32.814  21.316  32.363  0.00  0.00    +0.041 C 
ENDBRANCH   1  16
BRANCH   5  18
ATOM     18  C8  <0> A   1     -30.202  22.979  35.117  0.00  0.00    +0.302 C 
BRANCH  18  19
ATOM     19  C9  <0> A   1     -28.896  22.586  35.811  0.00  0.00    -0.014 C 
BRANCH  19  20
ATOM     20  C10 <0> A   1     -27.927  23.769  35.782  0.00  0.00    +0.218 C 
BRANCH  20  21
ATOM     21  O4  <0> A   1     -27.652  24.192  37.119  0.00  0.00    -0.541 OA
ATOM     22  H19 <0> A   1     -27.142  25.011  37.175  0.00  0.00    +0.367 HD
ENDBRANCH  20  21
BRANCH  20  23
ATOM     23  C11 <0> A   1     -26.622  23.343  35.103  0.00  0.00    -0.047 C 
BRANCH  23  24
ATOM     24  C12 <0> A   1     -26.186  24.426  34.115  0.00  0.00    +0.231 C 
BRANCH  24  25
ATOM     25  O3  <0> A   1     -24.792  24.691  34.282  0.00  0.00    -0.528 OA
ATOM     26  H18 <0> A   1     -24.560  25.628  34.220  0.00  0.00    +0.350 HD
ENDBRANCH  24  25
BRANCH  24  27
ATOM     27  C13 <0> A   1     -26.445  23.945  32.685  0.00  0.00    -0.102 C 
BRANCH  27  28
ATOM     28  C14 <0> A   1     -25.383  24.497  31.770  0.00  0.00    +0.491 C 
ATOM     29  O1  <0> A   1     -25.306  25.699  31.579  0.00  0.00    -0.681 OA
ATOM     30  O2  <0> A   1     -24.600  23.742  31.219  0.00  0.00    -0.712 OA
ENDBRANCH  27  28
ENDBRANCH  24  27
ENDBRANCH  23  24
ENDBRANCH  20  23
ENDBRANCH  19  20
ENDBRANCH  18  19
ENDBRANCH   5  18
TORSDOF 11
ENDMDL
MODEL 9
REMARK VINA RESULT:      -6.8     17.498     19.827
REMARK  Name = CHEMBL143143
REMARK  13 active torsions:
REMARK  status: ('A' for Active; 'I' for Inactive)
REMARK    1  A    between atoms: C1_1  and  C2_2
REMARK    2  A    between atoms: C2_2  and  C3_3
REMARK    3  A    between atoms: C2_2  and  C4_4
REMARK    4  A    between atoms: C7_7  and  C15_21
REMARK    5  A    between atoms: N1_8  and  C8_9
REMARK    6  A    between atoms: C8_9  and  C9_10
REMARK    7  A    between atoms: C9_10  and  C10_11
REMARK    8  A    between atoms: C10_11  and  C11_12
REMARK    9  A    between atoms: C10_11  and  O4_20
REMARK   10  A    between atoms: C11_12  and  C12_13
REMARK   11  A    between atoms: C12_13  and  C13_15
REMARK   12  A    between atoms: C12_13  and  O3_19
REMARK   13  A    between atoms: C13_15  and  C14_16
REMARK                            x       y       z     vdW  Elec       q    Type
REMARK                         _______ _______ _______ _____ _____    ______ ____
ROOT
ATOM      1  C4  <0> A   1     -26.021  -2.808  50.930  0.00  0.00    +0.089 C 
ATOM      2  C5  <0> A   1     -27.225  -3.417  50.905  0.00  0.00    -0.144 C 
ATOM      3  C6  <0> A   1     -27.004  -4.802  50.832  0.00  0.00    -0.126 C 
ATOM      4  C7  <0> A   1     -25.655  -4.997  50.815  0.00  0.00    +0.099 C 
ATOM      5  N1  <0> A   1     -25.051  -3.766  50.869  0.00  0.00    -0.417 N 
ATOM      6 Br1  <0> A   1     -28.331  -6.149  50.771  0.00  0.00    -0.015 Br
ATOM      7 Br2  <0> A   1     -28.910  -2.559  50.959  0.00  0.00    -0.013 Br
ENDROOT
BRANCH   4   8
ATOM      8  C15 <0> A   1     -24.965  -6.303  50.745  0.00  0.00    -0.041 A 
ATOM      9  C16 <0> A   1     -24.757  -6.919  49.510  0.00  0.00    +0.056 A 
ATOM     10  C17 <0> A   1     -24.111  -8.137  49.451  0.00  0.00    -0.007 A 
ATOM     11  C18 <0> A   1     -23.671  -8.749  50.613  0.00  0.00    +0.110 A 
ATOM     12  C19 <0> A   1     -23.875  -8.141  51.841  0.00  0.00    -0.007 A 
ATOM     13  C20 <0> A   1     -24.514  -6.920  51.913  0.00  0.00    +0.080 A 
ATOM     14  F1  <0> A   1     -23.039  -9.941  50.550  0.00  0.00    -0.136 F 
ENDBRANCH   4   8
BRANCH   1  16
ATOM     15  C1  <0> A   1     -26.485  -0.635  49.830  0.00  0.00    +0.040 C 
ATOM     16  C2  <0> A   1     -25.786  -1.322  51.005  0.00  0.00    +0.053 C 
ATOM     17  C3  <0> A   1     -26.350  -0.782  52.321  0.00  0.00    +0.041 C 
ENDBRANCH   1  16
BRANCH   5  18
ATOM     18  C8  <0> A   1     -23.607  -3.522  50.867  0.00  0.00    +0.302 C 
BRANCH  18  19
ATOM     19  C9  <0> A   1     -23.171  -3.022  52.246  0.00  0.00    -0.014 C 
BRANCH  19  20
ATOM     20  C10 <0> A   1     -21.710  -3.404  52.489  0.00  0.00    +0.218 C 
BRANCH  20  21
ATOM     21  O4  <0> A   1     -21.008  -3.416  51.245  0.00  0.00    -0.541 OA
ATOM     22  H19 <0> A   1     -21.342  -4.064  50.611  0.00  0.00    +0.367 HD
ENDBRANCH  20  21
BRANCH  20  23
ATOM     23  C11 <0> A   1     -21.066  -2.381  53.429  0.00  0.00    -0.047 C 
BRANCH  23  24
ATOM     24  C12 <0> A   1     -20.145  -3.104  54.414  0.00  0.00    +0.231 C 
BRANCH  24  25
ATOM     25  O3  <0> A   1     -20.702  -4.379  54.739  0.00  0.00    -0.528 OA
ATOM     26  H18 <0> A   1     -21.620  -4.342  55.041  0.00  0.00    +0.350 HD
ENDBRANCH  24  25
BRANCH  24  27
ATOM     27  C13 <0> A   1     -18.768  -3.297  53.777  0.00  0.00    -0.102 C 
BRANCH  27  28
ATOM     28  C14 <0> A   1     -18.277  -4.694  54.055  0.00  0.00    +0.491 C 
ATOM     29  O1  <0> A   1     -17.695  -4.940  55.098  0.00  0.00    -0.681 OA
ATOM     30  O2  <0> A   1     -18.462  -5.580  53.237  0.00  0.00    -0.712 OA
ENDBRANCH  27  28
ENDBRANCH  24  27
ENDBRANCH  23  24
ENDBRANCH  20  23
ENDBRANCH  19  20
ENDBRANCH  18  19
ENDBRANCH   5  18
TORSDOF 11
ENDMDL
MODEL 10
REMARK VINA RESULT:      -6.7     17.106     19.354
REMARK  Name = CHEMBL143143
REMARK  13 active torsions:
REMARK  status: ('A' for Active; 'I' for Inactive)
REMARK    1  A    between atoms: C1_1  and  C2_2
REMARK    2  A    between atoms: C2_2  and  C3_3
REMARK    3  A    between atoms: C2_2  and  C4_4
REMARK    4  A    between atoms: C7_7  and  C15_21
REMARK    5  A    between atoms: N1_8  and  C8_9
REMARK    6  A    between atoms: C8_9  and  C9_10
REMARK    7  A    between atoms: C9_10  and  C10_11
REMARK    8  A    between atoms: C10_11  and  C11_12
REMARK    9  A    between atoms: C10_11  and  O4_20
REMARK   10  A    between atoms: C11_12  and  C12_13
REMARK   11  A    between atoms: C12_13  and  C13_15
REMARK   12  A    between atoms: C12_13  and  O3_19
REMARK   13  A    between atoms: C13_15  and  C14_16
REMARK                            x       y       z     vdW  Elec       q    Type
REMARK                         _______ _______ _______ _____ _____    ______ ____
ROOT
ATOM      1  C4  <0> A   1     -26.458  -2.237  51.114  0.00  0.00    +0.089 C 
ATOM      2  C5  <0> A   1     -26.161  -0.925  50.994  0.00  0.00    -0.144 C 
ATOM      3  C6  <0> A   1     -24.831  -0.747  51.409  0.00  0.00    -0.126 C 
ATOM      4  C7  <0> A   1     -24.352  -1.971  51.773  0.00  0.00    +0.099 C 
ATOM      5  N1  <0> A   1     -25.359  -2.886  51.597  0.00  0.00    -0.417 N 
ATOM      6 Br1  <0> A   1     -23.878   0.886  51.453  0.00  0.00    -0.015 Br
ATOM      7 Br2  <0> A   1     -27.327   0.430  50.377  0.00  0.00    -0.013 Br
ENDROOT
BRANCH   4   8
ATOM      8  C15 <0> A   1     -22.992  -2.259  52.275  0.00  0.00    -0.041 A 
ATOM      9  C16 <0> A   1     -22.013  -2.742  51.406  0.00  0.00    +0.056 A 
ATOM     10  C17 <0> A   1     -20.745  -3.008  51.880  0.00  0.00    -0.007 A 
ATOM     11  C18 <0> A   1     -20.443  -2.798  53.216  0.00  0.00    +0.110 A 
ATOM     12  C19 <0> A   1     -21.411  -2.319  54.083  0.00  0.00    -0.007 A 
ATOM     13  C20 <0> A   1     -22.681  -2.043  53.619  0.00  0.00    +0.080 A 
ATOM     14  F1  <0> A   1     -19.200  -3.060  53.675  0.00  0.00    -0.136 F 
ENDBRANCH   4   8
BRANCH   1  16
ATOM     15  C1  <0> A   1     -28.916  -2.034  51.365  0.00  0.00    +0.040 C 
ATOM     16  C2  <0> A   1     -27.781  -2.876  50.779  0.00  0.00    +0.053 C 
ATOM     17  C3  <0> A   1     -27.938  -2.956  49.259  0.00  0.00    +0.041 C 
ENDBRANCH   1  16
BRANCH   5  18
ATOM     18  C8  <0> A   1     -25.267  -4.321  51.875  0.00  0.00    +0.302 C 
BRANCH  18  19
ATOM     19  C9  <0> A   1     -24.571  -5.024  50.707  0.00  0.00    -0.014 C 
BRANCH  19  20
ATOM     20  C10 <0> A   1     -25.284  -6.344  50.408  0.00  0.00    +0.218 C 
BRANCH  20  21
ATOM     21  O4  <0> A   1     -25.759  -6.334  49.061  0.00  0.00    -0.541 OA
ATOM     22  H19 <0> A   1     -25.519  -7.120  48.553  0.00  0.00    +0.367 HD
ENDBRANCH  20  21
BRANCH  20  23
ATOM     23  C11 <0> A   1     -24.305  -7.506  50.595  0.00  0.00    -0.047 C 
BRANCH  23  24
ATOM     24  C12 <0> A   1     -24.258  -8.343  49.315  0.00  0.00    +0.231 C 
BRANCH  24  25
ATOM     25  O3  <0> A   1     -23.262  -7.815  48.436  0.00  0.00    -0.528 OA
ATOM     26  H18 <0> A   1     -22.542  -7.354  48.889  0.00  0.00    +0.350 HD
ENDBRANCH  24  25
BRANCH  24  27
ATOM     27  C13 <0> A   1     -23.912  -9.791  49.666  0.00  0.00    -0.102 C 
BRANCH  27  28
ATOM     28  C14 <0> A   1     -24.579 -10.719  48.684  0.00  0.00    +0.491 C 
ATOM     29  O1  <0> A   1     -24.708 -10.383  47.518  0.00  0.00    -0.681 OA
ATOM     30  O2  <0> A   1     -24.989 -11.807  49.054  0.00  0.00    -0.712 OA
ENDBRANCH  27  28
ENDBRANCH  24  27
ENDBRANCH  23  24
ENDBRANCH  20  23
ENDBRANCH  19  20
ENDBRANCH  18  19
ENDBRANCH   5  18
TORSDOF 11
ENDMDL
