REMARK VINA RESULT:      -6.7      2.310      3.876
REMARK  Name = CHEMBL39312
REMARK  12 active torsions:
REMARK  status: ('A' for Active; 'I' for Inactive)
REMARK    1  A    between atoms: C4_4  and  C7_7
REMARK    2  A    between atoms: C7_7  and  O1_8
REMARK    3  A    between atoms: O1_8  and  C8_9
REMARK    4  A    between atoms: C13_14  and  C14_15
REMARK    5  A    between atoms: C14_15  and  C15_16
REMARK    6  A    between atoms: C15_16  and  C16_17
REMARK    7  A    between atoms: C16_17  and  C17_19
REMARK    8  A    between atoms: C16_17  and  O5_27
REMARK    9  A    between atoms: C17_19  and  C18_20
REMARK   10  A    between atoms: C18_20  and  C19_22
REMARK   11  A    between atoms: C18_20  and  O4_26
REMARK   12  A    between atoms: C19_22  and  C20_23
REMARK                            x       y       z     vdW  Elec       q    Type
REMARK                         _______ _______ _______ _____ _____    ______ ____
ROOT
ATOM      1  C8  <0> A   1     -14.348   8.811  46.846  0.00  0.00    +0.159 A 
ATOM      2  C9  <0> A   1     -15.222   7.801  47.221  0.00  0.00    -0.056 A 
ATOM      3  C10 <0> A   1     -16.330   8.097  47.994  0.00  0.00    +0.009 A 
ATOM      4  C11 <0> A   1     -16.567   9.401  48.392  0.00  0.00    +0.006 A 
ATOM      5  C12 <0> A   1     -15.697  10.410  48.019  0.00  0.00    +0.011 A 
ATOM      6  C13 <0> A   1     -14.584  10.117  47.252  0.00  0.00    -0.094 A 
ATOM      7 Cl1  <0> A   1     -15.997  12.044  48.521  0.00  0.00    -0.040 Cl
ATOM      8 Cl2  <0> A   1     -17.423   6.835  48.463  0.00  0.00    -0.057 Cl
ENDROOT
BRANCH   1   9
ATOM      9  O1  <0> A   1     -13.259   8.521  46.087  0.00  0.00    -0.289 OA
BRANCH   9  10
ATOM     10  C7  <0> A   1     -13.206   7.220  45.498  0.00  0.00    +0.246 C 
BRANCH  10  14
ATOM     11  C1  <0> A   1     -12.452   7.588  41.309  0.00  0.00    +0.019 A 
ATOM     12  C2  <0> A   1     -13.727   7.296  41.759  0.00  0.00    +0.003 A 
ATOM     13  C3  <0> A   1     -13.970   7.177  43.115  0.00  0.00    +0.030 A 
ATOM     14  C4  <0> A   1     -12.940   7.348  44.020  0.00  0.00    -0.099 A 
ATOM     15  C5  <0> A   1     -11.665   7.640  43.570  0.00  0.00    +0.031 A 
ATOM     16  C6  <0> A   1     -11.422   7.760  42.215  0.00  0.00    +0.005 A 
ENDBRANCH  10  14
ENDBRANCH   9  10
ENDBRANCH   1   9
BRANCH   6  17
ATOM     17  C14 <0> A   1     -13.633  11.214  46.851  0.00  0.00    +0.097 C 
BRANCH  17  18
ATOM     18  C15 <0> A   1     -14.164  11.919  45.601  0.00  0.00    -0.007 C 
BRANCH  18  19
ATOM     19  C16 <0> A   1     -13.184  11.713  44.445  0.00  0.00    +0.211 C 
BRANCH  19  20
ATOM     20  O5  <0> A   1     -12.072  10.937  44.896  0.00  0.00    -0.540 OA
ATOM     21  H21 <0> A   1     -12.060  10.784  45.850  0.00  0.00    +0.364 HD
ENDBRANCH  19  20
BRANCH  19  22
ATOM     22  C17 <0> A   1     -13.890  10.978  43.303  0.00  0.00    -0.053 C 
BRANCH  22  23
ATOM     23  C18 <0> A   1     -13.312  11.440  41.965  0.00  0.00    +0.230 C 
BRANCH  23  24
ATOM     24  O4  <0> A   1     -11.980  10.941  41.823  0.00  0.00    -0.528 OA
ATOM     25  H20 <0> A   1     -11.777  10.195  42.403  0.00  0.00    +0.349 HD
ENDBRANCH  23  24
BRANCH  23  26
ATOM     26  C19 <0> A   1     -14.181  10.908  40.823  0.00  0.00    -0.103 C 
BRANCH  26  27
ATOM     27  C20 <0> A   1     -13.441  11.053  39.519  0.00  0.00    +0.490 C 
ATOM     28  O2  <0> A   1     -13.622  12.037  38.821  0.00  0.00    -0.681 OA
ATOM     29  O3  <0> A   1     -12.661  10.188  39.161  0.00  0.00    -0.714 OA
ENDBRANCH  26  27
ENDBRANCH  23  26
ENDBRANCH  22  23
ENDBRANCH  19  22
ENDBRANCH  18  19
ENDBRANCH  17  18
ENDBRANCH   6  17
TORSDOF 12
