REMARK VINA RESULT:      -8.8      8.241     11.323
REMARK  Name = CHEMBL355889
REMARK  10 active torsions:
REMARK  status: ('A' for Active; 'I' for Inactive)
REMARK    1  A    between atoms: C1_1  and  C2_2
REMARK    2  A    between atoms: C4_5  and  O4_28
REMARK    3  A    between atoms: C6_8  and  C13_17
REMARK    4  A    between atoms: C7_10  and  C12_16
REMARK    5  A    between atoms: C13_17  and  C14_18
REMARK    6  A    between atoms: C14_18  and  C15_19
REMARK    7  A    between atoms: C17_21  and  O3_27
REMARK    8  A    between atoms: O4_28  and  C20_29
REMARK    9  A    between atoms: C20_29  and  O6_31
REMARK   10  A    between atoms: O6_31  and  C21_32
REMARK                            x       y       z     vdW  Elec       q    Type
REMARK                         _______ _______ _______ _____ _____    ______ ____
ROOT
ATOM      1  C1  <0> A   1     -14.595  11.428  40.519  0.00  0.00    +0.035 C 
ATOM      2  C2  <0> A   1     -13.514  11.022  41.523  0.00  0.00    +0.027 C 
ATOM      3  C3  <0> A   1     -13.720   9.561  41.947  0.00  0.00    +0.023 C 
ATOM      4  C4  <0> A   1     -12.611   9.183  42.927  0.00  0.00    +0.191 C 
ATOM      5  C5  <0> A   1     -12.611  10.073  44.148  0.00  0.00    +0.044 C 
ATOM      6  C6  <0> A   1     -13.307   9.410  45.339  0.00  0.00    +0.012 C 
ATOM      7  C7  <0> A   1     -13.063  10.261  46.586  0.00  0.00    +0.023 C 
ATOM      8  C8  <0> A   1     -13.381  11.704  46.341  0.00  0.00    -0.030 C 
ATOM      9  C9  <0> A   1     -13.454  12.254  45.142  0.00  0.00    -0.005 C 
ATOM     10  C10 <0> A   1     -13.231  11.423  43.937  0.00  0.00    -0.085 C 
ATOM     11  C11 <0> A   1     -13.618  11.878  42.760  0.00  0.00    -0.019 C 
ATOM     12  C12 <0> A   1     -11.593  10.138  46.995  0.00  0.00    +0.030 C 
ENDROOT
BRANCH   6  13
ATOM     13  C13 <0> A   1     -12.735   8.007  45.551  0.00  0.00    +0.060 C 
BRANCH  13  14
ATOM     14  C14 <0> A   1     -13.582   7.261  46.584  0.00  0.00    +0.044 C 
BRANCH  14  15
ATOM     15  C15 <0> A   1     -12.667   6.466  47.517  0.00  0.00    +0.196 C 
ATOM     16  C16 <0> A   1     -12.815   6.992  48.948  0.00  0.00    +0.038 C 
ATOM     17  C17 <0> A   1     -11.867   6.221  49.872  0.00  0.00    +0.182 C 
ATOM     18  C18 <0> A   1     -10.427   6.418  49.380  0.00  0.00    +0.018 C 
ATOM     19  C19 <0> A   1     -10.377   6.074  47.908  0.00  0.00    +0.496 C 
ATOM     20  O1  <0> A   1      -9.529   5.331  47.472  0.00  0.00    -0.454 OA
ATOM     21  O2  <0> A   1     -11.306   6.619  47.097  0.00  0.00    -0.367 OA
BRANCH  17  22
ATOM     22  O3  <0> A   1     -12.199   4.832  49.848  0.00  0.00    -0.562 OA
ATOM     23  H27 <0> A   1     -12.383   4.457  50.720  0.00  0.00    +0.385 HD
ENDBRANCH  17  22
ENDBRANCH  14  15
ENDBRANCH  13  14
ENDBRANCH   6  13
BRANCH   4  24
ATOM     24  O4  <0> A   1     -12.797   7.829  43.341  0.00  0.00    -0.284 OA
BRANCH  24  25
ATOM     25  C20 <0> A   1     -12.933   6.907  42.371  0.00  0.00    +0.582 C 
ATOM     26  O5  <0> A   1     -11.992   6.637  41.653  0.00  0.00    -0.529 OA
BRANCH  25  27
ATOM     27  O6  <0> A   1     -14.112   6.283  42.196  0.00  0.00    -0.266 OA
BRANCH  27  28
ATOM     28  C21 <0> A   1     -14.677   5.671  43.270  0.00  0.00    +0.090 A 
ATOM     29  C22 <0> A   1     -14.021   4.623  43.898  0.00  0.00    +0.023 A 
ATOM     30  C23 <0> A   1     -14.597   4.004  44.990  0.00  0.00    +0.026 A 
ATOM     31  C24 <0> A   1     -15.828   4.428  45.457  0.00  0.00    +0.022 A 
ATOM     32  C25 <0> A   1     -16.484   5.472  44.833  0.00  0.00    +0.028 A 
ATOM     33  C26 <0> A   1     -15.910   6.098  43.744  0.00  0.00    +0.021 A 
ENDBRANCH  27  28
ENDBRANCH  25  27
ENDBRANCH  24  25
ENDBRANCH   4  24
TORSDOF 8
