REMARK VINA RESULT:      -7.4      1.799      5.226
REMARK  Name = CHEMBL83483
REMARK  14 active torsions:
REMARK  status: ('A' for Active; 'I' for Inactive)
REMARK    1  A    between atoms: C1_1  and  C2_2
REMARK    2  A    between atoms: C2_2  and  C3_3
REMARK    3  A    between atoms: C3_3  and  C4_4
REMARK    4  A    between atoms: C3_3  and  C5_5
REMARK    5  A    between atoms: C3_3  and  C6_6
REMARK    6  A    between atoms: C6_6  and  O2_8
REMARK    7  A    between atoms: O2_8  and  C7_9
REMARK    8  A    between atoms: C9_12  and  C24_35
REMARK    9  A    between atoms: C9_12  and  C25_36
REMARK   10  A    between atoms: C12_17  and  C17_24
REMARK   11  A    between atoms: C13_19  and  C16_23
REMARK   12  A    between atoms: C17_24  and  C18_25
REMARK   13  A    between atoms: C18_25  and  C19_26
REMARK   14  A    between atoms: C21_28  and  O6_34
REMARK                            x       y       z     vdW  Elec       q    Type
REMARK                         _______ _______ _______ _____ _____    ______ ____
ROOT
ATOM      1  C7  <0> A   1     -15.462   7.663  46.874  0.00  0.00    +0.187 C 
ATOM      2  C8  <0> A   1     -16.942   8.034  47.088  0.00  0.00    -0.010 C 
ATOM      3  C9  <0> A   1     -17.829   6.797  46.977  0.00  0.00    +0.130 C 
ATOM      4  O3  <0> A   1     -17.521   6.017  45.836  0.00  0.00    -0.370 OA
ATOM      5  C10 <0> A   1     -16.183   5.756  45.472  0.00  0.00    +0.218 C 
ATOM      6  C11 <0> A   1     -15.341   7.042  45.489  0.00  0.00    -0.016 C 
ATOM      7  C12 <0> A   1     -13.939   6.730  45.019  0.00  0.00    -0.002 C 
ATOM      8  C13 <0> A   1     -13.259   5.582  45.745  0.00  0.00    -0.016 C 
ATOM      9  C14 <0> A   1     -14.155   4.352  45.831  0.00  0.00    +0.020 C 
ATOM     10  C15 <0> A   1     -15.533   4.718  46.384  0.00  0.00    -0.013 C 
ATOM     11  C16 <0> A   1     -12.762   5.997  47.126  0.00  0.00    +0.014 C 
ATOM     12  C24 <0> A   1     -19.289   7.281  46.838  0.00  0.00    +0.055 C 
ATOM     13  C25 <0> A   1     -17.742   5.969  48.261  0.00  0.00    +0.016 C 
ENDROOT
BRANCH   1  14
ATOM     14  O2  <0> A   1     -14.697   8.863  46.997  0.00  0.00    -0.333 OA
BRANCH  14  15
ATOM     15  C6  <0> A   1     -14.579   9.386  48.226  0.00  0.00    +0.471 C 
ATOM     16  O1  <0> A   1     -14.178   8.703  49.139  0.00  0.00    -0.507 OA
BRANCH  15  17
ATOM     17  C3  <0> A   1     -14.946  10.827  48.470  0.00  0.00    -0.056 C 
ATOM     18  C4  <0> A   1     -13.709  11.595  48.941  0.00  0.00    +0.057 C 
ATOM     19  C5  <0> A   1     -16.033  10.903  49.545  0.00  0.00    +0.077 C 
BRANCH  17  21
ATOM     20  C1  <0> A   1     -16.704  12.297  47.475  0.00  0.00    +0.023 C 
ATOM     21  C2  <0> A   1     -15.467  11.448  47.173  0.00  0.00    +0.033 C 
ENDBRANCH  17  21
ENDBRANCH  15  17
ENDBRANCH  14  15
ENDBRANCH   1  14
BRANCH   7  22
ATOM     22  C17 <0> A   1     -13.033   7.959  45.003  0.00  0.00    +0.037 C 
BRANCH  22  23
ATOM     23  C18 <0> A   1     -12.360   8.080  43.635  0.00  0.00    +0.044 C 
BRANCH  23  24
ATOM     24  C19 <0> A   1     -12.548   9.499  43.096  0.00  0.00    +0.196 C 
ATOM     25  C20 <0> A   1     -13.834  10.098  43.672  0.00  0.00    +0.037 C 
ATOM     26  C21 <0> A   1     -14.041  11.503  43.099  0.00  0.00    +0.182 C 
ATOM     27  C22 <0> A   1     -14.139  11.407  41.571  0.00  0.00    +0.016 C 
ATOM     28  C23 <0> A   1     -12.941  10.632  41.067  0.00  0.00    +0.495 C 
ATOM     29  O4  <0> A   1     -12.269  11.049  40.153  0.00  0.00    -0.447 OA
ATOM     30  O5  <0> A   1     -12.644   9.460  41.668  0.00  0.00    -0.361 OA
BRANCH  26  31
ATOM     31  O6  <0> A   1     -12.937  12.335  43.459  0.00  0.00    -0.563 OA
ATOM     32  H36 <0> A   1     -12.074  11.908  43.357  0.00  0.00    +0.386 HD
ENDBRANCH  26  31
ENDBRANCH  23  24
ENDBRANCH  22  23
ENDBRANCH   7  22
TORSDOF 8
