REMARK VINA RESULT:      -8.3     21.019     24.605
REMARK  Name = CHEMBL317142
REMARK  15 active torsions:
REMARK  status: ('A' for Active; 'I' for Inactive)
REMARK    1  A    between atoms: C1_1  and  C2_2
REMARK    2  A    between atoms: C2_2  and  C3_3
REMARK    3  A    between atoms: C2_2  and  C4_4
REMARK    4  A    between atoms: C12_12  and  C20_26
REMARK    5  A    between atoms: C13_13  and  O1_14
REMARK    6  A    between atoms: O1_14  and  C14_15
REMARK    7  A    between atoms: C14_15  and  C15_16
REMARK    8  A    between atoms: C15_16  and  C16_17
REMARK    9  A    between atoms: C15_16  and  O5_25
REMARK   10  A    between atoms: C16_17  and  C17_18
REMARK   11  A    between atoms: C17_18  and  C18_20
REMARK   12  A    between atoms: C17_18  and  O4_24
REMARK   13  A    between atoms: C18_20  and  C19_21
REMARK   14  A    between atoms: C20_26  and  C21_27
REMARK   15  A    between atoms: C20_26  and  C27_34
REMARK                            x       y       z     vdW  Elec       q    Type
REMARK                         _______ _______ _______ _____ _____    ______ ____
ROOT
ATOM      1  C4  <0> A   1       5.541  21.221  36.132  0.00  0.00    -0.077 A 
ATOM      2  C5  <0> A   1       5.644  22.246  37.087  0.00  0.00    -0.031 A 
ATOM      3  C6  <0> A   1       6.688  22.263  38.028  0.00  0.00    +0.028 A 
ATOM      4  C7  <0> A   1       6.757  23.272  38.939  0.00  0.00    +0.004 A 
ATOM      5  C8  <0> A   1       5.806  24.291  38.955  0.00  0.00    +0.004 A 
ATOM      6  C9  <0> A   1       4.781  24.308  38.058  0.00  0.00    +0.022 A 
ATOM      7  C10 <0> A   1       4.678  23.283  37.102  0.00  0.00    -0.053 A 
ATOM      8  C11 <0> A   1       3.633  23.267  36.162  0.00  0.00    +0.040 A 
ATOM      9  C12 <0> A   1       3.561  22.261  35.250  0.00  0.00    -0.082 A 
ATOM     10  C13 <0> A   1       4.517  21.240  35.230  0.00  0.00    +0.109 A 
ENDROOT
BRANCH   1  12
ATOM     11  C1  <0> A   1       7.967  20.709  36.134  0.00  0.00    +0.029 C 
ATOM     12  C2  <0> A   1       6.560  20.111  36.100  0.00  0.00    +0.037 C 
ATOM     13  C3  <0> A   1       6.362  19.202  37.315  0.00  0.00    +0.024 C 
ENDBRANCH   1  12
BRANCH  10  14
ATOM     14  O1  <0> A   1       4.423  20.251  34.303  0.00  0.00    -0.317 OA
BRANCH  14  15
ATOM     15  C14 <0> A   1       5.421  20.223  33.281  0.00  0.00    +0.147 C 
BRANCH  15  16
ATOM     16  C15 <0> A   1       4.750  20.051  31.917  0.00  0.00    +0.225 C 
BRANCH  16  17
ATOM     17  O5  <0> A   1       5.334  20.961  30.982  0.00  0.00    -0.530 OA
ATOM     18  H22 <0> A   1       6.170  21.346  31.277  0.00  0.00    +0.363 HD
ENDBRANCH  16  17
BRANCH  16  19
ATOM     19  C16 <0> A   1       4.952  18.615  31.426  0.00  0.00    -0.043 C 
BRANCH  19  20
ATOM     20  C17 <0> A   1       3.919  18.297  30.344  0.00  0.00    +0.235 C 
BRANCH  20  21
ATOM     21  O4  <0> A   1       4.181  19.091  29.185  0.00  0.00    -0.527 OA
ATOM     22  H21 <0> A   1       3.605  19.863  29.099  0.00  0.00    +0.350 HD
ENDBRANCH  20  21
BRANCH  20  23
ATOM     23  C18 <0> A   1       4.006  16.814  29.976  0.00  0.00    -0.101 C 
BRANCH  23  24
ATOM     24  C19 <0> A   1       4.595  16.672  28.597  0.00  0.00    +0.491 C 
ATOM     25  O2  <0> A   1       5.799  16.756  28.437  0.00  0.00    -0.680 OA
ATOM     26  O3  <0> A   1       3.865  16.473  27.641  0.00  0.00    -0.712 OA
ENDBRANCH  23  24
ENDBRANCH  20  23
ENDBRANCH  19  20
ENDBRANCH  16  19
ENDBRANCH  15  16
ENDBRANCH  14  15
ENDBRANCH  10  14
BRANCH   9  27
ATOM     27  C20 <0> A   1       2.440  22.249  34.243  0.00  0.00    +0.144 C 
BRANCH  27  28
ATOM     28  C21 <0> A   1       1.117  22.270  34.965  0.00  0.00    -0.087 A 
ATOM     29  C22 <0> A   1       0.867  23.238  35.919  0.00  0.00    +0.057 A 
ATOM     30  C23 <0> A   1      -0.346  23.258  36.582  0.00  0.00    -0.014 A 
ATOM     31  C24 <0> A   1      -1.309  22.307  36.291  0.00  0.00    +0.097 A 
ATOM     32  C25 <0> A   1      -1.057  21.338  35.335  0.00  0.00    -0.016 A 
ATOM     33  C26 <0> A   1       0.154  21.323  34.670  0.00  0.00    +0.050 A 
ATOM     34  F1  <0> A   1      -2.495  22.326  36.939  0.00  0.00    -0.141 F 
ENDBRANCH  27  28
BRANCH  27  35
ATOM     35  C27 <0> A   1       2.547  23.463  33.356  0.00  0.00    -0.080 A 
ATOM     36  C28 <0> A   1       3.615  23.591  32.488  0.00  0.00    +0.050 A 
ATOM     37  C29 <0> A   1       3.715  24.703  31.674  0.00  0.00    -0.019 A 
ATOM     38  C30 <0> A   1       2.744  25.689  31.727  0.00  0.00    +0.097 A 
ATOM     39  C31 <0> A   1       1.674  25.559  32.597  0.00  0.00    -0.012 A 
ATOM     40  C32 <0> A   1       1.574  24.444  33.407  0.00  0.00    +0.063 A 
ATOM     41  F2  <0> A   1       2.841  26.776  30.931  0.00  0.00    -0.141 F 
ENDBRANCH  27  35
ENDBRANCH   9  27
TORSDOF 13
