MODEL 1
REMARK VINA RESULT:      -8.0      0.000      0.000
REMARK  Name = CHEMBL401949
REMARK  16 active torsions:
REMARK  status: ('A' for Active; 'I' for Inactive)
REMARK    1  A    between atoms: C1_1  and  C2_2
REMARK    2  A    between atoms: C2_2  and  C3_3
REMARK    3  A    between atoms: C2_2  and  C4_4
REMARK    4  A    between atoms: C5_5  and  S1_35
REMARK    5  A    between atoms: C6_6  and  C21_29
REMARK    6  A    between atoms: C7_7  and  C15_22
REMARK    7  A    between atoms: N1_8  and  C8_9
REMARK    8  A    between atoms: C8_9  and  C9_10
REMARK    9  A    between atoms: C9_10  and  C10_11
REMARK   10  A    between atoms: C10_11  and  C11_13
REMARK   11  A    between atoms: C10_11  and  O4_21
REMARK   12  A    between atoms: C11_13  and  C12_14
REMARK   13  A    between atoms: C12_14  and  C13_16
REMARK   14  A    between atoms: C12_14  and  O3_20
REMARK   15  A    between atoms: C13_16  and  C14_17
REMARK   16  A    between atoms: S1_35  and  N2_38
REMARK                            x       y       z     vdW  Elec       q    Type
REMARK                         _______ _______ _______ _____ _____    ______ ____
ROOT
ATOM      1  C4  <0> A   1     -15.068   6.832  45.790  0.00  0.00    +0.174 C 
ATOM      2  C5  <0> A   1     -15.370   7.102  47.075  0.00  0.00    -0.733 C 
ATOM      3  C6  <0> A   1     -14.844   8.380  47.380  0.00  0.00    -0.027 C 
ATOM      4  C7  <0> A   1     -14.227   8.845  46.231  0.00  0.00    +0.063 C 
ATOM      5  N1  <0> A   1     -14.369   7.881  45.267  0.00  0.00    -0.415 N 
ENDROOT
BRANCH   4   6
ATOM      6  C15 <0> A   1     -13.536  10.141  46.074  0.00  0.00    -0.029 A 
ATOM      7  C16 <0> A   1     -12.246  10.313  46.581  0.00  0.00    +0.046 A 
ATOM      8  C17 <0> A   1     -11.606  11.526  46.431  0.00  0.00    -0.007 A 
ATOM      9  C18 <0> A   1     -12.241  12.571  45.780  0.00  0.00    +0.106 A 
ATOM     10  C19 <0> A   1     -13.520  12.406  45.274  0.00  0.00    -0.008 A 
ATOM     11  C20 <0> A   1     -14.168  11.196  45.413  0.00  0.00    +0.075 A 
ATOM     12  F1  <0> A   1     -11.609  13.757  45.636  0.00  0.00    -0.137 F 
ENDBRANCH   4   6
BRANCH   3  13
ATOM     13  C21 <0> A   1     -14.936   9.086  48.680  0.00  0.00    -0.042 A 
ATOM     14  C22 <0> A   1     -13.962   8.884  49.657  0.00  0.00    +0.052 A 
ATOM     15  C23 <0> A   1     -14.053   9.544  50.865  0.00  0.00    +0.004 A 
ATOM     16  C24 <0> A   1     -15.109  10.404  51.109  0.00  0.00    +0.008 A 
ATOM     17  C25 <0> A   1     -16.079  10.608  50.144  0.00  0.00    -0.003 A 
ATOM     18  C26 <0> A   1     -15.996   9.958  48.929  0.00  0.00    +0.020 A 
ENDBRANCH   3  13
BRANCH   1  20
ATOM     19  C1  <0> A   1     -15.964   5.933  43.661  0.00  0.00    +0.045 C 
ATOM     20  C2  <0> A   1     -15.438   5.573  45.051  0.00  0.00    +0.043 C 
ATOM     21  C3  <0> A   1     -14.201   4.681  44.912  0.00  0.00    +0.050 C 
ENDBRANCH   1  20
BRANCH   2  22
ATOM     22  S1  <0> A   1     -16.259   6.054  48.177  0.00  0.00    +2.707 S 
ATOM     23  O5  <0> A   1     -16.574   4.875  47.450  0.00  0.00    -0.953 OA
ATOM     24  O6  <0> A   1     -15.525   6.028  49.393  0.00  0.00    -0.948 OA
BRANCH  22  25
ATOM     25  N2  <0> A   1     -17.700   6.803  48.509  0.00  0.00    -0.998 NA
ATOM     26  C27 <0> A   1     -18.647   7.134  47.433  0.00  0.00    +0.268 C 
ATOM     27  C28 <0> A   1     -20.031   6.603  47.825  0.00  0.00    +0.209 C 
ATOM     28  O7  <0> A   1     -20.363   7.075  49.133  0.00  0.00    -0.376 OA
ATOM     29  C29 <0> A   1     -19.481   6.621  50.162  0.00  0.00    +0.212 C 
ATOM     30  C30 <0> A   1     -18.072   7.148  49.890  0.00  0.00    +0.265 C 
ENDBRANCH  22  25
ENDBRANCH   2  22
BRANCH   5  31
ATOM     31  C8  <0> A   1     -13.856   7.964  43.898  0.00  0.00    +0.296 C 
BRANCH  31  32
ATOM     32  C9  <0> A   1     -12.360   7.641  43.894  0.00  0.00    -0.014 C 
BRANCH  32  33
ATOM     33  C10 <0> A   1     -11.869   7.516  42.450  0.00  0.00    +0.218 C 
BRANCH  33  34
ATOM     34  O4  <0> A   1     -11.596   6.145  42.156  0.00  0.00    -0.541 OA
ATOM     35  H19 <0> A   1     -12.017   5.521  42.764  0.00  0.00    +0.367 HD
ENDBRANCH  33  34
BRANCH  33  36
ATOM     36  C11 <0> A   1     -12.948   8.036  41.499  0.00  0.00    -0.047 C 
BRANCH  36  37
ATOM     37  C12 <0> A   1     -12.411   9.246  40.731  0.00  0.00    +0.231 C 
BRANCH  37  38
ATOM     38  O3  <0> A   1     -12.372   8.945  39.334  0.00  0.00    -0.528 OA
ATOM     39  H18 <0> A   1     -11.665   9.397  38.854  0.00  0.00    +0.350 HD
ENDBRANCH  37  38
BRANCH  37  40
ATOM     40  C13 <0> A   1     -13.327  10.448  40.968  0.00  0.00    -0.102 C 
BRANCH  40  41
ATOM     41  C14 <0> A   1     -13.406  11.276  39.710  0.00  0.00    +0.491 C 
ATOM     42  O1  <0> A   1     -14.450  11.332  39.083  0.00  0.00    -0.681 OA
ATOM     43  O2  <0> A   1     -12.427  11.890  39.321  0.00  0.00    -0.712 OA
ENDBRANCH  40  41
ENDBRANCH  37  40
ENDBRANCH  36  37
ENDBRANCH  33  36
ENDBRANCH  32  33
ENDBRANCH  31  32
ENDBRANCH   5  31
TORSDOF 14
ENDMDL
MODEL 2
REMARK VINA RESULT:      -7.7      2.315      7.896
REMARK  Name = CHEMBL401949
REMARK  16 active torsions:
REMARK  status: ('A' for Active; 'I' for Inactive)
REMARK    1  A    between atoms: C1_1  and  C2_2
REMARK    2  A    between atoms: C2_2  and  C3_3
REMARK    3  A    between atoms: C2_2  and  C4_4
REMARK    4  A    between atoms: C5_5  and  S1_35
REMARK    5  A    between atoms: C6_6  and  C21_29
REMARK    6  A    between atoms: C7_7  and  C15_22
REMARK    7  A    between atoms: N1_8  and  C8_9
REMARK    8  A    between atoms: C8_9  and  C9_10
REMARK    9  A    between atoms: C9_10  and  C10_11
REMARK   10  A    between atoms: C10_11  and  C11_13
REMARK   11  A    between atoms: C10_11  and  O4_21
REMARK   12  A    between atoms: C11_13  and  C12_14
REMARK   13  A    between atoms: C12_14  and  C13_16
REMARK   14  A    between atoms: C12_14  and  O3_20
REMARK   15  A    between atoms: C13_16  and  C14_17
REMARK   16  A    between atoms: S1_35  and  N2_38
REMARK                            x       y       z     vdW  Elec       q    Type
REMARK                         _______ _______ _______ _____ _____    ______ ____
ROOT
ATOM      1  C4  <0> A   1     -14.265   7.085  45.065  0.00  0.00    +0.174 C 
ATOM      2  C5  <0> A   1     -13.479   8.177  45.002  0.00  0.00    -0.733 C 
ATOM      3  C6  <0> A   1     -13.779   8.987  46.123  0.00  0.00    -0.027 C 
ATOM      4  C7  <0> A   1     -14.765   8.331  46.840  0.00  0.00    +0.063 C 
ATOM      5  N1  <0> A   1     -15.056   7.169  46.175  0.00  0.00    -0.415 N 
ENDROOT
BRANCH   4   6
ATOM      6  C15 <0> A   1     -15.393   8.800  48.091  0.00  0.00    -0.029 A 
ATOM      7  C16 <0> A   1     -16.326   9.840  48.060  0.00  0.00    +0.046 A 
ATOM      8  C17 <0> A   1     -16.910  10.274  49.232  0.00  0.00    -0.007 A 
ATOM      9  C18 <0> A   1     -16.572   9.681  50.438  0.00  0.00    +0.106 A 
ATOM     10  C19 <0> A   1     -15.649   8.649  50.475  0.00  0.00    -0.008 A 
ATOM     11  C20 <0> A   1     -15.063   8.202  49.309  0.00  0.00    +0.075 A 
ATOM     12  F1  <0> A   1     -17.147  10.111  51.583  0.00  0.00    -0.137 F 
ENDBRANCH   4   6
BRANCH   3  13
ATOM     13  C21 <0> A   1     -13.157  10.288  46.464  0.00  0.00    -0.042 A 
ATOM     14  C22 <0> A   1     -13.649  11.467  45.906  0.00  0.00    +0.052 A 
ATOM     15  C23 <0> A   1     -13.067  12.676  46.228  0.00  0.00    +0.004 A 
ATOM     16  C24 <0> A   1     -11.995  12.719  47.101  0.00  0.00    +0.008 A 
ATOM     17  C25 <0> A   1     -11.501  11.553  47.657  0.00  0.00    -0.003 A 
ATOM     18  C26 <0> A   1     -12.080  10.339  47.348  0.00  0.00    +0.020 A 
ENDBRANCH   3  13
BRANCH   1  20
ATOM     19  C1  <0> A   1     -14.172   4.621  44.808  0.00  0.00    +0.045 C 
ATOM     20  C2  <0> A   1     -14.275   5.956  44.068  0.00  0.00    +0.043 C 
ATOM     21  C3  <0> A   1     -15.579   5.995  43.267  0.00  0.00    +0.050 C 
ENDBRANCH   1  20
BRANCH   2  22
ATOM     22  S1  <0> A   1     -12.291   8.532  43.751  0.00  0.00    +2.707 S 
ATOM     23  O5  <0> A   1     -11.553   9.660  44.199  0.00  0.00    -0.953 OA
ATOM     24  O6  <0> A   1     -11.671   7.297  43.418  0.00  0.00    -0.948 OA
BRANCH  22  25
ATOM     25  N2  <0> A   1     -13.127   9.019  42.406  0.00  0.00    -0.998 NA
ATOM     26  C27 <0> A   1     -13.745  10.353  42.340  0.00  0.00    +0.268 C 
ATOM     27  C28 <0> A   1     -13.313  11.023  41.031  0.00  0.00    +0.209 C 
ATOM     28  O7  <0> A   1     -13.584  10.141  39.938  0.00  0.00    -0.376 OA
ATOM     29  C29 <0> A   1     -12.861   8.909  39.986  0.00  0.00    +0.212 C 
ATOM     30  C30 <0> A   1     -13.266   8.133  41.239  0.00  0.00    +0.265 C 
ENDBRANCH  22  25
ENDBRANCH   2  22
BRANCH   5  31
ATOM     31  C8  <0> A   1     -16.051   6.177  46.588  0.00  0.00    +0.296 C 
BRANCH  31  32
ATOM     32  C9  <0> A   1     -17.439   6.622  46.120  0.00  0.00    -0.014 C 
BRANCH  32  33
ATOM     33  C10 <0> A   1     -18.337   6.854  47.337  0.00  0.00    +0.218 C 
BRANCH  33  34
ATOM     34  O4  <0> A   1     -19.703   6.664  46.965  0.00  0.00    -0.541 OA
ATOM     35  H19 <0> A   1     -19.840   5.953  46.322  0.00  0.00    +0.367 HD
ENDBRANCH  33  34
BRANCH  33  36
ATOM     36  C11 <0> A   1     -17.966   5.861  48.440  0.00  0.00    -0.047 C 
BRANCH  36  37
ATOM     37  C12 <0> A   1     -18.610   6.299  49.757  0.00  0.00    +0.231 C 
BRANCH  37  38
ATOM     38  O3  <0> A   1     -19.436   7.443  49.527  0.00  0.00    -0.528 OA
ATOM     39  H18 <0> A   1     -18.998   8.151  49.035  0.00  0.00    +0.350 HD
ENDBRANCH  37  38
BRANCH  37  40
ATOM     40  C13 <0> A   1     -19.465   5.158  50.312  0.00  0.00    -0.102 C 
BRANCH  40  41
ATOM     41  C14 <0> A   1     -20.894   5.337  49.867  0.00  0.00    +0.491 C 
ATOM     42  O1  <0> A   1     -21.225   5.012  48.739  0.00  0.00    -0.681 OA
ATOM     43  O2  <0> A   1     -21.718   5.805  50.633  0.00  0.00    -0.712 OA
ENDBRANCH  40  41
ENDBRANCH  37  40
ENDBRANCH  36  37
ENDBRANCH  33  36
ENDBRANCH  32  33
ENDBRANCH  31  32
ENDBRANCH   5  31
TORSDOF 14
ENDMDL
MODEL 3
REMARK VINA RESULT:      -7.5      3.171      5.567
REMARK  Name = CHEMBL401949
REMARK  16 active torsions:
REMARK  status: ('A' for Active; 'I' for Inactive)
REMARK    1  A    between atoms: C1_1  and  C2_2
REMARK    2  A    between atoms: C2_2  and  C3_3
REMARK    3  A    between atoms: C2_2  and  C4_4
REMARK    4  A    between atoms: C5_5  and  S1_35
REMARK    5  A    between atoms: C6_6  and  C21_29
REMARK    6  A    between atoms: C7_7  and  C15_22
REMARK    7  A    between atoms: N1_8  and  C8_9
REMARK    8  A    between atoms: C8_9  and  C9_10
REMARK    9  A    between atoms: C9_10  and  C10_11
REMARK   10  A    between atoms: C10_11  and  C11_13
REMARK   11  A    between atoms: C10_11  and  O4_21
REMARK   12  A    between atoms: C11_13  and  C12_14
REMARK   13  A    between atoms: C12_14  and  C13_16
REMARK   14  A    between atoms: C12_14  and  O3_20
REMARK   15  A    between atoms: C13_16  and  C14_17
REMARK   16  A    between atoms: S1_35  and  N2_38
REMARK                            x       y       z     vdW  Elec       q    Type
REMARK                         _______ _______ _______ _____ _____    ______ ____
ROOT
ATOM      1  C4  <0> A   1     -13.487  10.130  46.254  0.00  0.00    +0.174 C 
ATOM      2  C5  <0> A   1     -13.951   9.918  47.501  0.00  0.00    -0.733 C 
ATOM      3  C6  <0> A   1     -14.580   8.651  47.515  0.00  0.00    -0.027 C 
ATOM      4  C7  <0> A   1     -14.466   8.131  46.237  0.00  0.00    +0.063 C 
ATOM      5  N1  <0> A   1     -13.797   9.053  45.474  0.00  0.00    -0.415 N 
ENDROOT
BRANCH   4   6
ATOM      6  C15 <0> A   1     -14.976   6.824  45.777  0.00  0.00    -0.029 A 
ATOM      7  C16 <0> A   1     -14.188   5.678  45.911  0.00  0.00    +0.046 A 
ATOM      8  C17 <0> A   1     -14.671   4.459  45.480  0.00  0.00    -0.007 A 
ATOM      9  C18 <0> A   1     -15.932   4.372  44.915  0.00  0.00    +0.106 A 
ATOM     10  C19 <0> A   1     -16.718   5.505  44.779  0.00  0.00    -0.008 A 
ATOM     11  C20 <0> A   1     -16.249   6.728  45.212  0.00  0.00    +0.075 A 
ATOM     12  F1  <0> A   1     -16.399   3.176  44.493  0.00  0.00    -0.137 F 
ENDBRANCH   4   6
BRANCH   3  13
ATOM     13  C21 <0> A   1     -15.235   8.003  48.676  0.00  0.00    -0.042 A 
ATOM     14  C22 <0> A   1     -14.490   7.211  49.548  0.00  0.00    +0.052 A 
ATOM     15  C23 <0> A   1     -15.105   6.611  50.628  0.00  0.00    +0.004 A 
ATOM     16  C24 <0> A   1     -16.459   6.793  50.845  0.00  0.00    +0.008 A 
ATOM     17  C25 <0> A   1     -17.205   7.577  49.983  0.00  0.00    -0.003 A 
ATOM     18  C26 <0> A   1     -16.599   8.188  48.903  0.00  0.00    +0.020 A 
ENDBRANCH   3  13
BRANCH   1  20
ATOM     19  C1  <0> A   1     -11.263  11.031  45.631  0.00  0.00    +0.045 C 
ATOM     20  C2  <0> A   1     -12.748  11.359  45.793  0.00  0.00    +0.043 C 
ATOM     21  C3  <0> A   1     -13.316  11.821  44.448  0.00  0.00    +0.050 C 
ENDBRANCH   1  20
BRANCH   2  22
ATOM     22  S1  <0> A   1     -13.803  11.021  48.866  0.00  0.00    +2.707 S 
ATOM     23  O5  <0> A   1     -14.242  12.293  48.412  0.00  0.00    -0.953 OA
ATOM     24  O6  <0> A   1     -14.390  10.366  49.983  0.00  0.00    -0.948 OA
BRANCH  22  25
ATOM     25  N2  <0> A   1     -12.187  11.171  49.202  0.00  0.00    -0.998 NA
ATOM     26  C27 <0> A   1     -11.534  12.490  49.208  0.00  0.00    +0.268 C 
ATOM     27  C28 <0> A   1     -10.751  12.636  50.517  0.00  0.00    +0.209 C 
ATOM     28  O7  <0> A   1      -9.897  11.503  50.686  0.00  0.00    -0.376 OA
ATOM     29  C29 <0> A   1     -10.590  10.258  50.800  0.00  0.00    +0.212 C 
ATOM     30  C30 <0> A   1     -11.365   9.990  49.510  0.00  0.00    +0.265 C 
ENDBRANCH  22  25
ENDBRANCH   2  22
BRANCH   5  31
ATOM     31  C8  <0> A   1     -13.468   8.907  44.055  0.00  0.00    +0.296 C 
BRANCH  31  32
ATOM     32  C9  <0> A   1     -12.236   8.010  43.908  0.00  0.00    -0.014 C 
BRANCH  32  33
ATOM     33  C10 <0> A   1     -11.966   7.756  42.423  0.00  0.00    +0.218 C 
BRANCH  33  34
ATOM     34  O4  <0> A   1     -11.780   6.355  42.206  0.00  0.00    -0.541 OA
ATOM     35  H19 <0> A   1     -12.603   5.846  42.198  0.00  0.00    +0.367 HD
ENDBRANCH  33  34
BRANCH  33  36
ATOM     36  C11 <0> A   1     -13.156   8.246  41.597  0.00  0.00    -0.047 C 
BRANCH  36  37
ATOM     37  C12 <0> A   1     -12.667   9.227  40.530  0.00  0.00    +0.231 C 
BRANCH  37  38
ATOM     38  O3  <0> A   1     -13.237   8.880  39.266  0.00  0.00    -0.528 OA
ATOM     39  H18 <0> A   1     -13.616   9.629  38.786  0.00  0.00    +0.350 HD
ENDBRANCH  37  38
BRANCH  37  40
ATOM     40  C13 <0> A   1     -13.095  10.646  40.908  0.00  0.00    -0.102 C 
BRANCH  40  41
ATOM     41  C14 <0> A   1     -13.852  11.266  39.762  0.00  0.00    +0.491 C 
ATOM     42  O1  <0> A   1     -15.069  11.191  39.724  0.00  0.00    -0.681 OA
ATOM     43  O2  <0> A   1     -13.249  11.843  38.873  0.00  0.00    -0.712 OA
ENDBRANCH  40  41
ENDBRANCH  37  40
ENDBRANCH  36  37
ENDBRANCH  33  36
ENDBRANCH  32  33
ENDBRANCH  31  32
ENDBRANCH   5  31
TORSDOF 14
ENDMDL
MODEL 4
REMARK VINA RESULT:      -7.5      3.064      5.052
REMARK  Name = CHEMBL401949
REMARK  16 active torsions:
REMARK  status: ('A' for Active; 'I' for Inactive)
REMARK    1  A    between atoms: C1_1  and  C2_2
REMARK    2  A    between atoms: C2_2  and  C3_3
REMARK    3  A    between atoms: C2_2  and  C4_4
REMARK    4  A    between atoms: C5_5  and  S1_35
REMARK    5  A    between atoms: C6_6  and  C21_29
REMARK    6  A    between atoms: C7_7  and  C15_22
REMARK    7  A    between atoms: N1_8  and  C8_9
REMARK    8  A    between atoms: C8_9  and  C9_10
REMARK    9  A    between atoms: C9_10  and  C10_11
REMARK   10  A    between atoms: C10_11  and  C11_13
REMARK   11  A    between atoms: C10_11  and  O4_21
REMARK   12  A    between atoms: C11_13  and  C12_14
REMARK   13  A    between atoms: C12_14  and  C13_16
REMARK   14  A    between atoms: C12_14  and  O3_20
REMARK   15  A    between atoms: C13_16  and  C14_17
REMARK   16  A    between atoms: S1_35  and  N2_38
REMARK                            x       y       z     vdW  Elec       q    Type
REMARK                         _______ _______ _______ _____ _____    ______ ____
ROOT
ATOM      1  C4  <0> A   1     -12.509   9.048  46.772  0.00  0.00    +0.174 C 
ATOM      2  C5  <0> A   1     -13.332   9.010  47.838  0.00  0.00    -0.733 C 
ATOM      3  C6  <0> A   1     -14.289   7.993  47.606  0.00  0.00    -0.027 C 
ATOM      4  C7  <0> A   1     -13.995   7.440  46.371  0.00  0.00    +0.063 C 
ATOM      5  N1  <0> A   1     -12.904   8.102  45.871  0.00  0.00    -0.415 N 
ENDROOT
BRANCH   4   6
ATOM      6  C15 <0> A   1     -14.726   6.340  45.711  0.00  0.00    -0.029 A 
ATOM      7  C16 <0> A   1     -15.972   6.580  45.126  0.00  0.00    +0.046 A 
ATOM      8  C17 <0> A   1     -16.651   5.549  44.510  0.00  0.00    -0.007 A 
ATOM      9  C18 <0> A   1     -16.099   4.279  44.472  0.00  0.00    +0.106 A 
ATOM     10  C19 <0> A   1     -14.864   4.035  45.049  0.00  0.00    -0.008 A 
ATOM     11  C20 <0> A   1     -14.173   5.060  45.663  0.00  0.00    +0.075 A 
ATOM     12  F1  <0> A   1     -16.769   3.272  43.867  0.00  0.00    -0.137 F 
ENDBRANCH   4   6
BRANCH   3  13
ATOM     13  C21 <0> A   1     -15.393   7.596  48.512  0.00  0.00    -0.042 A 
ATOM     14  C22 <0> A   1     -15.168   6.662  49.522  0.00  0.00    +0.052 A 
ATOM     15  C23 <0> A   1     -16.199   6.297  50.363  0.00  0.00    +0.004 A 
ATOM     16  C24 <0> A   1     -17.455   6.854  50.203  0.00  0.00    +0.008 A 
ATOM     17  C25 <0> A   1     -17.685   7.780  49.201  0.00  0.00    -0.003 A 
ATOM     18  C26 <0> A   1     -16.659   8.158  48.358  0.00  0.00    +0.020 A 
ENDBRANCH   3  13
BRANCH   1  20
ATOM     19  C1  <0> A   1     -10.184   9.244  45.934  0.00  0.00    +0.045 C 
ATOM     20  C2  <0> A   1     -11.344   9.987  46.600  0.00  0.00    +0.043 C 
ATOM     21  C3  <0> A   1     -11.765  11.167  45.720  0.00  0.00    +0.050 C 
ENDBRANCH   1  20
BRANCH   2  22
ATOM     22  S1  <0> A   1     -13.236  10.041  49.263  0.00  0.00    +2.707 S 
ATOM     23  O5  <0> A   1     -13.731   9.276  50.353  0.00  0.00    -0.953 OA
ATOM     24  O6  <0> A   1     -11.935  10.614  49.262  0.00  0.00    -0.948 OA
BRANCH  22  25
ATOM     25  N2  <0> A   1     -14.303  11.289  49.039  0.00  0.00    -0.998 NA
ATOM     26  C27 <0> A   1     -13.931  12.468  48.241  0.00  0.00    +0.268 C 
ATOM     27  C28 <0> A   1     -15.036  12.721  47.208  0.00  0.00    +0.209 C 
ATOM     28  O7  <0> A   1     -16.300  12.775  47.874  0.00  0.00    -0.376 OA
ATOM     29  C29 <0> A   1     -16.670  11.560  48.529  0.00  0.00    +0.212 C 
ATOM     30  C30 <0> A   1     -15.651  11.246  49.625  0.00  0.00    +0.265 C 
ENDBRANCH  22  25
ENDBRANCH   2  22
BRANCH   5  31
ATOM     31  C8  <0> A   1     -12.265   7.837  44.581  0.00  0.00    +0.296 C 
BRANCH  31  32
ATOM     32  C9  <0> A   1     -13.214   8.239  43.449  0.00  0.00    -0.014 C 
BRANCH  32  33
ATOM     33  C10 <0> A   1     -13.039   7.278  42.271  0.00  0.00    +0.218 C 
BRANCH  33  34
ATOM     34  O4  <0> A   1     -14.304   6.706  41.931  0.00  0.00    -0.541 OA
ATOM     35  H19 <0> A   1     -14.953   6.731  42.649  0.00  0.00    +0.367 HD
ENDBRANCH  33  34
BRANCH  33  36
ATOM     36  C11 <0> A   1     -12.485   8.042  41.068  0.00  0.00    -0.047 C 
BRANCH  36  37
ATOM     37  C12 <0> A   1     -12.948   9.499  41.131  0.00  0.00    +0.231 C 
BRANCH  37  38
ATOM     38  O3  <0> A   1     -11.811  10.363  41.075  0.00  0.00    -0.528 OA
ATOM     39  H18 <0> A   1     -11.359  10.473  41.923  0.00  0.00    +0.350 HD
ENDBRANCH  37  38
BRANCH  37  40
ATOM     40  C13 <0> A   1     -13.871   9.793  39.947  0.00  0.00    -0.102 C 
BRANCH  40  41
ATOM     41  C14 <0> A   1     -13.925  11.281  39.709  0.00  0.00    +0.491 C 
ATOM     42  O1  <0> A   1     -13.304  11.772  38.782  0.00  0.00    -0.681 OA
ATOM     43  O2  <0> A   1     -14.591  11.992  40.442  0.00  0.00    -0.712 OA
ENDBRANCH  40  41
ENDBRANCH  37  40
ENDBRANCH  36  37
ENDBRANCH  33  36
ENDBRANCH  32  33
ENDBRANCH  31  32
ENDBRANCH   5  31
TORSDOF 14
ENDMDL
MODEL 5
REMARK VINA RESULT:      -7.4      2.177      4.673
REMARK  Name = CHEMBL401949
REMARK  16 active torsions:
REMARK  status: ('A' for Active; 'I' for Inactive)
REMARK    1  A    between atoms: C1_1  and  C2_2
REMARK    2  A    between atoms: C2_2  and  C3_3
REMARK    3  A    between atoms: C2_2  and  C4_4
REMARK    4  A    between atoms: C5_5  and  S1_35
REMARK    5  A    between atoms: C6_6  and  C21_29
REMARK    6  A    between atoms: C7_7  and  C15_22
REMARK    7  A    between atoms: N1_8  and  C8_9
REMARK    8  A    between atoms: C8_9  and  C9_10
REMARK    9  A    between atoms: C9_10  and  C10_11
REMARK   10  A    between atoms: C10_11  and  C11_13
REMARK   11  A    between atoms: C10_11  and  O4_21
REMARK   12  A    between atoms: C11_13  and  C12_14
REMARK   13  A    between atoms: C12_14  and  C13_16
REMARK   14  A    between atoms: C12_14  and  O3_20
REMARK   15  A    between atoms: C13_16  and  C14_17
REMARK   16  A    between atoms: S1_35  and  N2_38
REMARK                            x       y       z     vdW  Elec       q    Type
REMARK                         _______ _______ _______ _____ _____    ______ ____
ROOT
ATOM      1  C4  <0> A   1     -15.458   9.666  47.616  0.00  0.00    +0.174 C 
ATOM      2  C5  <0> A   1     -16.043   8.473  47.397  0.00  0.00    -0.733 C 
ATOM      3  C6  <0> A   1     -15.270   7.788  46.429  0.00  0.00    -0.027 C 
ATOM      4  C7  <0> A   1     -14.218   8.622  46.093  0.00  0.00    +0.063 C 
ATOM      5  N1  <0> A   1     -14.351   9.772  46.825  0.00  0.00    -0.415 N 
ENDROOT
BRANCH   4   6
ATOM      6  C15 <0> A   1     -13.149   8.328  45.117  0.00  0.00    -0.029 A 
ATOM      7  C16 <0> A   1     -13.454   8.203  43.760  0.00  0.00    +0.046 A 
ATOM      8  C17 <0> A   1     -12.451   7.929  42.853  0.00  0.00    -0.007 A 
ATOM      9  C18 <0> A   1     -11.144   7.776  43.287  0.00  0.00    +0.106 A 
ATOM     10  C19 <0> A   1     -10.836   7.899  44.632  0.00  0.00    -0.008 A 
ATOM     11  C20 <0> A   1     -11.829   8.180  45.547  0.00  0.00    +0.075 A 
ATOM     12  F1  <0> A   1     -10.166   7.507  42.395  0.00  0.00    -0.137 F 
ENDBRANCH   4   6
BRANCH   3  13
ATOM     13  C21 <0> A   1     -15.537   6.437  45.882  0.00  0.00    -0.042 A 
ATOM     14  C22 <0> A   1     -14.934   5.318  46.454  0.00  0.00    +0.052 A 
ATOM     15  C23 <0> A   1     -15.186   4.062  45.940  0.00  0.00    +0.004 A 
ATOM     16  C24 <0> A   1     -16.035   3.913  44.858  0.00  0.00    +0.008 A 
ATOM     17  C25 <0> A   1     -16.636   5.020  44.285  0.00  0.00    -0.003 A 
ATOM     18  C26 <0> A   1     -16.396   6.280  44.794  0.00  0.00    +0.020 A 
ENDBRANCH   3  13
BRANCH   1  20
ATOM     19  C1  <0> A   1     -14.780  11.235  49.412  0.00  0.00    +0.045 C 
ATOM     20  C2  <0> A   1     -15.951  10.719  48.575  0.00  0.00    +0.043 C 
ATOM     21  C3  <0> A   1     -16.564  11.880  47.787  0.00  0.00    +0.050 C 
ENDBRANCH   1  20
BRANCH   2  22
ATOM     22  S1  <0> A   1     -17.504   7.872  48.176  0.00  0.00    +2.707 S 
ATOM     23  O5  <0> A   1     -17.970   8.912  49.025  0.00  0.00    -0.953 OA
ATOM     24  O6  <0> A   1     -18.309   7.308  47.149  0.00  0.00    -0.948 OA
BRANCH  22  25
ATOM     25  N2  <0> A   1     -17.054   6.621  49.165  0.00  0.00    -0.998 NA
ATOM     26  C27 <0> A   1     -16.020   6.806  50.197  0.00  0.00    +0.268 C 
ATOM     27  C28 <0> A   1     -16.568   6.283  51.530  0.00  0.00    +0.209 C 
ATOM     28  O7  <0> A   1     -17.055   4.951  51.349  0.00  0.00    -0.376 OA
ATOM     29  C29 <0> A   1     -18.144   4.846  50.429  0.00  0.00    +0.212 C 
ATOM     30  C30 <0> A   1     -17.680   5.296  49.043  0.00  0.00    +0.265 C 
ENDBRANCH  22  25
ENDBRANCH   2  22
BRANCH   5  31
ATOM     31  C8  <0> A   1     -13.451  10.926  46.771  0.00  0.00    +0.296 C 
BRANCH  31  32
ATOM     32  C9  <0> A   1     -14.066  12.011  45.884  0.00  0.00    -0.014 C 
BRANCH  32  33
ATOM     33  C10 <0> A   1     -13.292  12.093  44.566  0.00  0.00    +0.218 C 
BRANCH  33  34
ATOM     34  O4  <0> A   1     -12.021  11.457  44.720  0.00  0.00    -0.541 OA
ATOM     35  H19 <0> A   1     -11.835  11.164  45.624  0.00  0.00    +0.367 HD
ENDBRANCH  33  34
BRANCH  33  36
ATOM     36  C11 <0> A   1     -14.084  11.388  43.465  0.00  0.00    -0.047 C 
BRANCH  36  37
ATOM     37  C12 <0> A   1     -13.561  11.831  42.097  0.00  0.00    +0.231 C 
BRANCH  37  38
ATOM     38  O3  <0> A   1     -12.313  11.187  41.833  0.00  0.00    -0.528 OA
ATOM     39  H18 <0> A   1     -11.842  10.901  42.628  0.00  0.00    +0.350 HD
ENDBRANCH  37  38
BRANCH  37  40
ATOM     40  C13 <0> A   1     -14.572  11.445  41.015  0.00  0.00    -0.102 C 
BRANCH  40  41
ATOM     41  C14 <0> A   1     -13.838  11.014  39.771  0.00  0.00    +0.491 C 
ATOM     42  O1  <0> A   1     -13.536  11.839  38.925  0.00  0.00    -0.681 OA
ATOM     43  O2  <0> A   1     -13.544   9.842  39.611  0.00  0.00    -0.712 OA
ENDBRANCH  40  41
ENDBRANCH  37  40
ENDBRANCH  36  37
ENDBRANCH  33  36
ENDBRANCH  32  33
ENDBRANCH  31  32
ENDBRANCH   5  31
TORSDOF 14
ENDMDL
MODEL 6
REMARK VINA RESULT:      -7.4     15.867     19.320
REMARK  Name = CHEMBL401949
REMARK  16 active torsions:
REMARK  status: ('A' for Active; 'I' for Inactive)
REMARK    1  A    between atoms: C1_1  and  C2_2
REMARK    2  A    between atoms: C2_2  and  C3_3
REMARK    3  A    between atoms: C2_2  and  C4_4
REMARK    4  A    between atoms: C5_5  and  S1_35
REMARK    5  A    between atoms: C6_6  and  C21_29
REMARK    6  A    between atoms: C7_7  and  C15_22
REMARK    7  A    between atoms: N1_8  and  C8_9
REMARK    8  A    between atoms: C8_9  and  C9_10
REMARK    9  A    between atoms: C9_10  and  C10_11
REMARK   10  A    between atoms: C10_11  and  C11_13
REMARK   11  A    between atoms: C10_11  and  O4_21
REMARK   12  A    between atoms: C11_13  and  C12_14
REMARK   13  A    between atoms: C12_14  and  C13_16
REMARK   14  A    between atoms: C12_14  and  O3_20
REMARK   15  A    between atoms: C13_16  and  C14_17
REMARK   16  A    between atoms: S1_35  and  N2_38
REMARK                            x       y       z     vdW  Elec       q    Type
REMARK                         _______ _______ _______ _____ _____    ______ ____
ROOT
ATOM      1  C4  <0> A   1     -27.557  -4.813  51.543  0.00  0.00    +0.174 C 
ATOM      2  C5  <0> A   1     -28.176  -3.618  51.497  0.00  0.00    -0.733 C 
ATOM      3  C6  <0> A   1     -27.184  -2.616  51.623  0.00  0.00    -0.027 C 
ATOM      4  C7  <0> A   1     -25.968  -3.268  51.743  0.00  0.00    +0.063 C 
ATOM      5  N1  <0> A   1     -26.216  -4.615  51.698  0.00  0.00    -0.415 N 
ENDROOT
BRANCH   4   6
ATOM      6  C15 <0> A   1     -24.646  -2.629  51.897  0.00  0.00    -0.029 A 
ATOM      7  C16 <0> A   1     -23.789  -2.517  50.799  0.00  0.00    +0.046 A 
ATOM      8  C17 <0> A   1     -22.555  -1.918  50.950  0.00  0.00    -0.007 A 
ATOM      9  C18 <0> A   1     -22.166  -1.430  52.186  0.00  0.00    +0.106 A 
ATOM     10  C19 <0> A   1     -23.012  -1.538  53.279  0.00  0.00    -0.008 A 
ATOM     11  C20 <0> A   1     -24.250  -2.129  53.139  0.00  0.00    +0.075 A 
ATOM     12  F1  <0> A   1     -20.956  -0.845  52.328  0.00  0.00    -0.137 F 
ENDBRANCH   4   6
BRANCH   3  13
ATOM     13  C21 <0> A   1     -27.403  -1.150  51.625  0.00  0.00    -0.042 A 
ATOM     14  C22 <0> A   1     -27.654  -0.482  52.822  0.00  0.00    +0.052 A 
ATOM     15  C23 <0> A   1     -27.858   0.883  52.819  0.00  0.00    +0.004 A 
ATOM     16  C24 <0> A   1     -27.814   1.587  51.629  0.00  0.00    +0.008 A 
ATOM     17  C25 <0> A   1     -27.567   0.930  50.437  0.00  0.00    -0.003 A 
ATOM     18  C26 <0> A   1     -27.356  -0.434  50.429  0.00  0.00    +0.020 A 
ENDBRANCH   3  13
BRANCH   1  20
ATOM     19  C1  <0> A   1     -28.117  -6.684  50.016  0.00  0.00    +0.045 C 
ATOM     20  C2  <0> A   1     -28.237  -6.154  51.446  0.00  0.00    +0.043 C 
ATOM     21  C3  <0> A   1     -27.569  -7.136  52.411  0.00  0.00    +0.050 C 
ENDBRANCH   1  20
BRANCH   2  22
ATOM     22  S1  <0> A   1     -29.907  -3.349  51.313  0.00  0.00    +2.707 S 
ATOM     23  O5  <0> A   1     -30.131  -1.966  51.549  0.00  0.00    -0.953 OA
ATOM     24  O6  <0> A   1     -30.290  -3.987  50.102  0.00  0.00    -0.948 OA
BRANCH  22  25
ATOM     25  N2  <0> A   1     -30.663  -4.167  52.539  0.00  0.00    -0.998 NA
ATOM     26  C27 <0> A   1     -31.778  -5.086  52.262  0.00  0.00    +0.268 C 
ATOM     27  C28 <0> A   1     -31.488  -6.422  52.957  0.00  0.00    +0.209 C 
ATOM     28  O7  <0> A   1     -31.190  -6.181  54.334  0.00  0.00    -0.376 OA
ATOM     29  C29 <0> A   1     -30.023  -5.385  54.550  0.00  0.00    +0.212 C 
ATOM     30  C30 <0> A   1     -30.234  -4.001  53.937  0.00  0.00    +0.265 C 
ENDBRANCH  22  25
ENDBRANCH   2  22
BRANCH   5  31
ATOM     31  C8  <0> A   1     -25.205  -5.671  51.797  0.00  0.00    +0.296 C 
BRANCH  31  32
ATOM     32  C9  <0> A   1     -24.574  -5.903  50.422  0.00  0.00    -0.014 C 
BRANCH  32  33
ATOM     33  C10 <0> A   1     -24.857  -7.336  49.967  0.00  0.00    +0.218 C 
BRANCH  33  34
ATOM     34  O4  <0> A   1     -24.657  -7.436  48.555  0.00  0.00    -0.541 OA
ATOM     35  H19 <0> A   1     -25.389  -7.856  48.083  0.00  0.00    +0.367 HD
ENDBRANCH  33  34
BRANCH  33  36
ATOM     36  C11 <0> A   1     -23.907  -8.296  50.685  0.00  0.00    -0.047 C 
BRANCH  36  37
ATOM     37  C12 <0> A   1     -24.514  -9.700  50.698  0.00  0.00    +0.231 C 
BRANCH  37  38
ATOM     38  O3  <0> A   1     -25.857  -9.643  50.213  0.00  0.00    -0.528 OA
ATOM     39  H18 <0> A   1     -26.168 -10.469  49.817  0.00  0.00    +0.350 HD
ENDBRANCH  37  38
BRANCH  37  40
ATOM     40  C13 <0> A   1     -23.686 -10.622  49.801  0.00  0.00    -0.102 C 
BRANCH  40  41
ATOM     41  C14 <0> A   1     -24.511 -11.036  48.609  0.00  0.00    +0.491 C 
ATOM     42  O1  <0> A   1     -25.032 -12.139  48.583  0.00  0.00    -0.681 OA
ATOM     43  O2  <0> A   1     -24.658 -10.271  47.672  0.00  0.00    -0.712 OA
ENDBRANCH  40  41
ENDBRANCH  37  40
ENDBRANCH  36  37
ENDBRANCH  33  36
ENDBRANCH  32  33
ENDBRANCH  31  32
ENDBRANCH   5  31
TORSDOF 14
ENDMDL
MODEL 7
REMARK VINA RESULT:      -7.3     16.190     19.917
REMARK  Name = CHEMBL401949
REMARK  16 active torsions:
REMARK  status: ('A' for Active; 'I' for Inactive)
REMARK    1  A    between atoms: C1_1  and  C2_2
REMARK    2  A    between atoms: C2_2  and  C3_3
REMARK    3  A    between atoms: C2_2  and  C4_4
REMARK    4  A    between atoms: C5_5  and  S1_35
REMARK    5  A    between atoms: C6_6  and  C21_29
REMARK    6  A    between atoms: C7_7  and  C15_22
REMARK    7  A    between atoms: N1_8  and  C8_9
REMARK    8  A    between atoms: C8_9  and  C9_10
REMARK    9  A    between atoms: C9_10  and  C10_11
REMARK   10  A    between atoms: C10_11  and  C11_13
REMARK   11  A    between atoms: C10_11  and  O4_21
REMARK   12  A    between atoms: C11_13  and  C12_14
REMARK   13  A    between atoms: C12_14  and  C13_16
REMARK   14  A    between atoms: C12_14  and  O3_20
REMARK   15  A    between atoms: C13_16  and  C14_17
REMARK   16  A    between atoms: S1_35  and  N2_38
REMARK                            x       y       z     vdW  Elec       q    Type
REMARK                         _______ _______ _______ _____ _____    ______ ____
ROOT
ATOM      1  C4  <0> A   1     -27.996  -5.213  50.870  0.00  0.00    +0.174 C 
ATOM      2  C5  <0> A   1     -28.724  -4.169  51.312  0.00  0.00    -0.733 C 
ATOM      3  C6  <0> A   1     -27.831  -3.102  51.570  0.00  0.00    -0.027 C 
ATOM      4  C7  <0> A   1     -26.561  -3.559  51.263  0.00  0.00    +0.063 C 
ATOM      5  N1  <0> A   1     -26.679  -4.857  50.841  0.00  0.00    -0.415 N 
ENDROOT
BRANCH   4   6
ATOM      6  C15 <0> A   1     -25.305  -2.789  51.376  0.00  0.00    -0.029 A 
ATOM      7  C16 <0> A   1     -24.849  -2.032  50.295  0.00  0.00    +0.046 A 
ATOM      8  C17 <0> A   1     -23.675  -1.314  50.407  0.00  0.00    -0.007 A 
ATOM      9  C18 <0> A   1     -22.952  -1.345  51.587  0.00  0.00    +0.106 A 
ATOM     10  C19 <0> A   1     -23.400  -2.094  52.663  0.00  0.00    -0.008 A 
ATOM     11  C20 <0> A   1     -24.575  -2.811  52.566  0.00  0.00    +0.075 A 
ATOM     12  F1  <0> A   1     -21.803  -0.641  51.690  0.00  0.00    -0.137 F 
ENDBRANCH   4   6
BRANCH   3  13
ATOM     13  C21 <0> A   1     -28.188  -1.754  52.073  0.00  0.00    -0.042 A 
ATOM     14  C22 <0> A   1     -28.296  -1.524  53.443  0.00  0.00    +0.052 A 
ATOM     15  C23 <0> A   1     -28.627  -0.267  53.906  0.00  0.00    +0.004 A 
ATOM     16  C24 <0> A   1     -28.854   0.764  53.011  0.00  0.00    +0.008 A 
ATOM     17  C25 <0> A   1     -28.750   0.542  51.649  0.00  0.00    -0.003 A 
ATOM     18  C26 <0> A   1     -28.413  -0.710  51.176  0.00  0.00    +0.020 A 
ENDBRANCH   3  13
BRANCH   1  20
ATOM     19  C1  <0> A   1     -27.867  -7.033  49.191  0.00  0.00    +0.045 C 
ATOM     20  C2  <0> A   1     -28.547  -6.559  50.477  0.00  0.00    +0.043 C 
ATOM     21  C3  <0> A   1     -28.277  -7.567  51.597  0.00  0.00    +0.050 C 
ENDBRANCH   1  20
BRANCH   2  22
ATOM     22  S1  <0> A   1     -30.472  -4.138  51.530  0.00  0.00    +2.707 S 
ATOM     23  O5  <0> A   1     -30.824  -2.788  51.796  0.00  0.00    -0.953 OA
ATOM     24  O6  <0> A   1     -31.029  -4.873  50.448  0.00  0.00    -0.948 OA
BRANCH  22  25
ATOM     25  N2  <0> A   1     -30.809  -4.995  52.907  0.00  0.00    -0.998 NA
ATOM     26  C27 <0> A   1     -31.942  -5.933  52.957  0.00  0.00    +0.268 C 
ATOM     27  C28 <0> A   1     -31.437  -7.275  53.499  0.00  0.00    +0.209 C 
ATOM     28  O7  <0> A   1     -30.739  -7.054  54.727  0.00  0.00    -0.376 OA
ATOM     29  C29 <0> A   1     -29.574  -6.237  54.600  0.00  0.00    +0.212 C 
ATOM     30  C30 <0> A   1     -29.981  -4.847  54.114  0.00  0.00    +0.265 C 
ENDBRANCH  22  25
ENDBRANCH   2  22
BRANCH   5  31
ATOM     31  C8  <0> A   1     -25.573  -5.721  50.423  0.00  0.00    +0.296 C 
BRANCH  31  32
ATOM     32  C9  <0> A   1     -24.970  -6.407  51.651  0.00  0.00    -0.014 C 
BRANCH  32  33
ATOM     33  C10 <0> A   1     -24.138  -7.611  51.205  0.00  0.00    +0.218 C 
BRANCH  33  34
ATOM     34  O4  <0> A   1     -23.293  -8.030  52.279  0.00  0.00    -0.541 OA
ATOM     35  H19 <0> A   1     -23.741  -8.082  53.135  0.00  0.00    +0.367 HD
ENDBRANCH  33  34
BRANCH  33  36
ATOM     36  C11 <0> A   1     -25.070  -8.758  50.813  0.00  0.00    -0.047 C 
BRANCH  36  37
ATOM     37  C12 <0> A   1     -24.300  -9.776  49.969  0.00  0.00    +0.231 C 
BRANCH  37  38
ATOM     38  O3  <0> A   1     -22.938  -9.359  49.845  0.00  0.00    -0.528 OA
ATOM     39  H18 <0> A   1     -22.310 -10.089  49.755  0.00  0.00    +0.350 HD
ENDBRANCH  37  38
BRANCH  37  40
ATOM     40  C13 <0> A   1     -24.354 -11.146  50.647  0.00  0.00    -0.102 C 
BRANCH  40  41
ATOM     41  C14 <0> A   1     -24.273 -12.228  49.601  0.00  0.00    +0.491 C 
ATOM     42  O1  <0> A   1     -23.453 -12.147  48.702  0.00  0.00    -0.681 OA
ATOM     43  O2  <0> A   1     -25.027 -13.185  49.653  0.00  0.00    -0.712 OA
ENDBRANCH  40  41
ENDBRANCH  37  40
ENDBRANCH  36  37
ENDBRANCH  33  36
ENDBRANCH  32  33
ENDBRANCH  31  32
ENDBRANCH   5  31
TORSDOF 14
ENDMDL
MODEL 8
REMARK VINA RESULT:      -7.3      2.972      8.777
REMARK  Name = CHEMBL401949
REMARK  16 active torsions:
REMARK  status: ('A' for Active; 'I' for Inactive)
REMARK    1  A    between atoms: C1_1  and  C2_2
REMARK    2  A    between atoms: C2_2  and  C3_3
REMARK    3  A    between atoms: C2_2  and  C4_4
REMARK    4  A    between atoms: C5_5  and  S1_35
REMARK    5  A    between atoms: C6_6  and  C21_29
REMARK    6  A    between atoms: C7_7  and  C15_22
REMARK    7  A    between atoms: N1_8  and  C8_9
REMARK    8  A    between atoms: C8_9  and  C9_10
REMARK    9  A    between atoms: C9_10  and  C10_11
REMARK   10  A    between atoms: C10_11  and  C11_13
REMARK   11  A    between atoms: C10_11  and  O4_21
REMARK   12  A    between atoms: C11_13  and  C12_14
REMARK   13  A    between atoms: C12_14  and  C13_16
REMARK   14  A    between atoms: C12_14  and  O3_20
REMARK   15  A    between atoms: C13_16  and  C14_17
REMARK   16  A    between atoms: S1_35  and  N2_38
REMARK                            x       y       z     vdW  Elec       q    Type
REMARK                         _______ _______ _______ _____ _____    ______ ____
ROOT
ATOM      1  C4  <0> A   1     -14.126   9.895  46.755  0.00  0.00    +0.174 C 
ATOM      2  C5  <0> A   1     -13.780   8.902  45.914  0.00  0.00    -0.733 C 
ATOM      3  C6  <0> A   1     -14.626   7.799  46.180  0.00  0.00    -0.027 C 
ATOM      4  C7  <0> A   1     -15.476   8.184  47.203  0.00  0.00    +0.063 C 
ATOM      5  N1  <0> A   1     -15.153   9.470  47.548  0.00  0.00    -0.415 N 
ENDROOT
BRANCH   4   6
ATOM      6  C15 <0> A   1     -16.536   7.357  47.814  0.00  0.00    -0.029 A 
ATOM      7  C16 <0> A   1     -17.836   7.395  47.305  0.00  0.00    +0.046 A 
ATOM      8  C17 <0> A   1     -18.821   6.619  47.881  0.00  0.00    -0.007 A 
ATOM      9  C18 <0> A   1     -18.523   5.805  48.961  0.00  0.00    +0.106 A 
ATOM     10  C19 <0> A   1     -17.235   5.763  49.470  0.00  0.00    -0.008 A 
ATOM     11  C20 <0> A   1     -16.240   6.529  48.899  0.00  0.00    +0.075 A 
ATOM     12  F1  <0> A   1     -19.492   5.048  49.522  0.00  0.00    -0.137 F 
ENDBRANCH   4   6
BRANCH   3  13
ATOM     13  C21 <0> A   1     -14.606   6.486  45.494  0.00  0.00    -0.042 A 
ATOM     14  C22 <0> A   1     -14.013   5.384  46.109  0.00  0.00    +0.052 A 
ATOM     15  C23 <0> A   1     -13.998   4.163  45.467  0.00  0.00    +0.004 A 
ATOM     16  C24 <0> A   1     -14.569   4.031  44.214  0.00  0.00    +0.008 A 
ATOM     17  C25 <0> A   1     -15.159   5.120  43.598  0.00  0.00    -0.003 A 
ATOM     18  C26 <0> A   1     -15.185   6.345  44.233  0.00  0.00    +0.020 A 
ENDBRANCH   3  13
BRANCH   1  20
ATOM     19  C1  <0> A   1     -14.563  12.335  46.795  0.00  0.00    +0.045 C 
ATOM     20  C2  <0> A   1     -13.481  11.255  46.816  0.00  0.00    +0.043 C 
ATOM     21  C3  <0> A   1     -12.666  11.376  48.107  0.00  0.00    +0.050 C 
ENDBRANCH   1  20
BRANCH   2  22
ATOM     22  S1  <0> A   1     -12.503   8.964  44.701  0.00  0.00    +2.707 S 
ATOM     23  O5  <0> A   1     -11.647  10.037  45.067  0.00  0.00    -0.953 OA
ATOM     24  O6  <0> A   1     -12.033   7.633  44.538  0.00  0.00    -0.948 OA
BRANCH  22  25
ATOM     25  N2  <0> A   1     -13.212   9.394  43.266  0.00  0.00    -0.998 NA
ATOM     26  C27 <0> A   1     -13.805  10.729  43.085  0.00  0.00    +0.268 C 
ATOM     27  C28 <0> A   1     -13.251  11.333  41.789  0.00  0.00    +0.209 C 
ATOM     28  O7  <0> A   1     -13.436  10.404  40.719  0.00  0.00    -0.376 OA
ATOM     29  C29 <0> A   1     -12.736   9.169  40.888  0.00  0.00    +0.212 C 
ATOM     30  C30 <0> A   1     -13.260   8.456  42.134  0.00  0.00    +0.265 C 
ENDBRANCH  22  25
ENDBRANCH   2  22
BRANCH   5  31
ATOM     31  C8  <0> A   1     -15.804  10.260  48.595  0.00  0.00    +0.296 C 
BRANCH  31  32
ATOM     32  C9  <0> A   1     -15.258   9.843  49.962  0.00  0.00    -0.014 C 
BRANCH  32  33
ATOM     33  C10 <0> A   1     -16.423   9.609  50.926  0.00  0.00    +0.218 C 
BRANCH  33  34
ATOM     34  O4  <0> A   1     -16.299  10.488  52.046  0.00  0.00    -0.541 OA
ATOM     35  H19 <0> A   1     -15.983  10.055  52.853  0.00  0.00    +0.367 HD
ENDBRANCH  33  34
BRANCH  33  36
ATOM     36  C11 <0> A   1     -17.744   9.885  50.206  0.00  0.00    -0.047 C 
BRANCH  36  37
ATOM     37  C12 <0> A   1     -18.815   8.919  50.717  0.00  0.00    +0.231 C 
BRANCH  37  38
ATOM     38  O3  <0> A   1     -18.373   8.318  51.936  0.00  0.00    -0.528 OA
ATOM     39  H18 <0> A   1     -17.567   8.711  52.298  0.00  0.00    +0.350 HD
ENDBRANCH  37  38
BRANCH  37  40
ATOM     40  C13 <0> A   1     -20.114   9.686  50.970  0.00  0.00    -0.102 C 
BRANCH  40  41
ATOM     41  C14 <0> A   1     -21.274   8.918  50.390  0.00  0.00    +0.491 C 
ATOM     42  O1  <0> A   1     -22.263   9.513  49.998  0.00  0.00    -0.681 OA
ATOM     43  O2  <0> A   1     -21.222   7.702  50.311  0.00  0.00    -0.712 OA
ENDBRANCH  40  41
ENDBRANCH  37  40
ENDBRANCH  36  37
ENDBRANCH  33  36
ENDBRANCH  32  33
ENDBRANCH  31  32
ENDBRANCH   5  31
TORSDOF 14
ENDMDL
MODEL 9
REMARK VINA RESULT:      -7.3      2.809      5.095
REMARK  Name = CHEMBL401949
REMARK  16 active torsions:
REMARK  status: ('A' for Active; 'I' for Inactive)
REMARK    1  A    between atoms: C1_1  and  C2_2
REMARK    2  A    between atoms: C2_2  and  C3_3
REMARK    3  A    between atoms: C2_2  and  C4_4
REMARK    4  A    between atoms: C5_5  and  S1_35
REMARK    5  A    between atoms: C6_6  and  C21_29
REMARK    6  A    between atoms: C7_7  and  C15_22
REMARK    7  A    between atoms: N1_8  and  C8_9
REMARK    8  A    between atoms: C8_9  and  C9_10
REMARK    9  A    between atoms: C9_10  and  C10_11
REMARK   10  A    between atoms: C10_11  and  C11_13
REMARK   11  A    between atoms: C10_11  and  O4_21
REMARK   12  A    between atoms: C11_13  and  C12_14
REMARK   13  A    between atoms: C12_14  and  C13_16
REMARK   14  A    between atoms: C12_14  and  O3_20
REMARK   15  A    between atoms: C13_16  and  C14_17
REMARK   16  A    between atoms: S1_35  and  N2_38
REMARK                            x       y       z     vdW  Elec       q    Type
REMARK                         _______ _______ _______ _____ _____    ______ ____
ROOT
ATOM      1  C4  <0> A   1     -13.669  10.178  47.226  0.00  0.00    +0.174 C 
ATOM      2  C5  <0> A   1     -14.830   9.878  47.839  0.00  0.00    -0.733 C 
ATOM      3  C6  <0> A   1     -15.230   8.594  47.397  0.00  0.00    -0.027 C 
ATOM      4  C7  <0> A   1     -14.264   8.158  46.506  0.00  0.00    +0.063 C 
ATOM      5  N1  <0> A   1     -13.316   9.144  46.409  0.00  0.00    -0.415 N 
ENDROOT
BRANCH   4   6
ATOM      6  C15 <0> A   1     -14.257   6.868  45.788  0.00  0.00    -0.029 A 
ATOM      7  C16 <0> A   1     -13.759   5.721  46.412  0.00  0.00    +0.046 A 
ATOM      8  C17 <0> A   1     -13.756   4.519  45.736  0.00  0.00    -0.007 A 
ATOM      9  C18 <0> A   1     -14.245   4.447  44.442  0.00  0.00    +0.106 A 
ATOM     10  C19 <0> A   1     -14.741   5.581  43.818  0.00  0.00    -0.008 A 
ATOM     11  C20 <0> A   1     -14.755   6.788  44.486  0.00  0.00    +0.075 A 
ATOM     12  F1  <0> A   1     -14.239   3.267  43.784  0.00  0.00    -0.137 F 
ENDBRANCH   4   6
BRANCH   3  13
ATOM     13  C21 <0> A   1     -16.449   7.859  47.807  0.00  0.00    -0.042 A 
ATOM     14  C22 <0> A   1     -17.526   7.743  46.930  0.00  0.00    +0.052 A 
ATOM     15  C23 <0> A   1     -18.658   7.056  47.317  0.00  0.00    +0.004 A 
ATOM     16  C24 <0> A   1     -18.727   6.484  48.575  0.00  0.00    +0.008 A 
ATOM     17  C25 <0> A   1     -17.662   6.597  49.452  0.00  0.00    -0.003 A 
ATOM     18  C26 <0> A   1     -16.522   7.276  49.072  0.00  0.00    +0.020 A 
ENDBRANCH   3  13
BRANCH   1  20
ATOM     19  C1  <0> A   1     -11.423  11.120  47.688  0.00  0.00    +0.045 C 
ATOM     20  C2  <0> A   1     -12.889  11.454  47.408  0.00  0.00    +0.043 C 
ATOM     21  C3  <0> A   1     -12.984  12.296  46.133  0.00  0.00    +0.050 C 
ENDBRANCH   1  20
BRANCH   2  22
ATOM     22  S1  <0> A   1     -15.695  10.898  48.986  0.00  0.00    +2.707 S 
ATOM     23  O5  <0> A   1     -15.064  12.170  48.954  0.00  0.00    -0.953 OA
ATOM     24  O6  <0> A   1     -17.080  10.727  48.717  0.00  0.00    -0.948 OA
BRANCH  22  25
ATOM     25  N2  <0> A   1     -15.426  10.274  50.497  0.00  0.00    -0.998 NA
ATOM     26  C27 <0> A   1     -14.085   9.822  50.901  0.00  0.00    +0.268 C 
ATOM     27  C28 <0> A   1     -13.743  10.468  52.249  0.00  0.00    +0.209 C 
ATOM     28  O7  <0> A   1     -14.804  10.219  53.174  0.00  0.00    -0.376 OA
ATOM     29  C29 <0> A   1     -16.058  10.788  52.793  0.00  0.00    +0.212 C 
ATOM     30  C30 <0> A   1     -16.518  10.163  51.476  0.00  0.00    +0.265 C 
ENDBRANCH  22  25
ENDBRANCH   2  22
BRANCH   5  31
ATOM     31  C8  <0> A   1     -12.119   9.094  45.567  0.00  0.00    +0.296 C 
BRANCH  31  32
ATOM     32  C9  <0> A   1     -12.483   9.506  44.138  0.00  0.00    -0.014 C 
BRANCH  32  33
ATOM     33  C10 <0> A   1     -11.719   8.629  43.144  0.00  0.00    +0.218 C 
BRANCH  33  34
ATOM     34  O4  <0> A   1     -11.521   7.330  43.708  0.00  0.00    -0.541 OA
ATOM     35  H19 <0> A   1     -11.059   6.713  43.123  0.00  0.00    +0.367 HD
ENDBRANCH  33  34
BRANCH  33  36
ATOM     36  C11 <0> A   1     -12.524   8.505  41.850  0.00  0.00    -0.047 C 
BRANCH  36  37
ATOM     37  C12 <0> A   1     -12.795   9.899  41.282  0.00  0.00    +0.231 C 
BRANCH  37  38
ATOM     38  O3  <0> A   1     -11.553  10.543  40.987  0.00  0.00    -0.528 OA
ATOM     39  H18 <0> A   1     -11.647  11.450  40.666  0.00  0.00    +0.350 HD
ENDBRANCH  37  38
BRANCH  37  40
ATOM     40  C13 <0> A   1     -13.622   9.776  40.001  0.00  0.00    -0.102 C 
BRANCH  40  41
ATOM     41  C14 <0> A   1     -14.167  11.130  39.622  0.00  0.00    +0.491 C 
ATOM     42  O1  <0> A   1     -13.521  11.863  38.892  0.00  0.00    -0.681 OA
ATOM     43  O2  <0> A   1     -15.252  11.491  40.044  0.00  0.00    -0.712 OA
ENDBRANCH  40  41
ENDBRANCH  37  40
ENDBRANCH  36  37
ENDBRANCH  33  36
ENDBRANCH  32  33
ENDBRANCH  31  32
ENDBRANCH   5  31
TORSDOF 14
ENDMDL
MODEL 10
REMARK VINA RESULT:      -7.3      2.588      7.614
REMARK  Name = CHEMBL401949
REMARK  16 active torsions:
REMARK  status: ('A' for Active; 'I' for Inactive)
REMARK    1  A    between atoms: C1_1  and  C2_2
REMARK    2  A    between atoms: C2_2  and  C3_3
REMARK    3  A    between atoms: C2_2  and  C4_4
REMARK    4  A    between atoms: C5_5  and  S1_35
REMARK    5  A    between atoms: C6_6  and  C21_29
REMARK    6  A    between atoms: C7_7  and  C15_22
REMARK    7  A    between atoms: N1_8  and  C8_9
REMARK    8  A    between atoms: C8_9  and  C9_10
REMARK    9  A    between atoms: C9_10  and  C10_11
REMARK   10  A    between atoms: C10_11  and  C11_13
REMARK   11  A    between atoms: C10_11  and  O4_21
REMARK   12  A    between atoms: C11_13  and  C12_14
REMARK   13  A    between atoms: C12_14  and  C13_16
REMARK   14  A    between atoms: C12_14  and  O3_20
REMARK   15  A    between atoms: C13_16  and  C14_17
REMARK   16  A    between atoms: S1_35  and  N2_38
REMARK                            x       y       z     vdW  Elec       q    Type
REMARK                         _______ _______ _______ _____ _____    ______ ____
ROOT
ATOM      1  C4  <0> A   1     -13.853   7.395  45.376  0.00  0.00    +0.174 C 
ATOM      2  C5  <0> A   1     -13.051   8.461  45.565  0.00  0.00    -0.733 C 
ATOM      3  C6  <0> A   1     -13.496   9.132  46.729  0.00  0.00    -0.027 C 
ATOM      4  C7  <0> A   1     -14.583   8.422  47.211  0.00  0.00    +0.063 C 
ATOM      5  N1  <0> A   1     -14.792   7.363  46.367  0.00  0.00    -0.415 N 
ENDROOT
BRANCH   4   6
ATOM      6  C15 <0> A   1     -15.376   8.749  48.413  0.00  0.00    -0.029 A 
ATOM      7  C16 <0> A   1     -15.153   8.061  49.608  0.00  0.00    +0.046 A 
ATOM      8  C17 <0> A   1     -15.897   8.372  50.728  0.00  0.00    -0.007 A 
ATOM      9  C18 <0> A   1     -16.862   9.363  50.668  0.00  0.00    +0.106 A 
ATOM     10  C19 <0> A   1     -17.087  10.050  49.485  0.00  0.00    -0.008 A 
ATOM     11  C20 <0> A   1     -16.345   9.752  48.361  0.00  0.00    +0.075 A 
ATOM     12  F1  <0> A   1     -17.588   9.663  51.768  0.00  0.00    -0.137 F 
ENDBRANCH   4   6
BRANCH   3  13
ATOM     13  C21 <0> A   1     -12.911  10.360  47.318  0.00  0.00    -0.042 A 
ATOM     14  C22 <0> A   1     -11.891  10.264  48.264  0.00  0.00    +0.052 A 
ATOM     15  C23 <0> A   1     -11.350  11.410  48.809  0.00  0.00    +0.004 A 
ATOM     16  C24 <0> A   1     -11.818  12.653  48.420  0.00  0.00    +0.008 A 
ATOM     17  C25 <0> A   1     -12.831  12.754  47.483  0.00  0.00    -0.003 A 
ATOM     18  C26 <0> A   1     -13.376  11.614  46.926  0.00  0.00    +0.020 A 
ENDBRANCH   3  13
BRANCH   1  20
ATOM     19  C1  <0> A   1     -14.008   4.993  44.781  0.00  0.00    +0.045 C 
ATOM     20  C2  <0> A   1     -13.737   6.402  44.250  0.00  0.00    +0.043 C 
ATOM     21  C3  <0> A   1     -14.761   6.741  43.163  0.00  0.00    +0.050 C 
ENDBRANCH   1  20
BRANCH   2  22
ATOM     22  S1  <0> A   1     -11.693   8.934  44.547  0.00  0.00    +2.707 S 
ATOM     23  O5  <0> A   1     -10.871   9.783  45.335  0.00  0.00    -0.953 OA
ATOM     24  O6  <0> A   1     -11.204   7.743  43.945  0.00  0.00    -0.948 OA
BRANCH  22  25
ATOM     25  N2  <0> A   1     -12.301   9.868  43.322  0.00  0.00    -0.998 NA
ATOM     26  C27 <0> A   1     -12.118   9.483  41.913  0.00  0.00    +0.268 C 
ATOM     27  C28 <0> A   1     -13.484   9.529  41.218  0.00  0.00    +0.209 C 
ATOM     28  O7  <0> A   1     -14.091  10.800  41.455  0.00  0.00    -0.376 OA
ATOM     29  C29 <0> A   1     -14.362  11.072  42.832  0.00  0.00    +0.212 C 
ATOM     30  C30 <0> A   1     -13.047  11.104  43.610  0.00  0.00    +0.265 C 
ENDBRANCH  22  25
ENDBRANCH   2  22
BRANCH   5  31
ATOM     31  C8  <0> A   1     -15.849   6.359  46.506  0.00  0.00    +0.296 C 
BRANCH  31  32
ATOM     32  C9  <0> A   1     -17.177   6.946  46.022  0.00  0.00    -0.014 C 
BRANCH  32  33
ATOM     33  C10 <0> A   1     -18.174   6.977  47.183  0.00  0.00    +0.218 C 
BRANCH  33  34
ATOM     34  O4  <0> A   1     -19.492   6.737  46.685  0.00  0.00    -0.541 OA
ATOM     35  H19 <0> A   1     -19.877   7.489  46.213  0.00  0.00    +0.367 HD
ENDBRANCH  33  34
BRANCH  33  36
ATOM     36  C11 <0> A   1     -17.807   5.892  48.197  0.00  0.00    -0.047 C 
BRANCH  36  37
ATOM     37  C12 <0> A   1     -18.549   6.150  49.510  0.00  0.00    +0.231 C 
BRANCH  37  38
ATOM     38  O3  <0> A   1     -19.399   7.290  49.361  0.00  0.00    -0.528 OA
ATOM     39  H18 <0> A   1     -19.861   7.545  50.171  0.00  0.00    +0.350 HD
ENDBRANCH  37  38
BRANCH  37  40
ATOM     40  C13 <0> A   1     -19.395   4.927  49.867  0.00  0.00    -0.102 C 
BRANCH  40  41
ATOM     41  C14 <0> A   1     -20.831   5.180  49.485  0.00  0.00    +0.491 C 
ATOM     42  O1  <0> A   1     -21.183   5.057  48.323  0.00  0.00    -0.681 OA
ATOM     43  O2  <0> A   1     -21.642   5.504  50.335  0.00  0.00    -0.712 OA
ENDBRANCH  40  41
ENDBRANCH  37  40
ENDBRANCH  36  37
ENDBRANCH  33  36
ENDBRANCH  32  33
ENDBRANCH  31  32
ENDBRANCH   5  31
TORSDOF 14
ENDMDL
