REMARK VINA RESULT:      -7.8      9.566     15.631
REMARK  Name = CHEMBL228955
REMARK  14 active torsions:
REMARK  status: ('A' for Active; 'I' for Inactive)
REMARK    1  A    between atoms: C1_1  and  C2_2
REMARK    2  A    between atoms: C2_2  and  C3_3
REMARK    3  A    between atoms: C2_2  and  N1_4
REMARK    4  A    between atoms: C4_5  and  C24_28
REMARK    5  A    between atoms: C5_6  and  C18_21
REMARK    6  A    between atoms: N2_11  and  C12_15
REMARK    7  A    between atoms: C24_28  and  C25_29
REMARK    8  A    between atoms: C25_29  and  C26_30
REMARK    9  A    between atoms: C26_30  and  C27_32
REMARK   10  A    between atoms: C26_30  and  O5_40
REMARK   11  A    between atoms: C27_32  and  C28_33
REMARK   12  A    between atoms: C28_33  and  C29_35
REMARK   13  A    between atoms: C28_33  and  O4_39
REMARK   14  A    between atoms: C29_35  and  C30_36
REMARK                            x       y       z     vdW  Elec       q    Type
REMARK                         _______ _______ _______ _____ _____    ______ ____
ROOT
ATOM      1  N1  <0> A   1     -24.198  -2.402  52.103  0.00  0.00    -0.392 N 
ATOM      2  C4  <0> A   1     -24.864  -1.237  52.203  0.00  0.00    +0.101 C 
ATOM      3  C5  <0> A   1     -26.100  -1.398  51.652  0.00  0.00    -0.157 C 
ATOM      4  C6  <0> A   1     -26.190  -2.732  51.191  0.00  0.00    -0.071 C 
ATOM      5  C7  <0> A   1     -25.007  -3.341  51.482  0.00  0.00    -0.044 C 
ATOM      6  C8  <0> A   1     -24.598  -4.716  51.239  0.00  0.00    +0.593 C 
ATOM      7  O1  <0> A   1     -23.474  -5.002  51.610  0.00  0.00    -0.552 OA
ATOM      8  N2  <0> A   1     -25.271  -5.692  50.676  0.00  0.00    -0.540 N 
ATOM      9  C9  <0> A   1     -26.574  -5.660  50.067  0.00  0.00    +0.265 C 
ATOM     10  C10 <0> A   1     -27.570  -4.778  50.770  0.00  0.00    +0.026 C 
ATOM     11  C11 <0> A   1     -27.383  -3.313  50.500  0.00  0.00    +0.101 C 
ENDROOT
BRANCH   3  12
ATOM     12  C18 <0> A   1     -27.159  -0.362  51.554  0.00  0.00    -0.006 A 
ATOM     13  C19 <0> A   1     -27.177   0.516  50.473  0.00  0.00    +0.049 A 
ATOM     14  C20 <0> A   1     -28.164   1.478  50.385  0.00  0.00    -0.015 A 
ATOM     15  C21 <0> A   1     -29.134   1.571  51.369  0.00  0.00    +0.093 A 
ATOM     16  C22 <0> A   1     -29.118   0.700  52.446  0.00  0.00    -0.017 A 
ATOM     17  C23 <0> A   1     -28.139  -0.268  52.539  0.00  0.00    +0.050 A 
ATOM     18  F1  <0> A   1     -30.097   2.514  51.280  0.00  0.00    -0.142 F 
ENDBRANCH   3  12
BRANCH   8  19
ATOM     19  C12 <0> A   1     -24.633  -6.936  50.667  0.00  0.00    +0.139 A 
ATOM     20  C13 <0> A   1     -24.387  -7.601  51.860  0.00  0.00    +0.021 A 
ATOM     21  C14 <0> A   1     -23.756  -8.829  51.848  0.00  0.00    +0.015 A 
ATOM     22  C15 <0> A   1     -23.370  -9.398  50.648  0.00  0.00    +0.006 A 
ATOM     23  C16 <0> A   1     -23.613  -8.738  49.457  0.00  0.00    +0.016 A 
ATOM     24  C17 <0> A   1     -24.248  -7.512  49.463  0.00  0.00    +0.007 A 
ENDBRANCH   8  19
BRANCH   1  26
ATOM     25  C1  <0> A   1     -21.837  -2.134  51.522  0.00  0.00    +0.038 C 
ATOM     26  C2  <0> A   1     -22.830  -2.638  52.572  0.00  0.00    +0.242 C 
ATOM     27  C3  <0> A   1     -22.605  -1.889  53.887  0.00  0.00    +0.039 C 
ENDBRANCH   1  26
BRANCH   2  28
ATOM     28  C24 <0> A   1     -24.334   0.031  52.820  0.00  0.00    +0.115 C 
BRANCH  28  29
ATOM     29  C25 <0> A   1     -23.766   0.934  51.723  0.00  0.00    -0.006 C 
BRANCH  29  30
ATOM     30  C26 <0> A   1     -22.702   1.855  52.320  0.00  0.00    +0.212 C 
BRANCH  30  31
ATOM     31  O5  <0> A   1     -21.410   1.272  52.137  0.00  0.00    -0.541 OA
ATOM     32  H34 <0> A   1     -20.859   1.280  52.931  0.00  0.00    +0.362 HD
ENDBRANCH  30  31
BRANCH  30  33
ATOM     33  C27 <0> A   1     -22.751   3.215  51.619  0.00  0.00    -0.051 C 
BRANCH  33  34
ATOM     34  C28 <0> A   1     -21.431   3.459  50.885  0.00  0.00    +0.231 C 
BRANCH  34  35
ATOM     35  O4  <0> A   1     -21.383   2.646  49.710  0.00  0.00    -0.528 OA
ATOM     36  H33 <0> A   1     -22.082   2.837  49.070  0.00  0.00    +0.349 HD
ENDBRANCH  34  35
BRANCH  34  37
ATOM     37  C29 <0> A   1     -21.334   4.933  50.488  0.00  0.00    -0.103 C 
BRANCH  37  38
ATOM     38  C30 <0> A   1     -20.468   5.067  49.261  0.00  0.00    +0.490 C 
ATOM     39  O2  <0> A   1     -19.273   4.840  49.331  0.00  0.00    -0.681 OA
ATOM     40  O3  <0> A   1     -20.965   5.403  48.199  0.00  0.00    -0.713 OA
ENDBRANCH  37  38
ENDBRANCH  34  37
ENDBRANCH  33  34
ENDBRANCH  30  33
ENDBRANCH  29  30
ENDBRANCH  28  29
ENDBRANCH   2  28
TORSDOF 12
