REMARK VINA RESULT:      -7.4      3.740      5.293
REMARK  Name = CHEMBL121052
REMARK  12 active torsions:
REMARK  status: ('A' for Active; 'I' for Inactive)
REMARK    1  A    between atoms: C3_3  and  C5_6
REMARK    2  A    between atoms: C6_7  and  C16_28
REMARK    3  A    between atoms: C7_9  and  C15_24
REMARK    4  A    between atoms: N2_10  and  C8_11
REMARK    5  A    between atoms: C8_11  and  C9_12
REMARK    6  A    between atoms: C9_12  and  C10_13
REMARK    7  A    between atoms: C10_13  and  C11_15
REMARK    8  A    between atoms: C10_13  and  O4_23
REMARK    9  A    between atoms: C11_15  and  C12_16
REMARK   10  A    between atoms: C12_16  and  C13_18
REMARK   11  A    between atoms: C12_16  and  O3_22
REMARK   12  A    between atoms: C13_18  and  C14_19
REMARK                            x       y       z     vdW  Elec       q    Type
REMARK                         _______ _______ _______ _____ _____    ______ ____
ROOT
ATOM      1  C5  <0> A   1     -13.001   7.081  45.928  0.00  0.00    +0.115 C 
ATOM      2  C6  <0> A   1     -13.162   6.138  46.930  0.00  0.00    +0.073 C 
ATOM      3  N1  <0> A   1     -14.011   5.199  46.470  0.00  0.00    -0.413 NA
ATOM      4  C7  <0> A   1     -14.379   5.501  45.256  0.00  0.00    +0.119 C 
ATOM      5  N2  <0> A   1     -13.785   6.661  44.876  0.00  0.00    -0.413 N 
ENDROOT
BRANCH   2   6
ATOM      6  C16 <0> A   1     -12.519   6.158  48.265  0.00  0.00    -0.015 A 
ATOM      7  C17 <0> A   1     -13.249   6.547  49.387  0.00  0.00    +0.066 A 
ATOM      8  C18 <0> A   1     -12.645   6.565  50.627  0.00  0.00    -0.013 A 
ATOM      9  C19 <0> A   1     -11.316   6.195  50.759  0.00  0.00    +0.103 A 
ATOM     10  C20 <0> A   1     -10.586   5.808  49.646  0.00  0.00    -0.015 A 
ATOM     11  C21 <0> A   1     -11.182   5.781  48.403  0.00  0.00    +0.080 A 
ATOM     12  F4  <0> A   1     -10.729   6.213  51.975  0.00  0.00    -0.139 F 
ENDBRANCH   2   6
BRANCH   1  15
ATOM     13  C1  <0> A   1     -11.533  10.542  46.356  0.00  0.00    -0.020 C 
ATOM     14  C2  <0> A   1     -12.500   9.564  46.401  0.00  0.00    +0.032 C 
ATOM     15  C3  <0> A   1     -12.165   8.290  45.980  0.00  0.00    -0.117 C 
ATOM     16  S1  <0> A   1     -10.453   8.495  45.516  0.00  0.00    +0.081 S 
ATOM     17  C4  <0> A   1     -10.292  10.230  45.903  0.00  0.00    +0.032 C 
ENDBRANCH   1  15
BRANCH   4  18
ATOM     18  C15 <0> A   1     -15.324   4.689  44.407  0.00  0.00    +0.565 C 
ATOM     19  F1  <0> A   1     -14.624   4.131  43.332  0.00  0.00    -0.148 F 
ATOM     20  F2  <0> A   1     -15.883   3.667  45.181  0.00  0.00    -0.166 F 
ATOM     21  F3  <0> A   1     -16.343   5.517  43.922  0.00  0.00    -0.161 F 
ENDBRANCH   4  18
BRANCH   5  22
ATOM     22  C8  <0> A   1     -13.945   7.339  43.588  0.00  0.00    +0.309 C 
BRANCH  22  23
ATOM     23  C9  <0> A   1     -12.733   7.044  42.702  0.00  0.00    -0.012 C 
BRANCH  23  24
ATOM     24  C10 <0> A   1     -12.351   8.306  41.925  0.00  0.00    +0.223 C 
BRANCH  24  25
ATOM     25  O4  <0> A   1     -12.195   7.983  40.542  0.00  0.00    -0.537 OA
ATOM     26  H15 <0> A   1     -12.640   8.596  39.942  0.00  0.00    +0.365 HD
ENDBRANCH  24  25
BRANCH  24  27
ATOM     27  C11 <0> A   1     -13.452   9.356  42.083  0.00  0.00    -0.045 C 
BRANCH  27  28
ATOM     28  C12 <0> A   1     -12.928  10.718  41.626  0.00  0.00    +0.233 C 
BRANCH  28  29
ATOM     29  O3  <0> A   1     -11.545  10.604  41.280  0.00  0.00    -0.527 OA
ATOM     30  H14 <0> A   1     -11.014  11.373  41.528  0.00  0.00    +0.350 HD
ENDBRANCH  28  29
BRANCH  28  31
ATOM     31  C13 <0> A   1     -13.723  11.187  40.405  0.00  0.00    -0.101 C 
BRANCH  31  32
ATOM     32  C14 <0> A   1     -12.840  11.144  39.184  0.00  0.00    +0.491 C 
ATOM     33  O1  <0> A   1     -12.366  12.175  38.738  0.00  0.00    -0.681 OA
ATOM     34  O2  <0> A   1     -12.600  10.078  38.643  0.00  0.00    -0.712 OA
ENDBRANCH  31  32
ENDBRANCH  28  31
ENDBRANCH  27  28
ENDBRANCH  24  27
ENDBRANCH  23  24
ENDBRANCH  22  23
ENDBRANCH   5  22
TORSDOF 12
