REMARK VINA RESULT:      -7.0     32.192     33.784
REMARK  Name = CHEMBL121658
REMARK  8 active torsions:
REMARK  status: ('A' for Active; 'I' for Inactive)
REMARK    1  A    between atoms: C1_1  and  C2_2
REMARK    2  A    between atoms: C2_2  and  C3_3
REMARK    3  A    between atoms: C2_2  and  C4_4
REMARK    4  A    between atoms: C7_7  and  C15_21
REMARK    5  A    between atoms: N1_8  and  C8_9
REMARK    6  A    between atoms: C8_9  and  C9_10
REMARK    7  A    between atoms: C9_10  and  C10_11
REMARK    8  A    between atoms: C12_14  and  O3_20
REMARK                            x       y       z     vdW  Elec       q    Type
REMARK                         _______ _______ _______ _____ _____    ______ ____
ROOT
ATOM      1  C4  <0> A   1     -27.877  -5.201  51.969  0.00  0.00    +0.091 C 
ATOM      2  C5  <0> A   1     -28.714  -4.144  51.893  0.00  0.00    -0.142 C 
ATOM      3  C6  <0> A   1     -27.928  -2.984  51.774  0.00  0.00    -0.122 C 
ATOM      4  C7  <0> A   1     -26.622  -3.376  51.782  0.00  0.00    +0.096 C 
ATOM      5  N1  <0> A   1     -26.594  -4.743  51.908  0.00  0.00    -0.421 N 
ATOM      6 Br1  <0> A   1     -28.565  -1.210  51.629  0.00  0.00    -0.009 Br
ATOM      7 Br2  <0> A   1     -30.603  -4.211  51.937  0.00  0.00    -0.008 Br
ENDROOT
BRANCH   4   8
ATOM      8  C15 <0> A   1     -25.447  -2.487  51.678  0.00  0.00    -0.040 A 
ATOM      9  C16 <0> A   1     -24.966  -2.106  50.424  0.00  0.00    +0.052 A 
ATOM     10  C17 <0> A   1     -23.868  -1.275  50.333  0.00  0.00    -0.008 A 
ATOM     11  C18 <0> A   1     -23.244  -0.819  51.483  0.00  0.00    +0.110 A 
ATOM     12  C19 <0> A   1     -23.716  -1.196  52.730  0.00  0.00    -0.005 A 
ATOM     13  C20 <0> A   1     -24.816  -2.021  52.833  0.00  0.00    +0.082 A 
ATOM     14  F1  <0> A   1     -22.169  -0.006  51.388  0.00  0.00    -0.135 F 
ENDBRANCH   4   8
BRANCH   1  16
ATOM     15  C1  <0> A   1     -29.158  -6.809  53.356  0.00  0.00    +0.041 C 
ATOM     16  C2  <0> A   1     -28.291  -6.644  52.107  0.00  0.00    +0.052 C 
ATOM     17  C3  <0> A   1     -29.090  -7.064  50.871  0.00  0.00    +0.042 C 
ENDBRANCH   1  16
BRANCH   5  18
ATOM     18  C8  <0> A   1     -25.386  -5.570  51.964  0.00  0.00    +0.303 C 
BRANCH  18  19
ATOM     19  C9  <0> A   1     -25.076  -6.115  50.569  0.00  0.00    +0.055 C 
BRANCH  19  20
ATOM     20  C10 <0> A   1     -24.252  -7.398  50.694  0.00  0.00    +0.205 C 
ATOM     21  C11 <0> A   1     -25.111  -8.598  50.286  0.00  0.00    +0.046 C 
ATOM     22  C12 <0> A   1     -24.297  -9.885  50.452  0.00  0.00    +0.187 C 
ATOM     23  C13 <0> A   1     -23.866 -10.013  51.919  0.00  0.00    +0.025 C 
ATOM     24  C14 <0> A   1     -23.197  -8.721  52.333  0.00  0.00    +0.497 C 
ATOM     25  O1  <0> A   1     -22.129  -8.728  52.899  0.00  0.00    -0.449 OA
ATOM     26  O2  <0> A   1     -23.825  -7.561  52.051  0.00  0.00    -0.371 OA
BRANCH  22  27
ATOM     27  O3  <0> A   1     -23.140  -9.831  49.615  0.00  0.00    -0.564 OA
ATOM     28  H18 <0> A   1     -23.129  -9.077  49.008  0.00  0.00    +0.388 HD
ENDBRANCH  22  27
ENDBRANCH  19  20
ENDBRANCH  18  19
ENDBRANCH   5  18
TORSDOF 6
