REMARK VINA RESULT:      -8.3     13.907     19.053
REMARK  Name = CHEMBL444210
REMARK  17 active torsions:
REMARK  status: ('A' for Active; 'I' for Inactive)
REMARK    1  A    between atoms: C1_1  and  C2_2
REMARK    2  A    between atoms: C2_2  and  C3_3
REMARK    3  A    between atoms: C2_2  and  C4_4
REMARK    4  A    between atoms: C5_5  and  C20_29
REMARK    5  A    between atoms: C6_7  and  C14_22
REMARK    6  A    between atoms: N2_8  and  C7_9
REMARK    7  A    between atoms: C7_9  and  C8_10
REMARK    8  A    between atoms: C8_10  and  C9_11
REMARK    9  A    between atoms: C9_11  and  C10_13
REMARK   10  A    between atoms: C9_11  and  O4_21
REMARK   11  A    between atoms: C10_13  and  C11_14
REMARK   12  A    between atoms: C11_14  and  C12_16
REMARK   13  A    between atoms: C11_14  and  O3_20
REMARK   14  A    between atoms: C12_16  and  C13_17
REMARK   15  A    between atoms: N3_31  and  C21_32
REMARK   16  A    between atoms: C21_32  and  C22_33
REMARK   17  A    between atoms: C26_37  and  C28_39
REMARK                            x       y       z     vdW  Elec       q    Type
REMARK                         _______ _______ _______ _____ _____    ______ ____
ROOT
ATOM      1  C4  <0> A   1     -28.583  -4.302  52.322  0.00  0.00    +0.092 C 
ATOM      2  C5  <0> A   1     -29.715  -3.859  52.945  0.00  0.00    -0.064 C 
ATOM      3  N1  <0> A   1     -30.420  -4.938  53.342  0.00  0.00    -0.446 NA
ATOM      4  C6  <0> A   1     -29.774  -6.024  52.992  0.00  0.00    +0.246 C 
ATOM      5  N2  <0> A   1     -28.624  -5.661  52.348  0.00  0.00    -0.436 N 
ENDROOT
BRANCH   4   6
ATOM      6  C14 <0> A   1     -30.218  -7.412  53.246  0.00  0.00    -0.022 A 
ATOM      7  C15 <0> A   1     -30.064  -7.975  54.513  0.00  0.00    +0.046 A 
ATOM      8  C16 <0> A   1     -30.480  -9.270  54.745  0.00  0.00    -0.001 A 
ATOM      9  C17 <0> A   1     -31.051 -10.010  53.721  0.00  0.00    +0.109 A 
ATOM     10  C18 <0> A   1     -31.205  -9.456  52.461  0.00  0.00    -0.010 A 
ATOM     11  C19 <0> A   1     -30.798  -8.160  52.221  0.00  0.00    +0.094 A 
ATOM     12  F1  <0> A   1     -31.456 -11.278  53.953  0.00  0.00    -0.136 F 
ENDBRANCH   4   6
BRANCH   2  13
ATOM     13  C20 <0> A   1     -30.098  -2.451  53.148  0.00  0.00    +0.610 C 
ATOM     14  O5  <0> A   1     -30.191  -2.001  54.274  0.00  0.00    -0.540 OA
ATOM     15  N3  <0> A   1     -30.348  -1.660  52.085  0.00  0.00    -0.715 N 
ATOM     16  H24 <0> A   1     -30.275  -2.019  51.187  0.00  0.00    +0.410 HD
BRANCH  15  17
ATOM     17  C21 <0> A   1     -30.729  -0.261  52.287  0.00  0.00    +0.320 C 
BRANCH  17  18
ATOM     18  C22 <0> A   1     -29.560   0.631  51.957  0.00  0.00    -0.106 A 
ATOM     19  C23 <0> A   1     -29.753   1.991  51.794  0.00  0.00    +0.035 A 
ATOM     20  C24 <0> A   1     -28.684   2.815  51.492  0.00  0.00    +0.010 A 
ATOM     21  C25 <0> A   1     -27.418   2.284  51.350  0.00  0.00    +0.034 A 
ATOM     22  C26 <0> A   1     -27.218   0.915  51.513  0.00  0.00    -0.054 A 
ATOM     23  C27 <0> A   1     -28.297   0.090  51.823  0.00  0.00    +0.047 A 
BRANCH  22  24
ATOM     24  C28 <0> A   1     -25.859   0.338  51.362  0.00  0.00    -0.080 A 
ATOM     25  C29 <0> A   1     -24.900   0.538  52.354  0.00  0.00    +0.058 A 
ATOM     26  C30 <0> A   1     -23.637  -0.000  52.207  0.00  0.00    +0.006 A 
ATOM     27  C31 <0> A   1     -23.322  -0.738  51.081  0.00  0.00    +0.045 A 
ATOM     28  C32 <0> A   1     -24.268  -0.941  50.093  0.00  0.00    -0.017 A 
ATOM     29  C33 <0> A   1     -25.538  -0.412  50.230  0.00  0.00    +0.108 A 
ATOM     30  F2  <0> A   1     -26.464  -0.616  49.267  0.00  0.00    -0.134 F 
ENDBRANCH  22  24
ENDBRANCH  17  18
ENDBRANCH  15  17
ENDBRANCH   2  13
BRANCH   1  32
ATOM     31  C1  <0> A   1     -26.133  -4.057  52.035  0.00  0.00    +0.032 C 
ATOM     32  C2  <0> A   1     -27.500  -3.448  51.717  0.00  0.00    +0.086 C 
ATOM     33  C3  <0> A   1     -27.689  -3.384  50.200  0.00  0.00    +0.034 C 
ENDBRANCH   1  32
BRANCH   5  34
ATOM     34  C7  <0> A   1     -27.619  -6.569  51.789  0.00  0.00    +0.304 C 
BRANCH  34  35
ATOM     35  C8  <0> A   1     -27.968  -6.880  50.332  0.00  0.00    -0.015 C 
BRANCH  35  36
ATOM     36  C9  <0> A   1     -26.715  -7.367  49.601  0.00  0.00    +0.219 C 
BRANCH  36  37
ATOM     37  O4  <0> A   1     -26.069  -6.259  48.972  0.00  0.00    -0.538 OA
ATOM     38  H19 <0> A   1     -25.207  -6.039  49.353  0.00  0.00    +0.367 HD
ENDBRANCH  36  37
BRANCH  36  39
ATOM     39  C10 <0> A   1     -25.758  -8.014  50.605  0.00  0.00    -0.046 C 
BRANCH  39  40
ATOM     40  C11 <0> A   1     -24.316  -7.654  50.239  0.00  0.00    +0.232 C 
BRANCH  40  41
ATOM     41  O3  <0> A   1     -23.852  -6.614  51.104  0.00  0.00    -0.527 OA
ATOM     42  H18 <0> A   1     -24.320  -5.775  50.997  0.00  0.00    +0.351 HD
ENDBRANCH  40  41
BRANCH  40  43
ATOM     43  C12 <0> A   1     -23.426  -8.888  50.402  0.00  0.00    -0.102 C 
BRANCH  43  44
ATOM     44  C13 <0> A   1     -23.327  -9.247  51.863  0.00  0.00    +0.491 C 
ATOM     45  O1  <0> A   1     -23.863 -10.260  52.279  0.00  0.00    -0.681 OA
ATOM     46  O2  <0> A   1     -22.712  -8.524  52.628  0.00  0.00    -0.712 OA
ENDBRANCH  43  44
ENDBRANCH  40  43
ENDBRANCH  39  40
ENDBRANCH  36  39
ENDBRANCH  35  36
ENDBRANCH  34  35
ENDBRANCH   5  34
TORSDOF 15
