REMARK VINA RESULT:      -8.0      2.678      4.780
REMARK  Name = CHEMBL154335
REMARK  8 active torsions:
REMARK  status: ('A' for Active; 'I' for Inactive)
REMARK    1  A    between atoms: C1_1  and  C2_2
REMARK    2  A    between atoms: C2_2  and  C3_3
REMARK    3  A    between atoms: C2_2  and  C4_4
REMARK    4  A    between atoms: C5_5  and  C20_23
REMARK    5  A    between atoms: C6_6  and  C14_16
REMARK    6  A    between atoms: C7_8  and  C8_10
REMARK    7  A    between atoms: C21_24  and  C22_25
REMARK    8  A    between atoms: C24_27  and  O3_33
REMARK                            x       y       z     vdW  Elec       q    Type
REMARK                         _______ _______ _______ _____ _____    ______ ____
ROOT
ATOM      1  C4  <0> A   1     -27.704  -3.029  50.410  0.00  0.00    +0.204 A 
ATOM      2  C5  <0> A   1     -26.383  -3.259  50.804  0.00  0.00    -0.160 A 
ATOM      3  C6  <0> A   1     -25.602  -2.147  51.182  0.00  0.00    +0.230 A 
ATOM      4  N1  <0> A   1     -26.155  -0.937  51.149  0.00  0.00    -0.504 NA
ATOM      5  C7  <0> A   1     -27.405  -0.776  50.770  0.00  0.00    +0.335 A 
ATOM      6  N2  <0> A   1     -28.165  -1.791  50.403  0.00  0.00    -0.510 NA
ENDROOT
BRANCH   3   7
ATOM      7  C14 <0> A   1     -24.194  -2.323  51.609  0.00  0.00    -0.071 A 
ATOM      8  C15 <0> A   1     -23.228  -2.720  50.686  0.00  0.00    +0.086 A 
ATOM      9  C16 <0> A   1     -21.919  -2.884  51.087  0.00  0.00    -0.018 A 
ATOM     10  C17 <0> A   1     -21.564  -2.653  52.407  0.00  0.00    +0.120 A 
ATOM     11  C18 <0> A   1     -22.521  -2.259  53.329  0.00  0.00    -0.020 A 
ATOM     12  C19 <0> A   1     -23.831  -2.087  52.935  0.00  0.00    +0.096 A 
ATOM     13  F1  <0> A   1     -20.280  -2.816  52.797  0.00  0.00    -0.135 F 
ENDBRANCH   3   7
BRANCH   5  14
ATOM     14  C8  <0> A   1     -27.987   0.613  50.749  0.00  0.00    +0.080 C 
ATOM     15  C9  <0> A   1     -26.995   1.591  51.383  0.00  0.00    +0.027 C 
ATOM     16  C10 <0> A   1     -27.585   3.002  51.361  0.00  0.00    +0.011 C 
ATOM     17  C11 <0> A   1     -28.895   3.020  52.152  0.00  0.00    +0.005 C 
ATOM     18  C12 <0> A   1     -29.887   2.043  51.517  0.00  0.00    +0.011 C 
ATOM     19  C13 <0> A   1     -29.297   0.631  51.539  0.00  0.00    +0.027 C 
ENDBRANCH   5  14
BRANCH   1  21
ATOM     20  C1  <0> A   1     -29.949  -4.047  50.681  0.00  0.00    +0.044 C 
ATOM     21  C2  <0> A   1     -28.588  -4.177  49.995  0.00  0.00    +0.045 C 
ATOM     22  C3  <0> A   1     -28.777  -4.151  48.477  0.00  0.00    +0.044 C 
ENDBRANCH   1  21
BRANCH   2  23
ATOM     23  C20 <0> A   1     -25.820  -4.624  50.822  0.00  0.00    +0.052 C 
ATOM     24  C21 <0> A   1     -26.235  -5.500  51.727  0.00  0.00    -0.007 C 
BRANCH  24  25
ATOM     25  C22 <0> A   1     -25.661  -6.894  51.745  0.00  0.00    +0.244 C 
ATOM     26  C23 <0> A   1     -24.163  -6.833  51.438  0.00  0.00    +0.051 C 
ATOM     27  C24 <0> A   1     -23.590  -8.255  51.416  0.00  0.00    +0.186 C 
ATOM     28  C25 <0> A   1     -24.322  -9.066  50.338  0.00  0.00    +0.024 C 
ATOM     29  C26 <0> A   1     -25.811  -8.931  50.571  0.00  0.00    +0.498 C 
ATOM     30  O1  <0> A   1     -26.528  -9.904  50.592  0.00  0.00    -0.449 OA
ATOM     31  O2  <0> A   1     -26.315  -7.693  50.753  0.00  0.00    -0.370 OA
BRANCH  27  32
ATOM     32  O3  <0> A   1     -23.782  -8.867  52.693  0.00  0.00    -0.563 OA
ATOM     33  H31 <0> A   1     -23.679  -9.829  52.687  0.00  0.00    +0.388 HD
ENDBRANCH  27  32
ENDBRANCH  24  25
ENDBRANCH   2  23
TORSDOF 6
