REMARK VINA RESULT:      -7.3      1.047      1.323
REMARK  Name = CHEMBL76073
REMARK  13 active torsions:
REMARK  status: ('A' for Active; 'I' for Inactive)
REMARK    1  A    between atoms: C1_1  and  C2_2
REMARK    2  A    between atoms: C2_2  and  C3_3
REMARK    3  A    between atoms: C3_3  and  C4_4
REMARK    4  A    between atoms: C3_3  and  C5_5
REMARK    5  A    between atoms: C3_3  and  C6_6
REMARK    6  A    between atoms: C6_6  and  O2_8
REMARK    7  A    between atoms: O2_8  and  C7_9
REMARK    8  A    between atoms: C9_12  and  C25_38
REMARK    9  A    between atoms: C13_19  and  C18_26
REMARK   10  A    between atoms: C14_21  and  C17_25
REMARK   11  A    between atoms: C19_27  and  C20_28
REMARK   12  A    between atoms: C22_31  and  O5_37
REMARK   13  A    between atoms: C26_39  and  C27_40
REMARK                            x       y       z     vdW  Elec       q    Type
REMARK                         _______ _______ _______ _____ _____    ______ ____
ROOT
ATOM      1  C7  <0> A   1     -26.633  -1.552  50.262  0.00  0.00    +0.184 C 
ATOM      2  C8  <0> A   1     -26.773  -0.208  49.539  0.00  0.00    +0.023 C 
ATOM      3  C9  <0> A   1     -26.874   0.928  50.558  0.00  0.00    +0.018 C 
ATOM      4  C10 <0> A   1     -25.630   0.943  51.453  0.00  0.00    +0.035 C 
ATOM      5  C11 <0> A   1     -25.525  -0.400  52.170  0.00  0.00    +0.039 C 
ATOM      6  C12 <0> A   1     -25.377  -1.517  51.131  0.00  0.00    +0.019 C 
ATOM      7  C13 <0> A   1     -25.176  -2.842  51.867  0.00  0.00    +0.031 C 
ATOM      8  C14 <0> A   1     -23.814  -2.797  52.566  0.00  0.00    +0.028 C 
ATOM      9  C15 <0> A   1     -23.631  -1.500  53.296  0.00  0.00    -0.049 C 
ATOM     10  C16 <0> A   1     -24.360  -0.444  53.108  0.00  0.00    -0.040 C 
ATOM     11  C17 <0> A   1     -22.707  -2.946  51.522  0.00  0.00    +0.028 C 
ENDROOT
BRANCH   3  12
ATOM     12  C25 <0> A   1     -28.099   0.726  51.411  0.00  0.00    -0.015 C 
ATOM     13  C26 <0> A   1     -29.106   1.558  51.319  0.00  0.00    -0.075 C 
ATOM     14  C27 <0> A   1     -30.272   1.439  52.267  0.00  0.00    +0.056 C 
ENDBRANCH   3  12
BRANCH   7  15
ATOM     15  C18 <0> A   1     -25.207  -3.982  50.882  0.00  0.00    +0.006 C 
ATOM     16  C19 <0> A   1     -25.852  -5.083  51.174  0.00  0.00    -0.046 C 
BRANCH  16  17
ATOM     17  C20 <0> A   1     -25.882  -6.223  50.188  0.00  0.00    +0.240 C 
ATOM     18  C21 <0> A   1     -26.651  -7.400  50.793  0.00  0.00    +0.047 C 
ATOM     19  C22 <0> A   1     -26.644  -8.572  49.806  0.00  0.00    +0.184 C 
ATOM     20  C23 <0> A   1     -25.190  -8.975  49.524  0.00  0.00    +0.022 C 
ATOM     21  C24 <0> A   1     -24.424  -7.734  49.120  0.00  0.00    +0.497 C 
ATOM     22  O3  <0> A   1     -23.727  -7.728  48.133  0.00  0.00    -0.451 OA
ATOM     23  O4  <0> A   1     -24.543  -6.634  49.892  0.00  0.00    -0.368 OA
BRANCH  19  24
ATOM     24  O5  <0> A   1     -27.278  -8.176  48.589  0.00  0.00    -0.562 OA
ATOM     25  H35 <0> A   1     -28.241  -8.109  48.650  0.00  0.00    +0.386 HD
ENDBRANCH  19  24
ENDBRANCH  16  17
ENDBRANCH   7  15
BRANCH   1  26
ATOM     26  O2  <0> A   1     -27.779  -1.775  51.086  0.00  0.00    -0.328 OA
BRANCH  26  27
ATOM     27  C6  <0> A   1     -28.595  -2.781  50.734  0.00  0.00    +0.464 C 
ATOM     28  O1  <0> A   1     -28.538  -3.244  49.620  0.00  0.00    -0.498 OA
BRANCH  27  29
ATOM     29  C3  <0> A   1     -29.581  -3.334  51.731  0.00  0.00    -0.051 C 
ATOM     30  C4  <0> A   1     -30.392  -4.455  51.078  0.00  0.00    +0.060 C 
ATOM     31  C5  <0> A   1     -30.526  -2.220  52.186  0.00  0.00    +0.058 C 
BRANCH  29  33
ATOM     32  C1  <0> A   1     -29.042  -5.401  53.027  0.00  0.00    +0.022 C 
ATOM     33  C2  <0> A   1     -28.827  -3.889  52.941  0.00  0.00    +0.036 C 
ENDBRANCH  29  33
ENDBRANCH  27  29
ENDBRANCH  26  27
ENDBRANCH   1  26
TORSDOF 8
