REMARK VINA RESULT:      -8.5     14.335     18.515
REMARK  Name = CHEMBL331900
REMARK  11 active torsions:
REMARK  status: ('A' for Active; 'I' for Inactive)
REMARK    1  A    between atoms: C10_10  and  C11_11
REMARK    2  A    between atoms: C11_11  and  C12_12
REMARK    3  A    between atoms: N2_19  and  C26_34
REMARK    4  A    between atoms: C18_20  and  C19_21
REMARK    5  A    between atoms: C20_22  and  C21_23
REMARK    6  A    between atoms: C21_23  and  C22_25
REMARK    7  A    between atoms: C21_23  and  O4_33
REMARK    8  A    between atoms: C22_25  and  C23_26
REMARK    9  A    between atoms: C23_26  and  C24_28
REMARK   10  A    between atoms: C23_26  and  O3_32
REMARK   11  A    between atoms: C24_28  and  C25_29
REMARK                            x       y       z     vdW  Elec       q    Type
REMARK                         _______ _______ _______ _____ _____    ______ ____
ROOT
ATOM      1  C12 <0> A   1     -25.577  -7.521  50.282  0.00  0.00    +0.092 C 
ATOM      2  C13 <0> A   1     -26.788  -7.838  49.395  0.00  0.00    +0.029 C 
ATOM      3  C14 <0> A   1     -28.050  -7.220  50.001  0.00  0.00    +0.017 C 
ATOM      4  C15 <0> A   1     -28.007  -5.695  49.837  0.00  0.00    +0.104 C 
ATOM      5  C16 <0> A   1     -26.674  -5.204  50.342  0.00  0.00    -0.211 C 
ATOM      6  C17 <0> A   1     -25.564  -6.034  50.548  0.00  0.00    +0.090 C 
ATOM      7  N1  <0> A   1     -24.576  -5.307  50.988  0.00  0.00    -0.262 NA
ATOM      8  N2  <0> A   1     -25.003  -3.975  51.085  0.00  0.00    -0.330 N 
ATOM      9  C18 <0> A   1     -26.311  -3.925  50.679  0.00  0.00    +0.123 C 
ENDROOT
BRANCH   8  10
ATOM     10  C26 <0> A   1     -24.231  -2.889  51.518  0.00  0.00    +0.150 A 
ATOM     11  C27 <0> A   1     -24.531  -2.257  52.717  0.00  0.00    +0.047 A 
ATOM     12  C28 <0> A   1     -23.769  -1.187  53.142  0.00  0.00    +0.017 A 
ATOM     13  C29 <0> A   1     -22.707  -0.743  52.373  0.00  0.00    +0.097 A 
ATOM     14  C30 <0> A   1     -22.406  -1.372  51.176  0.00  0.00    +0.007 A 
ATOM     15  C31 <0> A   1     -23.163  -2.445  50.750  0.00  0.00    +0.056 A 
ATOM     16  F1  <0> A   1     -21.963   0.304  52.791  0.00  0.00    -0.135 F 
ENDBRANCH   8  10
BRANCH   9  17
ATOM     17  C19 <0> A   1     -27.163  -2.727  50.617  0.00  0.00    +0.027 C 
ATOM     18  C20 <0> A   1     -28.167  -2.580  51.476  0.00  0.00    -0.028 C 
BRANCH  18  19
ATOM     19  C21 <0> A   1     -29.040  -1.353  51.412  0.00  0.00    +0.254 C 
BRANCH  19  20
ATOM     20  O4  <0> A   1     -30.337  -1.664  51.925  0.00  0.00    -0.537 OA
ATOM     21  H26 <0> A   1     -31.002  -0.985  51.751  0.00  0.00    +0.368 HD
ENDBRANCH  19  20
BRANCH  19  22
ATOM     22  C22 <0> A   1     -28.413  -0.237  52.250  0.00  0.00    -0.040 C 
BRANCH  22  23
ATOM     23  C23 <0> A   1     -28.639   1.108  51.558  0.00  0.00    +0.232 C 
BRANCH  23  24
ATOM     24  O3  <0> A   1     -28.424   2.167  52.493  0.00  0.00    -0.528 OA
ATOM     25  H25 <0> A   1     -29.198   2.378  53.032  0.00  0.00    +0.351 HD
ENDBRANCH  23  24
BRANCH  23  26
ATOM     26  C24 <0> A   1     -27.660   1.251  50.391  0.00  0.00    -0.102 C 
BRANCH  26  27
ATOM     27  C25 <0> A   1     -26.249   1.102  50.899  0.00  0.00    +0.491 C 
ATOM     28  O1  <0> A   1     -25.517   0.249  50.426  0.00  0.00    -0.681 OA
ATOM     29  O2  <0> A   1     -25.837   1.837  51.782  0.00  0.00    -0.713 OA
ENDBRANCH  26  27
ENDBRANCH  23  26
ENDBRANCH  22  23
ENDBRANCH  19  22
ENDBRANCH  18  19
ENDBRANCH   9  17
BRANCH   1  30
ATOM     30  C11 <0> A   1     -24.290  -7.929  49.563  0.00  0.00    +0.084 C 
BRANCH  30  40
ATOM     31  C1  <0> A   1     -24.102 -12.449  51.955  0.00  0.00    -0.004 A 
ATOM     32  C2  <0> A   1     -24.011 -11.119  52.363  0.00  0.00    +0.001 A 
ATOM     33  C3  <0> A   1     -24.100 -10.104  51.463  0.00  0.00    +0.016 A 
ATOM     34  C4  <0> A   1     -24.288 -10.395  50.101  0.00  0.00    -0.039 A 
ATOM     35  C5  <0> A   1     -24.380 -11.747  49.686  0.00  0.00    -0.055 A 
ATOM     36  C6  <0> A   1     -24.284 -12.770  50.645  0.00  0.00    +0.018 A 
ATOM     37  C7  <0> A   1     -24.568 -12.039  48.324  0.00  0.00    +0.009 A 
ATOM     38  C8  <0> A   1     -24.657 -11.022  47.424  0.00  0.00    +0.007 A 
ATOM     39  C9  <0> A   1     -24.566  -9.693  47.831  0.00  0.00    +0.054 A 
ATOM     40  C10 <0> A   1     -24.386  -9.373  49.142  0.00  0.00    -0.075 A 
ENDBRANCH  30  40
ENDBRANCH   1  30
TORSDOF 11
