REMARK VINA RESULT:      -8.0     16.547     21.704
REMARK  Name = CHEMBL253357
REMARK  15 active torsions:
REMARK  status: ('A' for Active; 'I' for Inactive)
REMARK    1  A    between atoms: C1_1  and  C2_2
REMARK    2  A    between atoms: C2_2  and  C3_3
REMARK    3  A    between atoms: C2_2  and  C4_4
REMARK    4  A    between atoms: C5_5  and  C25_30
REMARK    5  A    between atoms: N1_6  and  C19_23
REMARK    6  A    between atoms: C6_8  and  C7_9
REMARK    7  A    between atoms: C11_15  and  C13_17
REMARK    8  A    between atoms: C25_30  and  C26_31
REMARK    9  A    between atoms: C26_31  and  C27_32
REMARK   10  A    between atoms: C27_32  and  C28_34
REMARK   11  A    between atoms: C27_32  and  O5_42
REMARK   12  A    between atoms: C28_34  and  C29_35
REMARK   13  A    between atoms: C29_35  and  C30_37
REMARK   14  A    between atoms: C29_35  and  O4_41
REMARK   15  A    between atoms: C30_37  and  C31_38
REMARK                            x       y       z     vdW  Elec       q    Type
REMARK                         _______ _______ _______ _____ _____    ______ ____
ROOT
ATOM      1  C4  <0> A   1     -28.985  -7.224  49.721  0.00  0.00    -0.148 C 
ATOM      2  C5  <0> A   1     -28.400  -8.444  49.728  0.00  0.00    +0.037 C 
ATOM      3  N1  <0> A   1     -27.101  -8.266  49.372  0.00  0.00    -0.241 N 
ATOM      4  N2  <0> A   1     -26.870  -7.022  49.151  0.00  0.00    -0.258 NA
ATOM      5  C6  <0> A   1     -27.969  -6.317  49.335  0.00  0.00    +0.011 C 
ENDROOT
BRANCH   5   6
ATOM      6  C7  <0> A   1     -28.112  -4.857  49.173  0.00  0.00    +0.618 C 
ATOM      7  O1  <0> A   1     -28.631  -4.405  48.170  0.00  0.00    -0.519 OA
ATOM      8  N3  <0> A   1     -27.669  -4.024  50.136  0.00  0.00    -0.602 N 
ATOM      9  C8  <0> A   1     -26.935  -4.547  51.297  0.00  0.00    +0.267 C 
ATOM     10  C9  <0> A   1     -27.620  -4.055  52.576  0.00  0.00    +0.014 C 
ATOM     11  C10 <0> A   1     -27.730  -2.529  52.536  0.00  0.00    +0.027 C 
ATOM     12  C11 <0> A   1     -28.584  -2.108  51.338  0.00  0.00    +0.022 C 
ATOM     13  C12 <0> A   1     -27.905  -2.577  50.042  0.00  0.00    +0.292 C 
BRANCH  12  14
ATOM     14  C13 <0> A   1     -28.719  -0.607  51.318  0.00  0.00    -0.075 A 
ATOM     15  C14 <0> A   1     -27.733   0.167  50.735  0.00  0.00    +0.008 A 
ATOM     16  C15 <0> A   1     -27.856   1.544  50.717  0.00  0.00    +0.004 A 
ATOM     17  C16 <0> A   1     -28.965   2.146  51.282  0.00  0.00    -0.003 A 
ATOM     18  C17 <0> A   1     -29.950   1.371  51.865  0.00  0.00    +0.003 A 
ATOM     19  C18 <0> A   1     -29.830  -0.005  51.879  0.00  0.00    +0.008 A 
ENDBRANCH  12  14
ENDBRANCH   5   6
BRANCH   3  20
ATOM     20  C19 <0> A   1     -26.151  -9.291  49.262  0.00  0.00    +0.121 A 
ATOM     21  C20 <0> A   1     -25.454  -9.716  50.386  0.00  0.00    +0.067 A 
ATOM     22  C21 <0> A   1     -24.518 -10.726  50.276  0.00  0.00    +0.020 A 
ATOM     23  C22 <0> A   1     -24.275 -11.314  49.046  0.00  0.00    +0.111 A 
ATOM     24  C23 <0> A   1     -24.969 -10.891  47.925  0.00  0.00    +0.008 A 
ATOM     25  C24 <0> A   1     -25.910  -9.886  48.032  0.00  0.00    +0.071 A 
ATOM     26  F1  <0> A   1     -23.360 -12.302  48.940  0.00  0.00    -0.131 F 
ENDBRANCH   3  20
BRANCH   1  28
ATOM     27  C1  <0> A   1     -30.466  -5.797  51.107  0.00  0.00    +0.030 C 
ATOM     28  C2  <0> A   1     -30.421  -6.899  50.046  0.00  0.00    +0.062 C 
ATOM     29  C3  <0> A   1     -31.135  -6.419  48.782  0.00  0.00    +0.024 C 
ENDBRANCH   1  28
BRANCH   2  30
ATOM     30  C25 <0> A   1     -29.063  -9.753  50.070  0.00  0.00    +0.128 C 
BRANCH  30  31
ATOM     31  C26 <0> A   1     -29.022  -9.966  51.584  0.00  0.00    -0.008 C 
BRANCH  31  32
ATOM     32  C27 <0> A   1     -30.442 -10.184  52.108  0.00  0.00    +0.215 C 
BRANCH  32  33
ATOM     33  O5  <0> A   1     -31.166 -11.011  51.195  0.00  0.00    -0.540 OA
ATOM     34  H37 <0> A   1     -31.888 -11.510  51.603  0.00  0.00    +0.363 HD
ENDBRANCH  32  33
BRANCH  32  35
ATOM     35  C28 <0> A   1     -30.382 -10.867  53.476  0.00  0.00    -0.052 C 
BRANCH  35  36
ATOM     36  C29 <0> A   1     -31.044  -9.969  54.524  0.00  0.00    +0.231 C 
BRANCH  36  37
ATOM     37  O4  <0> A   1     -30.165  -9.810  55.639  0.00  0.00    -0.528 OA
ATOM     38  H36 <0> A   1     -29.241 -10.016  55.443  0.00  0.00    +0.350 HD
ENDBRANCH  36  37
BRANCH  36  39
ATOM     39  C30 <0> A   1     -31.342  -8.600  53.909  0.00  0.00    -0.103 C 
BRANCH  39  40
ATOM     40  C31 <0> A   1     -30.647  -7.528  54.707  0.00  0.00    +0.491 C 
ATOM     41  O2  <0> A   1     -31.231  -6.975  55.624  0.00  0.00    -0.681 OA
ATOM     42  O3  <0> A   1     -29.499  -7.214  54.439  0.00  0.00    -0.713 OA
ENDBRANCH  39  40
ENDBRANCH  36  39
ENDBRANCH  35  36
ENDBRANCH  32  35
ENDBRANCH  31  32
ENDBRANCH  30  31
ENDBRANCH   2  30
TORSDOF 13
