REMARK  Name = CHEMBL250794
REMARK  16 active torsions:
REMARK  status: ('A' for Active; 'I' for Inactive)
REMARK    1  A    between atoms: C1_1  and  C2_2
REMARK    2  A    between atoms: C2_2  and  C3_3
REMARK    3  A    between atoms: C2_2  and  C4_4
REMARK    4  A    between atoms: C5_5  and  C19_29
REMARK    5  A    between atoms: N2_7  and  C13_22
REMARK    6  A    between atoms: C6_8  and  O1_9
REMARK    7  A    between atoms: O1_9  and  C7_10
REMARK    8  A    between atoms: C7_10  and  C8_11
REMARK    9  A    between atoms: C8_11  and  C9_13
REMARK   10  A    between atoms: C8_11  and  O5_21
REMARK   11  A    between atoms: C9_13  and  C10_14
REMARK   12  A    between atoms: C10_14  and  C11_16
REMARK   13  A    between atoms: C10_14  and  O4_20
REMARK   14  A    between atoms: C11_16  and  C12_17
REMARK   15  A    between atoms: N3_31  and  C20_32
REMARK   16  A    between atoms: C20_32  and  C21_33
REMARK                            x       y       z     vdW  Elec       q    Type
REMARK                         _______ _______ _______ _____ _____    ______ ____
ROOT
ATOM      1  C4  <0> A   1      -1.442  -0.995   0.138  0.00  0.00    -0.160 C 
ATOM      2  C5  <0> A   1      -2.317  -0.430   1.090  0.00  0.00    +0.045 C 
ATOM      3  N1  <0> A   1      -3.555  -0.644   0.687  0.00  0.00    -0.237 NA
ATOM      4  N2  <0> A   1      -3.506  -1.347  -0.524  0.00  0.00    -0.318 N 
ATOM      5  C6  <0> A   1      -2.197  -1.546  -0.843  0.00  0.00    +0.260 C 
ENDROOT
BRANCH   4   6
ATOM      6  C13 <0> A   1      -4.610  -1.766  -1.278  0.00  0.00    +0.126 A 
ATOM      7  C14 <0> A   1      -5.723  -0.944  -1.397  0.00  0.00    +0.064 A 
ATOM      8  C15 <0> A   1      -6.810  -1.359  -2.140  0.00  0.00    +0.005 A 
ATOM      9  C16 <0> A   1      -6.792  -2.595  -2.765  0.00  0.00    +0.106 A 
ATOM     10  C17 <0> A   1      -5.683  -3.417  -2.647  0.00  0.00    +0.020 A 
ATOM     11  C18 <0> A   1      -4.591  -3.002  -1.910  0.00  0.00    +0.073 A 
ATOM     12  F1  <0> A   1      -7.857  -3.000  -3.492  0.00  0.00    -0.133 F 
ENDBRANCH   4   6
BRANCH   2  13
ATOM     13  C19 <0> A   1      -1.917   0.278   2.323  0.00  0.00    +0.607 C 
ATOM     14  O6  <0> A   1      -0.745   0.323   2.645  0.00  0.00    -0.513 OA
ATOM     15  N3  <0> A   1      -2.850   0.873   3.091  0.00  0.00    -0.710 N 
ATOM     16  H22 <0> A   1      -3.785   0.837   2.835  0.00  0.00    +0.409 HD
BRANCH  15  17
ATOM     17  C20 <0> A   1      -2.454   1.575   4.314  0.00  0.00    +0.354 C 
BRANCH  17  18
ATOM     18  C21 <0> A   1      -3.676   2.147   4.984  0.00  0.00    +0.105 A 
ATOM     19  C22 <0> A   1      -4.299   1.436   5.992  0.00  0.00    -0.013 A 
ATOM     20  C23 <0> A   1      -5.423   1.971   6.602  0.00  0.00    +0.062 A 
ATOM     21  C24 <0> A   1      -5.880   3.208   6.173  0.00  0.00    -0.028 A 
ATOM     22  C25 <0> A   1      -5.206   3.861   5.160  0.00  0.00    +0.259 A 
ATOM     23  N4  <0> A   1      -4.136   3.324   4.606  0.00  0.00    -0.468 NA
ENDBRANCH  17  18
ENDBRANCH  15  17
ENDBRANCH   2  13
BRANCH   1  25
ATOM     24  C1  <0> A   1       0.591  -2.412   0.062  0.00  0.00    +0.028 C 
ATOM     25  C2  <0> A   1       0.064  -0.983   0.199  0.00  0.00    +0.078 C 
ATOM     26  C3  <0> A   1       0.613  -0.125  -0.943  0.00  0.00    +0.021 C 
ENDBRANCH   1  25
BRANCH   5  27
ATOM     27  O1  <0> A   1      -1.732  -2.186  -1.947  0.00  0.00    -0.282 OA
BRANCH  27  28
ATOM     28  C7  <0> A   1      -1.657  -1.426  -3.154  0.00  0.00    +0.155 C 
BRANCH  28  29
ATOM     29  C8  <0> A   1      -1.160  -2.322  -4.291  0.00  0.00    +0.232 C 
BRANCH  29  30
ATOM     30  O5  <0> A   1      -2.125  -3.345  -4.547  0.00  0.00    -0.529 OA
ATOM     31  H17 <0> A   1      -2.994  -3.009  -4.807  0.00  0.00    +0.363 HD
ENDBRANCH  29  30
BRANCH  29  32
ATOM     32  C9  <0> A   1      -0.961  -1.481  -5.553  0.00  0.00    -0.040 C 
BRANCH  32  33
ATOM     33  C10 <0> A   1      -0.347  -2.349  -6.653  0.00  0.00    +0.237 C 
BRANCH  33  34
ATOM     34  O4  <0> A   1      -1.273  -3.373  -7.024  0.00  0.00    -0.526 OA
ATOM     35  H16 <0> A   1      -2.115  -3.039  -7.361  0.00  0.00    +0.350 HD
ENDBRANCH  33  34
BRANCH  33  36
ATOM     36  C11 <0> A   1      -0.033  -1.481  -7.873  0.00  0.00    -0.100 C 
BRANCH  36  37
ATOM     37  C12 <0> A   1       0.683  -2.309  -8.908  0.00  0.00    +0.491 C 
ATOM     38  O2  <0> A   1       0.919  -3.486  -8.691  0.00  0.00    -0.680 OA
ATOM     39  O3  <0> A   1       1.026  -1.804  -9.963  0.00  0.00    -0.712 OA
ENDBRANCH  36  37
ENDBRANCH  33  36
ENDBRANCH  32  33
ENDBRANCH  29  32
ENDBRANCH  28  29
ENDBRANCH  27  28
ENDBRANCH   5  27
TORSDOF 14
