REMARK VINA RESULT:      -8.1      1.693      2.053
REMARK  Name = CHEMBL322643
REMARK  13 active torsions:
REMARK  status: ('A' for Active; 'I' for Inactive)
REMARK    1  A    between atoms: C1_1  and  C2_2
REMARK    2  A    between atoms: C2_2  and  C3_3
REMARK    3  A    between atoms: C2_2  and  C4_4
REMARK    4  A    between atoms: C6_6  and  C22_29
REMARK    5  A    between atoms: C7_8  and  C16_22
REMARK    6  A    between atoms: C8_9  and  C9_10
REMARK    7  A    between atoms: C10_11  and  C11_12
REMARK    8  A    between atoms: C11_12  and  C12_13
REMARK    9  A    between atoms: C11_12  and  O4_21
REMARK   10  A    between atoms: C12_13  and  C13_14
REMARK   11  A    between atoms: C13_14  and  C14_16
REMARK   12  A    between atoms: C13_14  and  O3_20
REMARK   13  A    between atoms: C14_16  and  C15_17
REMARK                            x       y       z     vdW  Elec       q    Type
REMARK                         _______ _______ _______ _____ _____    ______ ____
ROOT
ATOM      1  C4  <0> A   1     -15.013   6.383  45.856  0.00  0.00    -0.018 A 
ATOM      2  C5  <0> A   1     -16.128   5.887  46.504  0.00  0.00    -0.019 A 
ATOM      3  C6  <0> A   1     -16.790   6.685  47.437  0.00  0.00    +0.167 A 
ATOM      4  N1  <0> A   1     -16.364   7.910  47.712  0.00  0.00    -0.469 NA
ATOM      5  C7  <0> A   1     -15.300   8.426  47.116  0.00  0.00    +0.184 A 
ATOM      6  C8  <0> A   1     -14.581   7.677  46.167  0.00  0.00    -0.083 A 
ENDROOT
BRANCH   5   7
ATOM      7  C16 <0> A   1     -14.862   9.800  47.454  0.00  0.00    -0.062 A 
ATOM      8  C17 <0> A   1     -13.899  10.004  48.444  0.00  0.00    +0.087 A 
ATOM      9  C18 <0> A   1     -13.493  11.285  48.755  0.00  0.00    -0.017 A 
ATOM     10  C19 <0> A   1     -14.041  12.369  48.087  0.00  0.00    +0.113 A 
ATOM     11  C20 <0> A   1     -14.997  12.171  47.103  0.00  0.00    -0.026 A 
ATOM     12  C21 <0> A   1     -15.405  10.894  46.781  0.00  0.00    +0.082 A 
ATOM     13  F1  <0> A   1     -13.640  13.622  48.395  0.00  0.00    -0.137 F 
ENDBRANCH   5   7
BRANCH   3  14
ATOM     14  C22 <0> A   1     -17.987   6.155  48.134  0.00  0.00    -0.046 A 
ATOM     15  C23 <0> A   1     -19.248   6.678  47.852  0.00  0.00    +0.023 A 
ATOM     16  C24 <0> A   1     -20.359   6.181  48.503  0.00  0.00    +0.002 A 
ATOM     17  C25 <0> A   1     -20.223   5.167  49.434  0.00  0.00    +0.011 A 
ATOM     18  C26 <0> A   1     -18.973   4.645  49.718  0.00  0.00    -0.001 A 
ATOM     19  C27 <0> A   1     -17.857   5.129  49.068  0.00  0.00    +0.054 A 
ENDBRANCH   3  14
BRANCH   1  21
ATOM     20  C1  <0> A   1     -14.136   4.116  45.366  0.00  0.00    +0.033 C 
ATOM     21  C2  <0> A   1     -14.275   5.547  44.843  0.00  0.00    +0.030 C 
ATOM     22  C3  <0> A   1     -15.055   5.536  43.526  0.00  0.00    +0.033 C 
ENDBRANCH   1  21
BRANCH   6  23
ATOM     23  C9  <0> A   1     -13.392   8.249  45.506  0.00  0.00    -0.001 C 
ATOM     24  C10 <0> A   1     -13.511   8.848  44.328  0.00  0.00    -0.031 C 
BRANCH  24  25
ATOM     25  C11 <0> A   1     -12.297   9.432  43.654  0.00  0.00    +0.252 C 
BRANCH  25  26
ATOM     26  O4  <0> A   1     -11.115   8.894  44.250  0.00  0.00    -0.537 OA
ATOM     27  H18 <0> A   1     -11.104   7.928  44.299  0.00  0.00    +0.366 HD
ENDBRANCH  25  26
BRANCH  25  28
ATOM     28  C12 <0> A   1     -12.322   9.081  42.165  0.00  0.00    -0.041 C 
BRANCH  28  29
ATOM     29  C13 <0> A   1     -13.095  10.157  41.400  0.00  0.00    +0.232 C 
BRANCH  29  30
ATOM     30  O3  <0> A   1     -12.627  11.449  41.793  0.00  0.00    -0.528 OA
ATOM     31  H17 <0> A   1     -11.938  11.809  41.219  0.00  0.00    +0.350 HD
ENDBRANCH  29  30
BRANCH  29  32
ATOM     32  C14 <0> A   1     -12.877   9.971  39.897  0.00  0.00    -0.102 C 
BRANCH  32  33
ATOM     33  C15 <0> A   1     -13.112  11.281  39.189  0.00  0.00    +0.491 C 
ATOM     34  O1  <0> A   1     -14.248  11.705  39.054  0.00  0.00    -0.681 OA
ATOM     35  O2  <0> A   1     -12.168  11.916  38.752  0.00  0.00    -0.713 OA
ENDBRANCH  32  33
ENDBRANCH  29  32
ENDBRANCH  28  29
ENDBRANCH  25  28
ENDBRANCH  24  25
ENDBRANCH   6  23
TORSDOF 11
