REMARK VINA RESULT:      -8.7     16.238     19.597
REMARK  Name = CHEMBL331900
REMARK  11 active torsions:
REMARK  status: ('A' for Active; 'I' for Inactive)
REMARK    1  A    between atoms: C10_10  and  C11_11
REMARK    2  A    between atoms: C11_11  and  C12_12
REMARK    3  A    between atoms: N2_19  and  C26_34
REMARK    4  A    between atoms: C18_20  and  C19_21
REMARK    5  A    between atoms: C20_22  and  C21_23
REMARK    6  A    between atoms: C21_23  and  C22_25
REMARK    7  A    between atoms: C21_23  and  O4_33
REMARK    8  A    between atoms: C22_25  and  C23_26
REMARK    9  A    between atoms: C23_26  and  C24_28
REMARK   10  A    between atoms: C23_26  and  O3_32
REMARK   11  A    between atoms: C24_28  and  C25_29
REMARK                            x       y       z     vdW  Elec       q    Type
REMARK                         _______ _______ _______ _____ _____    ______ ____
ROOT
ATOM      1  C12 <0> A   1     -26.205  -1.702  51.113  0.00  0.00    +0.092 C 
ATOM      2  C13 <0> A   1     -24.880  -1.504  50.367  0.00  0.00    +0.029 C 
ATOM      3  C14 <0> A   1     -23.749  -2.201  51.125  0.00  0.00    +0.017 C 
ATOM      4  C15 <0> A   1     -23.895  -3.722  50.985  0.00  0.00    +0.104 C 
ATOM      5  C16 <0> A   1     -25.312  -4.094  51.342  0.00  0.00    -0.211 C 
ATOM      6  C17 <0> A   1     -26.368  -3.176  51.402  0.00  0.00    +0.090 C 
ATOM      7  N1  <0> A   1     -27.455  -3.812  51.739  0.00  0.00    -0.262 NA
ATOM      8  N2  <0> A   1     -27.150  -5.169  51.908  0.00  0.00    -0.330 N 
ATOM      9  C18 <0> A   1     -25.813  -5.332  51.657  0.00  0.00    +0.123 C 
ENDROOT
BRANCH   8  10
ATOM     10  C26 <0> A   1     -28.050  -6.181  52.269  0.00  0.00    +0.150 A 
ATOM     11  C27 <0> A   1     -28.581  -6.214  53.550  0.00  0.00    +0.047 A 
ATOM     12  C28 <0> A   1     -29.468  -7.212  53.903  0.00  0.00    +0.017 A 
ATOM     13  C29 <0> A   1     -29.828  -8.179  52.980  0.00  0.00    +0.097 A 
ATOM     14  C30 <0> A   1     -29.299  -8.147  51.700  0.00  0.00    +0.007 A 
ATOM     15  C31 <0> A   1     -28.416  -7.148  51.342  0.00  0.00    +0.056 A 
ATOM     16  F1  <0> A   1     -30.696  -9.154  53.327  0.00  0.00    -0.135 F 
ENDBRANCH   8  10
BRANCH   9  17
ATOM     17  C19 <0> A   1     -25.057  -6.593  51.715  0.00  0.00    +0.027 C 
ATOM     18  C20 <0> A   1     -24.585  -7.138  50.598  0.00  0.00    -0.028 C 
BRANCH  18  19
ATOM     19  C21 <0> A   1     -23.811  -8.430  50.658  0.00  0.00    +0.254 C 
BRANCH  19  20
ATOM     20  O4  <0> A   1     -24.640  -9.456  51.207  0.00  0.00    -0.537 OA
ATOM     21  H26 <0> A   1     -24.229 -10.332  51.212  0.00  0.00    +0.368 HD
ENDBRANCH  19  20
BRANCH  19  22
ATOM     22  C22 <0> A   1     -23.373  -8.827  49.246  0.00  0.00    -0.040 C 
BRANCH  22  23
ATOM     23  C23 <0> A   1     -24.493  -8.504  48.256  0.00  0.00    +0.232 C 
BRANCH  23  24
ATOM     24  O3  <0> A   1     -23.940  -7.875  47.099  0.00  0.00    -0.528 OA
ATOM     25  H25 <0> A   1     -23.488  -7.041  47.283  0.00  0.00    +0.351 HD
ENDBRANCH  23  24
BRANCH  23  26
ATOM     26  C24 <0> A   1     -25.199  -9.798  47.845  0.00  0.00    -0.102 C 
BRANCH  26  27
ATOM     27  C25 <0> A   1     -26.644  -9.738  48.269  0.00  0.00    +0.491 C 
ATOM     28  O1  <0> A   1     -26.930  -9.659  49.452  0.00  0.00    -0.681 OA
ATOM     29  O2  <0> A   1     -27.528  -9.769  47.429  0.00  0.00    -0.713 OA
ENDBRANCH  26  27
ENDBRANCH  23  26
ENDBRANCH  22  23
ENDBRANCH  19  22
ENDBRANCH  18  19
ENDBRANCH   9  17
BRANCH   1  30
ATOM     30  C11 <0> A   1     -27.366  -1.215  50.243  0.00  0.00    +0.084 C 
BRANCH  30  40
ATOM     31  C1  <0> A   1     -31.391   0.028  53.149  0.00  0.00    -0.004 A 
ATOM     32  C2  <0> A   1     -30.891  -1.163  52.625  0.00  0.00    +0.001 A 
ATOM     33  C3  <0> A   1     -29.763  -1.173  51.864  0.00  0.00    +0.016 A 
ATOM     34  C4  <0> A   1     -29.091   0.033  51.599  0.00  0.00    -0.039 A 
ATOM     35  C5  <0> A   1     -29.600   1.244  52.131  0.00  0.00    -0.055 A 
ATOM     36  C6  <0> A   1     -30.768   1.215  52.914  0.00  0.00    +0.018 A 
ATOM     37  C7  <0> A   1     -28.928   2.450  51.867  0.00  0.00    +0.009 A 
ATOM     38  C8  <0> A   1     -27.801   2.438  51.106  0.00  0.00    +0.007 A 
ATOM     39  C9  <0> A   1     -27.300   1.248  50.581  0.00  0.00    +0.054 A 
ATOM     40  C10 <0> A   1     -27.923   0.062  50.818  0.00  0.00    -0.075 A 
ENDBRANCH  30  40
ENDBRANCH   1  30
TORSDOF 11
