REMARK  Name = CHEMBL168307
REMARK  4 active torsions:
REMARK  status: ('A' for Active; 'I' for Inactive)
REMARK    1  A    between atoms: C1_1  and  C2_2
REMARK    2  A    between atoms: C4_4  and  C21_25
REMARK    3  A    between atoms: C15_15  and  C16_16
REMARK    4  A    between atoms: C18_18  and  O3_24
REMARK                            x       y       z     vdW  Elec       q    Type
REMARK                         _______ _______ _______ _____ _____    ______ ____
ROOT
ATOM      1  C1  <0> A   1      -2.188   0.736  -0.743  0.00  0.00    +0.095 C 
ATOM      2  C2  <0> A   1      -1.561  -0.611  -0.487  0.00  0.00    -0.072 A 
ATOM      3  C3  <0> A   1      -0.956  -1.296  -1.527  0.00  0.00    +0.012 A 
ATOM      4  C4  <0> A   1      -0.378  -2.530  -1.306  0.00  0.00    -0.048 A 
ATOM      5  C5  <0> A   1      -0.404  -3.090  -0.032  0.00  0.00    -0.075 A 
ATOM      6  C6  <0> A   1      -1.017  -2.398   1.024  0.00  0.00    -0.039 A 
ATOM      7  C7  <0> A   1      -1.591  -1.149   0.783  0.00  0.00    +0.025 A 
ATOM      8  C8  <0> A   1      -0.903  -3.210   2.255  0.00  0.00    -0.048 A 
ATOM      9  C9  <0> A   1      -1.338  -2.987   3.560  0.00  0.00    +0.032 A 
ATOM     10  C10 <0> A   1      -1.096  -3.929   4.539  0.00  0.00    +0.018 A 
ATOM     11  C11 <0> A   1      -0.422  -5.100   4.235  0.00  0.00    +0.020 A 
ATOM     12  C12 <0> A   1       0.016  -5.339   2.947  0.00  0.00    +0.039 A 
ATOM     13  C13 <0> A   1      -0.220  -4.398   1.949  0.00  0.00    -0.073 A 
ATOM     14  C14 <0> A   1       0.118  -4.368   0.507  0.00  0.00    -0.015 C 
ATOM     15  C15 <0> A   1       0.772  -5.316  -0.180  0.00  0.00    +0.030 C 
ATOM     16  C21 <0> A   1       0.279  -3.270  -2.442  0.00  0.00    +0.096 C 
ENDROOT
BRANCH  15  17
ATOM     17  C16 <0> A   1       0.958  -6.686   0.418  0.00  0.00    +0.233 C 
ATOM     18  C17 <0> A   1       2.443  -6.919   0.710  0.00  0.00    +0.049 C 
ATOM     19  C18 <0> A   1       2.633  -8.329   1.279  0.00  0.00    +0.189 C 
ATOM     20  C19 <0> A   1       2.126  -9.351   0.254  0.00  0.00    +0.026 C 
ATOM     21  C20 <0> A   1       0.722  -8.960  -0.151  0.00  0.00    +0.496 C 
ATOM     22  O1  <0> A   1      -0.172  -9.773  -0.157  0.00  0.00    -0.449 OA
ATOM     23  O2  <0> A   1       0.496  -7.678  -0.505  0.00  0.00    -0.365 OA
BRANCH  19  24
ATOM     24  O3  <0> A   1       1.893  -8.458   2.495  0.00  0.00    -0.565 OA
ATOM     25  H17 <0> A   1       1.968  -9.328   2.911  0.00  0.00    +0.388 HD
ENDBRANCH  19  24
ENDBRANCH  15  17
TORSDOF 2
