REMARK VINA RESULT:      -7.7      2.303      4.377
REMARK  Name = CHEMBL443275
REMARK  14 active torsions:
REMARK  status: ('A' for Active; 'I' for Inactive)
REMARK    1  A    between atoms: C1_1  and  C2_2
REMARK    2  A    between atoms: C4_4  and  C27_34
REMARK    3  A    between atoms: C5_5  and  O1_22
REMARK    4  A    between atoms: C6_6  and  C8_8
REMARK    5  A    between atoms: C8_8  and  C9_9
REMARK    6  A    between atoms: C8_8  and  C15_16
REMARK    7  A    between atoms: O1_22  and  C21_23
REMARK    8  A    between atoms: C21_23  and  C22_24
REMARK    9  A    between atoms: C22_24  and  C23_25
REMARK   10  A    between atoms: C22_24  and  O5_33
REMARK   11  A    between atoms: C23_25  and  C24_26
REMARK   12  A    between atoms: C24_26  and  C25_28
REMARK   13  A    between atoms: C24_26  and  O4_32
REMARK   14  A    between atoms: C25_28  and  C26_29
REMARK                            x       y       z     vdW  Elec       q    Type
REMARK                         _______ _______ _______ _____ _____    ______ ____
ROOT
ATOM      1  C1  <0> A   1     -15.898  11.421  47.626  0.00  0.00    +0.087 C 
ATOM      2  C2  <0> A   1     -15.028  10.782  46.575  0.00  0.00    -0.088 A 
ATOM      3  C3  <0> A   1     -14.736  11.467  45.409  0.00  0.00    +0.009 A 
ATOM      4  C4  <0> A   1     -13.939  10.884  44.444  0.00  0.00    -0.097 A 
ATOM      5  C5  <0> A   1     -13.431   9.608  44.644  0.00  0.00    +0.097 A 
ATOM      6  C6  <0> A   1     -13.726   8.922  45.814  0.00  0.00    -0.075 A 
ATOM      7  C7  <0> A   1     -14.519   9.513  46.779  0.00  0.00    +0.013 A 
ATOM      8  C27 <0> A   1     -13.621  11.631  43.175  0.00  0.00    +0.096 C 
ENDROOT
BRANCH   6   9
ATOM      9  C8  <0> A   1     -13.177   7.536  46.034  0.00  0.00    +0.091 C 
BRANCH   9  10
ATOM     10  C9  <0> A   1     -14.165   6.518  45.529  0.00  0.00    -0.071 A 
ATOM     11  C10 <0> A   1     -15.490   6.589  45.918  0.00  0.00    +0.042 A 
ATOM     12  C11 <0> A   1     -16.398   5.656  45.456  0.00  0.00    -0.021 A 
ATOM     13  C12 <0> A   1     -15.981   4.649  44.602  0.00  0.00    +0.091 A 
ATOM     14  C13 <0> A   1     -14.654   4.578  44.213  0.00  0.00    -0.014 A 
ATOM     15  C14 <0> A   1     -13.749   5.516  44.672  0.00  0.00    +0.056 A 
ATOM     16  F1  <0> A   1     -16.869   3.735  44.149  0.00  0.00    -0.143 F 
ENDBRANCH   9  10
BRANCH   9  17
ATOM     17  C15 <0> A   1     -12.935   7.315  47.529  0.00  0.00    +0.000 C 
ATOM     18  C16 <0> A   1     -11.868   8.295  48.023  0.00  0.00    +0.010 C 
ATOM     19  C17 <0> A   1     -11.625   8.074  49.516  0.00  0.00    +0.003 C 
ATOM     20  C18 <0> A   1     -11.147   6.639  49.749  0.00  0.00    +0.001 C 
ATOM     21  C19 <0> A   1     -12.214   5.660  49.255  0.00  0.00    +0.003 C 
ATOM     22  C20 <0> A   1     -12.457   5.880  47.761  0.00  0.00    +0.013 C 
ENDBRANCH   9  17
ENDBRANCH   6   9
BRANCH   5  23
ATOM     23  O1  <0> A   1     -12.647   9.031  43.696  0.00  0.00    -0.318 OA
BRANCH  23  24
ATOM     24  C21 <0> A   1     -13.309   8.279  42.677  0.00  0.00    +0.147 C 
BRANCH  24  25
ATOM     25  C22 <0> A   1     -12.300   7.883  41.597  0.00  0.00    +0.224 C 
BRANCH  25  26
ATOM     26  O5  <0> A   1     -11.901   6.525  41.793  0.00  0.00    -0.531 OA
ATOM     27  H31 <0> A   1     -12.639   5.908  41.890  0.00  0.00    +0.363 HD
ENDBRANCH  25  26
BRANCH  25  28
ATOM     28  C23 <0> A   1     -12.944   8.032  40.218  0.00  0.00    -0.043 C 
BRANCH  28  29
ATOM     29  C24 <0> A   1     -12.256   9.165  39.453  0.00  0.00    +0.234 C 
BRANCH  29  30
ATOM     30  O4  <0> A   1     -12.744   9.198  38.110  0.00  0.00    -0.527 OA
ATOM     31  H30 <0> A   1     -13.691   9.012  38.032  0.00  0.00    +0.350 HD
ENDBRANCH  29  30
BRANCH  29  32
ATOM     32  C25 <0> A   1     -12.555  10.499  40.138  0.00  0.00    -0.101 C 
BRANCH  32  33
ATOM     33  C26 <0> A   1     -12.992  11.508  39.107  0.00  0.00    +0.491 C 
ATOM     34  O2  <0> A   1     -12.158  12.118  38.461  0.00  0.00    -0.680 OA
ATOM     35  O3  <0> A   1     -14.179  11.714  38.921  0.00  0.00    -0.713 OA
ENDBRANCH  32  33
ENDBRANCH  29  32
ENDBRANCH  28  29
ENDBRANCH  25  28
ENDBRANCH  24  25
ENDBRANCH  23  24
ENDBRANCH   5  23
TORSDOF 12
