REMARK VINA RESULT:      -7.3     39.730     42.100
REMARK  Name = CHEMBL316712
REMARK  15 active torsions:
REMARK  status: ('A' for Active; 'I' for Inactive)
REMARK    1  A    between atoms: C1_1  and  C2_2
REMARK    2  A    between atoms: C6_6  and  C14_20
REMARK    3  A    between atoms: C7_7  and  O1_8
REMARK    4  A    between atoms: O1_8  and  C8_9
REMARK    5  A    between atoms: C8_9  and  C9_10
REMARK    6  A    between atoms: C9_10  and  C10_11
REMARK    7  A    between atoms: C9_10  and  O5_19
REMARK    8  A    between atoms: C10_11  and  C11_12
REMARK    9  A    between atoms: C11_12  and  C12_14
REMARK   10  A    between atoms: C11_12  and  O4_18
REMARK   11  A    between atoms: C12_14  and  C13_15
REMARK   12  A    between atoms: C14_20  and  C15_21
REMARK   13  A    between atoms: C15_21  and  C16_22
REMARK   14  A    between atoms: C16_22  and  O6_23
REMARK   15  A    between atoms: O6_23  and  C17_24
REMARK                            x       y       z     vdW  Elec       q    Type
REMARK                         _______ _______ _______ _____ _____    ______ ____
ROOT
ATOM      1  C1  <0> A   1     -29.304  -1.377  53.137  0.00  0.00    +0.108 C 
ATOM      2  C2  <0> A   1     -27.840  -1.259  53.472  0.00  0.00    -0.089 A 
ATOM      3  C3  <0> A   1     -27.431  -0.440  54.506  0.00  0.00    +0.034 A 
ATOM      4  C4  <0> A   1     -26.086  -0.331  54.814  0.00  0.00    -0.036 A 
ATOM      5  C5  <0> A   1     -25.149  -1.043  54.087  0.00  0.00    +0.035 A 
ATOM      6  C6  <0> A   1     -25.554  -1.863  53.052  0.00  0.00    -0.083 A 
ATOM      7  C7  <0> A   1     -26.901  -1.978  52.745  0.00  0.00    +0.107 A 
ATOM      8 Cl2  <0> A   1     -25.574   0.700  56.114  0.00  0.00    -0.070 Cl
ENDROOT
BRANCH   7   9
ATOM      9  O1  <0> A   1     -27.302  -2.789  51.732  0.00  0.00    -0.316 OA
BRANCH   9  10
ATOM     10  C8  <0> A   1     -27.626  -4.140  52.070  0.00  0.00    +0.150 C 
BRANCH  10  11
ATOM     11  C9  <0> A   1     -27.104  -5.078  50.980  0.00  0.00    +0.226 C 
BRANCH  11  12
ATOM     12  O5  <0> A   1     -26.658  -4.308  49.862  0.00  0.00    -0.529 OA
ATOM     13  H15 <0> A   1     -27.371  -4.007  49.282  0.00  0.00    +0.362 HD
ENDBRANCH  11  12
BRANCH  11  14
ATOM     14  C10 <0> A   1     -25.936  -5.900  51.531  0.00  0.00    -0.042 C 
BRANCH  14  15
ATOM     15  C11 <0> A   1     -25.034  -6.340  50.377  0.00  0.00    +0.235 C 
BRANCH  15  16
ATOM     16  O4  <0> A   1     -24.096  -5.303  50.083  0.00  0.00    -0.526 OA
ATOM     17  H14 <0> A   1     -23.273  -5.362  50.587  0.00  0.00    +0.350 HD
ENDBRANCH  15  16
BRANCH  15  18
ATOM     18  C12 <0> A   1     -24.281  -7.611  50.775  0.00  0.00    -0.101 C 
BRANCH  18  19
ATOM     19  C13 <0> A   1     -23.782  -8.308  49.536  0.00  0.00    +0.490 C 
ATOM     20  O2  <0> A   1     -23.377  -9.457  49.603  0.00  0.00    -0.680 OA
ATOM     21  O3  <0> A   1     -23.782  -7.724  48.466  0.00  0.00    -0.712 OA
ENDBRANCH  18  19
ENDBRANCH  15  18
ENDBRANCH  14  15
ENDBRANCH  11  14
ENDBRANCH  10  11
ENDBRANCH   9  10
ENDBRANCH   7   9
BRANCH   6  22
ATOM     22  C14 <0> A   1     -24.532  -2.638  52.260  0.00  0.00    +0.088 C 
BRANCH  22  23
ATOM     23  C15 <0> A   1     -23.542  -1.665  51.616  0.00  0.00    +0.049 C 
BRANCH  23  24
ATOM     24  C16 <0> A   1     -24.156  -1.082  50.341  0.00  0.00    +0.192 C 
BRANCH  24  25
ATOM     25  O6  <0> A   1     -24.250   0.339  50.465  0.00  0.00    -0.309 OA
BRANCH  25  26
ATOM     26  C17 <0> A   1     -25.468   0.850  50.785  0.00  0.00    +0.141 A 
ATOM     27  C18 <0> A   1     -26.608   0.382  50.147  0.00  0.00    -0.059 A 
ATOM     28  C19 <0> A   1     -27.845   0.902  50.474  0.00  0.00    +0.068 A 
ATOM     29  C20 <0> A   1     -27.948   1.892  51.437  0.00  0.00    -0.076 A 
ATOM     30  C21 <0> A   1     -26.813   2.360  52.074  0.00  0.00    +0.069 A 
ATOM     31  C22 <0> A   1     -25.574   1.837  51.754  0.00  0.00    -0.001 A 
ATOM     32 Cl1  <0> A   1     -29.503   2.545  51.845  0.00  0.00    -0.074 Cl
ENDBRANCH  25  26
ENDBRANCH  24  25
ENDBRANCH  23  24
ENDBRANCH  22  23
ENDBRANCH   6  22
TORSDOF 14
