REMARK VINA RESULT:      -7.0      9.628     11.080
REMARK  Name = CHEMBL47006
REMARK  6 active torsions:
REMARK  status: ('A' for Active; 'I' for Inactive)
REMARK    1  A    between atoms: C3_3  and  C5_6
REMARK    2  A    between atoms: C5_6  and  O1_7
REMARK    3  A    between atoms: O1_7  and  C6_8
REMARK    4  A    between atoms: C11_13  and  C12_14
REMARK    5  A    between atoms: C13_15  and  C14_16
REMARK    6  A    between atoms: C16_18  and  O4_24
REMARK                            x       y       z     vdW  Elec       q    Type
REMARK                         _______ _______ _______ _____ _____    ______ ____
ROOT
ATOM      1  C6  <0> A   1     -12.996   8.228  42.461  0.00  0.00    +0.169 A 
ATOM      2  C7  <0> A   1     -12.676   7.848  41.168  0.00  0.00    -0.051 A 
ATOM      3  C8  <0> A   1     -12.848   8.735  40.121  0.00  0.00    +0.017 A 
ATOM      4  C9  <0> A   1     -13.341  10.008  40.356  0.00  0.00    +0.013 A 
ATOM      5  C10 <0> A   1     -13.664  10.402  41.640  0.00  0.00    +0.017 A 
ATOM      6  C11 <0> A   1     -13.500   9.512  42.702  0.00  0.00    -0.075 A 
ATOM      7 Cl1  <0> A   1     -14.280  11.999  41.929  0.00  0.00    -0.036 Cl
ATOM      8 Cl2  <0> A   1     -12.443   8.250  38.503  0.00  0.00    -0.048 Cl
ENDROOT
BRANCH   6   9
ATOM      9  C12 <0> A   1     -13.851   9.925  44.076  0.00  0.00    +0.056 C 
ATOM     10  C13 <0> A   1     -12.930  10.467  44.861  0.00  0.00    -0.009 C 
BRANCH  10  11
ATOM     11  C14 <0> A   1     -13.287  10.889  46.263  0.00  0.00    +0.243 C 
ATOM     12  C15 <0> A   1     -14.809  10.869  46.430  0.00  0.00    +0.051 C 
ATOM     13  C16 <0> A   1     -15.171  11.338  47.844  0.00  0.00    +0.186 C 
ATOM     14  C17 <0> A   1     -14.634  12.760  48.046  0.00  0.00    +0.023 C 
ATOM     15  C18 <0> A   1     -13.167  12.771  47.677  0.00  0.00    +0.498 C 
ATOM     16  O2  <0> A   1     -12.343  13.261  48.412  0.00  0.00    -0.451 OA
ATOM     17  O3  <0> A   1     -12.804  12.216  46.501  0.00  0.00    -0.367 OA
BRANCH  13  18
ATOM     18  O4  <0> A   1     -14.584  10.459  48.805  0.00  0.00    -0.564 OA
ATOM     19  H16 <0> A   1     -15.225   9.917  49.284  0.00  0.00    +0.387 HD
ENDBRANCH  13  18
ENDBRANCH  10  11
ENDBRANCH   6   9
BRANCH   1  20
ATOM     20  O1  <0> A   1     -12.828   7.357  43.489  0.00  0.00    -0.291 OA
BRANCH  20  21
ATOM     21  C5  <0> A   1     -13.637   6.180  43.481  0.00  0.00    +0.318 C 
BRANCH  21  24
ATOM     22  C1  <0> A   1     -15.830   6.964  46.496  0.00  0.00    -0.026 C 
ATOM     23  C2  <0> A   1     -14.705   6.987  45.692  0.00  0.00    +0.017 C 
ATOM     24  C3  <0> A   1     -14.721   6.308  44.519  0.00  0.00    -0.168 C 
ATOM     25  S1  <0> A   1     -16.362   5.604  44.523  0.00  0.00    +0.061 S 
ATOM     26  C4  <0> A   1     -16.915   6.263  46.088  0.00  0.00    +0.030 C 
ENDBRANCH  21  24
ENDBRANCH  20  21
ENDBRANCH   1  20
TORSDOF 6
