REMARK VINA RESULT:      -8.9      0.000      0.000
REMARK  Name = CHEMBL322643
REMARK  13 active torsions:
REMARK  status: ('A' for Active; 'I' for Inactive)
REMARK    1  A    between atoms: C1_1  and  C2_2
REMARK    2  A    between atoms: C2_2  and  C3_3
REMARK    3  A    between atoms: C2_2  and  C4_4
REMARK    4  A    between atoms: C6_6  and  C22_29
REMARK    5  A    between atoms: C7_8  and  C16_22
REMARK    6  A    between atoms: C8_9  and  C9_10
REMARK    7  A    between atoms: C10_11  and  C11_12
REMARK    8  A    between atoms: C11_12  and  C12_13
REMARK    9  A    between atoms: C11_12  and  O4_21
REMARK   10  A    between atoms: C12_13  and  C13_14
REMARK   11  A    between atoms: C13_14  and  C14_16
REMARK   12  A    between atoms: C13_14  and  O3_20
REMARK   13  A    between atoms: C14_16  and  C15_17
REMARK                            x       y       z     vdW  Elec       q    Type
REMARK                         _______ _______ _______ _____ _____    ______ ____
ROOT
ATOM      1  C4  <0> A   1     -15.109   6.364  45.539  0.00  0.00    -0.018 A 
ATOM      2  C5  <0> A   1     -16.187   6.358  46.403  0.00  0.00    -0.019 A 
ATOM      3  C6  <0> A   1     -16.471   7.500  47.152  0.00  0.00    +0.167 A 
ATOM      4  N1  <0> A   1     -15.721   8.589  47.048  0.00  0.00    -0.469 NA
ATOM      5  C7  <0> A   1     -14.679   8.639  46.233  0.00  0.00    +0.184 A 
ATOM      6  C8  <0> A   1     -14.331   7.523  45.451  0.00  0.00    -0.083 A 
ENDROOT
BRANCH   5   7
ATOM      7  C16 <0> A   1     -13.870   9.877  46.149  0.00  0.00    -0.062 A 
ATOM      8  C17 <0> A   1     -14.190  10.860  45.213  0.00  0.00    +0.087 A 
ATOM      9  C18 <0> A   1     -13.434  12.012  45.139  0.00  0.00    -0.017 A 
ATOM     10  C19 <0> A   1     -12.357  12.193  45.992  0.00  0.00    +0.113 A 
ATOM     11  C20 <0> A   1     -12.035  11.218  46.924  0.00  0.00    -0.026 A 
ATOM     12  C21 <0> A   1     -12.788  10.066  47.009  0.00  0.00    +0.082 A 
ATOM     13  F1  <0> A   1     -11.620  13.322  45.916  0.00  0.00    -0.137 F 
ENDBRANCH   5   7
BRANCH   3  14
ATOM     14  C22 <0> A   1     -17.627   7.497  48.080  0.00  0.00    -0.046 A 
ATOM     15  C23 <0> A   1     -18.754   6.729  47.789  0.00  0.00    +0.023 A 
ATOM     16  C24 <0> A   1     -19.828   6.729  48.656  0.00  0.00    +0.002 A 
ATOM     17  C25 <0> A   1     -19.788   7.491  49.811  0.00  0.00    +0.011 A 
ATOM     18  C26 <0> A   1     -18.672   8.254  50.104  0.00  0.00    -0.001 A 
ATOM     19  C27 <0> A   1     -17.590   8.256  49.248  0.00  0.00    +0.054 A 
ENDBRANCH   3  14
BRANCH   1  21
ATOM     20  C1  <0> A   1     -14.119   4.091  45.608  0.00  0.00    +0.033 C 
ATOM     21  C2  <0> A   1     -14.775   5.147  44.715  0.00  0.00    +0.030 C 
ATOM     22  C3  <0> A   1     -16.058   4.575  44.107  0.00  0.00    +0.033 C 
ENDBRANCH   1  21
BRANCH   6  23
ATOM     23  C9  <0> A   1     -13.165   7.576  44.546  0.00  0.00    -0.001 C 
ATOM     24  C10 <0> A   1     -13.341   7.509  43.232  0.00  0.00    -0.031 C 
BRANCH  24  25
ATOM     25  C11 <0> A   1     -12.151   7.564  42.309  0.00  0.00    +0.252 C 
BRANCH  25  26
ATOM     26  O4  <0> A   1     -11.565   6.265  42.210  0.00  0.00    -0.537 OA
ATOM     27  H18 <0> A   1     -12.073   5.569  42.651  0.00  0.00    +0.366 HD
ENDBRANCH  25  26
BRANCH  25  28
ATOM     28  C12 <0> A   1     -12.603   8.027  40.923  0.00  0.00    -0.041 C 
BRANCH  28  29
ATOM     29  C13 <0> A   1     -13.035   9.494  40.990  0.00  0.00    +0.232 C 
BRANCH  29  30
ATOM     30  O3  <0> A   1     -11.879  10.323  41.125  0.00  0.00    -0.528 OA
ATOM     31  H17 <0> A   1     -12.054  11.266  40.999  0.00  0.00    +0.350 HD
ENDBRANCH  29  30
BRANCH  29  32
ATOM     32  C14 <0> A   1     -13.783   9.865  39.709  0.00  0.00    -0.102 C 
BRANCH  32  33
ATOM     33  C15 <0> A   1     -13.884  11.365  39.603  0.00  0.00    +0.491 C 
ATOM     34  O1  <0> A   1     -13.257  11.959  38.742  0.00  0.00    -0.681 OA
ATOM     35  O2  <0> A   1     -14.593  11.984  40.378  0.00  0.00    -0.713 OA
ENDBRANCH  32  33
ENDBRANCH  29  32
ENDBRANCH  28  29
ENDBRANCH  25  28
ENDBRANCH  24  25
ENDBRANCH   6  23
TORSDOF 11
