REMARK VINA RESULT:      -8.0     12.280     16.116
REMARK  Name = CHEMBL303523
REMARK  12 active torsions:
REMARK  status: ('A' for Active; 'I' for Inactive)
REMARK    1  A    between atoms: C1_1  and  C2_2
REMARK    2  A    between atoms: C2_2  and  C3_3
REMARK    3  A    between atoms: C2_2  and  C4_4
REMARK    4  A    between atoms: C5_5  and  C22_26
REMARK    5  A    between atoms: C6_6  and  C16_19
REMARK    6  A    between atoms: C23_27  and  C24_28
REMARK    7  A    between atoms: C24_28  and  C25_29
REMARK    8  A    between atoms: C24_28  and  O4_37
REMARK    9  A    between atoms: C25_29  and  C26_30
REMARK   10  A    between atoms: C26_30  and  C27_32
REMARK   11  A    between atoms: C26_30  and  O3_36
REMARK   12  A    between atoms: C27_32  and  C28_33
REMARK                            x       y       z     vdW  Elec       q    Type
REMARK                         _______ _______ _______ _____ _____    ______ ____
ROOT
ATOM      1  C4  <0> A   1     -23.436   1.510  51.313  0.00  0.00    +0.118 C 
ATOM      2  C5  <0> A   1     -23.957   0.206  51.202  0.00  0.00    -0.167 C 
ATOM      3  C6  <0> A   1     -25.323   0.287  51.447  0.00  0.00    +0.149 C 
ATOM      4  N1  <0> A   1     -25.605   1.600  51.696  0.00  0.00    -0.322 N 
ATOM      5  N2  <0> A   1     -24.411   2.325  51.608  0.00  0.00    -0.273 NA
ATOM      6  C7  <0> A   1     -26.863   2.126  51.990  0.00  0.00    +0.403 A 
ATOM      7  C8  <0> A   1     -26.952   3.323  52.713  0.00  0.00    -0.012 A 
ATOM      8  C9  <0> A   1     -28.174   3.850  53.007  0.00  0.00    +0.112 A 
ATOM      9  C10 <0> A   1     -29.322   3.160  52.567  0.00  0.00    -0.114 A 
ATOM     10  C11 <0> A   1     -30.612   3.645  52.835  0.00  0.00    +0.041 A 
ATOM     11  C12 <0> A   1     -31.696   2.952  52.393  0.00  0.00    +0.011 A 
ATOM     12  C13 <0> A   1     -31.545   1.766  51.677  0.00  0.00    +0.038 A 
ATOM     13  C14 <0> A   1     -30.309   1.267  51.400  0.00  0.00    +0.044 A 
ATOM     14  C15 <0> A   1     -29.164   1.955  51.840  0.00  0.00    +0.158 A 
ATOM     15  N3  <0> A   1     -27.938   1.490  51.576  0.00  0.00    -0.484 NA
ENDROOT
BRANCH   3  16
ATOM     16  C16 <0> A   1     -26.286  -0.833  51.439  0.00  0.00    -0.033 A 
ATOM     17  C17 <0> A   1     -26.871  -1.245  50.239  0.00  0.00    +0.089 A 
ATOM     18  C18 <0> A   1     -27.770  -2.292  50.238  0.00  0.00    -0.012 A 
ATOM     19  C19 <0> A   1     -28.092  -2.933  51.423  0.00  0.00    +0.112 A 
ATOM     20  C20 <0> A   1     -27.516  -2.527  52.617  0.00  0.00    -0.021 A 
ATOM     21  C21 <0> A   1     -26.611  -1.487  52.629  0.00  0.00    +0.075 A 
ATOM     22  F1  <0> A   1     -28.973  -3.957  51.416  0.00  0.00    -0.138 F 
ENDBRANCH   3  16
BRANCH   1  24
ATOM     23  C1  <0> A   1     -21.914   3.295  50.509  0.00  0.00    +0.038 C 
ATOM     24  C2  <0> A   1     -21.991   1.898  51.127  0.00  0.00    +0.081 C 
ATOM     25  C3  <0> A   1     -21.285   1.900  52.485  0.00  0.00    +0.038 C 
ENDBRANCH   1  24
BRANCH   2  26
ATOM     26  C22 <0> A   1     -23.196  -1.019  50.885  0.00  0.00    +0.040 C 
ATOM     27  C23 <0> A   1     -22.767  -1.805  51.863  0.00  0.00    -0.053 C 
BRANCH  27  28
ATOM     28  C24 <0> A   1     -21.989  -3.055  51.539  0.00  0.00    +0.251 C 
BRANCH  28  29
ATOM     29  O4  <0> A   1     -22.036  -3.294  50.131  0.00  0.00    -0.538 OA
ATOM     30  H27 <0> A   1     -22.380  -2.550  49.617  0.00  0.00    +0.366 HD
ENDBRANCH  28  29
BRANCH  28  31
ATOM     31  C25 <0> A   1     -20.534  -2.879  51.978  0.00  0.00    -0.042 C 
BRANCH  31  32
ATOM     32  C26 <0> A   1     -20.388  -3.307  53.440  0.00  0.00    +0.230 C 
BRANCH  32  33
ATOM     33  O3  <0> A   1     -20.989  -4.590  53.623  0.00  0.00    -0.528 OA
ATOM     34  H26 <0> A   1     -21.885  -4.659  53.266  0.00  0.00    +0.350 HD
ENDBRANCH  32  33
BRANCH  32  35
ATOM     35  C27 <0> A   1     -18.903  -3.382  53.803  0.00  0.00    -0.102 C 
BRANCH  35  36
ATOM     36  C28 <0> A   1     -18.552  -4.795  54.189  0.00  0.00    +0.491 C 
ATOM     37  O1  <0> A   1     -18.203  -5.592  53.335  0.00  0.00    -0.681 OA
ATOM     38  O2  <0> A   1     -18.616  -5.143  55.356  0.00  0.00    -0.714 OA
ENDBRANCH  35  36
ENDBRANCH  32  35
ENDBRANCH  31  32
ENDBRANCH  28  31
ENDBRANCH  27  28
ENDBRANCH   2  26
TORSDOF 10
