REMARK VINA RESULT:      -7.7     15.559     19.230
REMARK  Name = CHEMBL468632
REMARK  15 active torsions:
REMARK  status: ('A' for Active; 'I' for Inactive)
REMARK    1  A    between atoms: C1_1  and  C2_2
REMARK    2  A    between atoms: C2_2  and  C3_3
REMARK    3  A    between atoms: C2_2  and  C4_4
REMARK    4  A    between atoms: C5_5  and  C19_27
REMARK    5  A    between atoms: C6_6  and  C13_20
REMARK    6  A    between atoms: N3_10  and  C8_11
REMARK    7  A    between atoms: C10_13  and  C12_17
REMARK    8  A    between atoms: N5_15  and  C11_16
REMARK    9  A    between atoms: C20_28  and  C21_29
REMARK   10  A    between atoms: C21_29  and  C22_31
REMARK   11  A    between atoms: C21_29  and  O6_39
REMARK   12  A    between atoms: C22_31  and  C23_32
REMARK   13  A    between atoms: C23_32  and  C24_34
REMARK   14  A    between atoms: C23_32  and  O5_38
REMARK   15  A    between atoms: C24_34  and  C25_35
REMARK                            x       y       z     vdW  Elec       q    Type
REMARK                         _______ _______ _______ _____ _____    ______ ____
ROOT
ATOM      1  C4  <0> A   1     -27.191  -2.952  52.072  0.00  0.00    +0.234 A 
ATOM      2  C5  <0> A   1     -26.275  -3.888  51.583  0.00  0.00    -0.198 A 
ATOM      3  C6  <0> A   1     -26.636  -5.251  51.614  0.00  0.00    +0.272 A 
ATOM      4  N1  <0> A   1     -27.826  -5.587  52.102  0.00  0.00    -0.532 NA
ATOM      5  C7  <0> A   1     -28.659  -4.663  52.554  0.00  0.00    +0.573 A 
ATOM      6  N2  <0> A   1     -28.350  -3.373  52.545  0.00  0.00    -0.561 NA
ATOM      7  N3  <0> A   1     -29.889  -5.055  53.054  0.00  0.00    -0.606 N 
ATOM      8  H10 <0> A   1     -30.511  -4.390  53.389  0.00  0.00    +0.415 HD
ENDROOT
BRANCH   3   9
ATOM      9  C13 <0> A   1     -25.707  -6.288  51.109  0.00  0.00    -0.078 A 
ATOM     10  C14 <0> A   1     -24.873  -6.970  51.995  0.00  0.00    +0.090 A 
ATOM     11  C15 <0> A   1     -24.009  -7.935  51.521  0.00  0.00    -0.026 A 
ATOM     12  C16 <0> A   1     -23.969  -8.227  50.166  0.00  0.00    +0.117 A 
ATOM     13  C17 <0> A   1     -24.796  -7.552  49.283  0.00  0.00    -0.009 A 
ATOM     14  C18 <0> A   1     -25.667  -6.590  49.748  0.00  0.00    +0.112 A 
ATOM     15  F1  <0> A   1     -23.121  -9.173  49.707  0.00  0.00    -0.139 F 
ENDBRANCH   3   9
BRANCH   7  16
ATOM     16  C8  <0> A   1     -30.234  -6.405  53.078  0.00  0.00    +0.211 C 
ATOM     17  C9  <0> A   1     -30.087  -7.260  54.128  0.00  0.00    -0.010 C 
ATOM     18  C10 <0> A   1     -30.575  -8.507  53.670  0.00  0.00    +0.004 C 
ATOM     19  N4  <0> A   1     -30.971  -8.336  52.423  0.00  0.00    -0.268 NA
ATOM     20  N5  <0> A   1     -30.785  -7.118  52.060  0.00  0.00    -0.328 N 
ATOM     21  C11 <0> A   1     -31.116  -6.576  50.740  0.00  0.00    +0.335 C 
BRANCH  18  22
ATOM     22  C12 <0> A   1     -30.632  -9.762  54.441  0.00  0.00    +0.562 C 
ATOM     23  O1  <0> A   1     -31.456 -10.619  54.154  0.00  0.00    -0.676 OA
ATOM     24  O2  <0> A   1     -29.856  -9.945  55.369  0.00  0.00    -0.681 OA
ENDBRANCH  18  22
ENDBRANCH   7  16
BRANCH   1  26
ATOM     25  C1  <0> A   1     -27.937  -0.718  51.293  0.00  0.00    +0.039 C 
ATOM     26  C2  <0> A   1     -26.858  -1.482  52.065  0.00  0.00    +0.051 C 
ATOM     27  C3  <0> A   1     -26.798  -0.965  53.503  0.00  0.00    +0.040 C 
ENDBRANCH   1  26
BRANCH   2  28
ATOM     28  C19 <0> A   1     -24.966  -3.462  51.050  0.00  0.00    +0.018 C 
ATOM     29  C20 <0> A   1     -24.007  -3.074  51.880  0.00  0.00    -0.043 C 
BRANCH  29  30
ATOM     30  C21 <0> A   1     -22.670  -2.639  51.336  0.00  0.00    +0.253 C 
BRANCH  30  31
ATOM     31  O6  <0> A   1     -22.839  -1.463  50.541  0.00  0.00    -0.539 OA
ATOM     32  H26 <0> A   1     -22.014  -1.111  50.179  0.00  0.00    +0.364 HD
ENDBRANCH  30  31
BRANCH  30  33
ATOM     33  C22 <0> A   1     -21.720  -2.336  52.497  0.00  0.00    -0.041 C 
BRANCH  33  34
ATOM     34  C23 <0> A   1     -20.651  -3.427  52.579  0.00  0.00    +0.231 C 
BRANCH  34  35
ATOM     35  O5  <0> A   1     -20.080  -3.632  51.286  0.00  0.00    -0.528 OA
ATOM     36  H25 <0> A   1     -19.120  -3.509  51.255  0.00  0.00    +0.349 HD
ENDBRANCH  34  35
BRANCH  34  37
ATOM     37  C24 <0> A   1     -19.557  -2.995  53.557  0.00  0.00    -0.102 C 
BRANCH  37  38
ATOM     38  C25 <0> A   1     -18.788  -4.207  54.017  0.00  0.00    +0.491 C 
ATOM     39  O3  <0> A   1     -18.689  -5.179  53.289  0.00  0.00    -0.681 OA
ATOM     40  O4  <0> A   1     -18.265  -4.216  55.119  0.00  0.00    -0.716 OA
ENDBRANCH  37  38
ENDBRANCH  34  37
ENDBRANCH  33  34
ENDBRANCH  30  33
ENDBRANCH  29  30
ENDBRANCH   2  28
TORSDOF 12
