MODEL 1
REMARK VINA RESULT:      -8.0      0.000      0.000
REMARK  Name = CHEMBL250794
REMARK  16 active torsions:
REMARK  status: ('A' for Active; 'I' for Inactive)
REMARK    1  A    between atoms: C1_1  and  C2_2
REMARK    2  A    between atoms: C2_2  and  C3_3
REMARK    3  A    between atoms: C2_2  and  C4_4
REMARK    4  A    between atoms: C5_5  and  C19_29
REMARK    5  A    between atoms: N2_7  and  C13_22
REMARK    6  A    between atoms: C6_8  and  O1_9
REMARK    7  A    between atoms: O1_9  and  C7_10
REMARK    8  A    between atoms: C7_10  and  C8_11
REMARK    9  A    between atoms: C8_11  and  C9_13
REMARK   10  A    between atoms: C8_11  and  O5_21
REMARK   11  A    between atoms: C9_13  and  C10_14
REMARK   12  A    between atoms: C10_14  and  C11_16
REMARK   13  A    between atoms: C10_14  and  O4_20
REMARK   14  A    between atoms: C11_16  and  C12_17
REMARK   15  A    between atoms: N3_31  and  C20_32
REMARK   16  A    between atoms: C20_32  and  C21_33
REMARK                            x       y       z     vdW  Elec       q    Type
REMARK                         _______ _______ _______ _____ _____    ______ ____
ROOT
ATOM      1  C4  <0> A   1     -15.899   6.718  46.053  0.00  0.00    -0.160 C 
ATOM      2  C5  <0> A   1     -16.906   7.491  46.670  0.00  0.00    +0.045 C 
ATOM      3  N1  <0> A   1     -16.416   8.695  46.899  0.00  0.00    -0.237 NA
ATOM      4  N2  <0> A   1     -15.094   8.725  46.437  0.00  0.00    -0.318 N 
ATOM      5  C6  <0> A   1     -14.798   7.497  45.926  0.00  0.00    +0.260 C 
ENDROOT
BRANCH   4   6
ATOM      6  C13 <0> A   1     -14.226   9.823  46.495  0.00  0.00    +0.126 A 
ATOM      7  C14 <0> A   1     -13.294   9.919  47.521  0.00  0.00    +0.064 A 
ATOM      8  C15 <0> A   1     -12.441  11.003  47.577  0.00  0.00    +0.005 A 
ATOM      9  C16 <0> A   1     -12.514  11.994  46.613  0.00  0.00    +0.106 A 
ATOM     10  C17 <0> A   1     -13.443  11.901  45.589  0.00  0.00    +0.020 A 
ATOM     11  C18 <0> A   1     -14.294  10.815  45.526  0.00  0.00    +0.073 A 
ATOM     12  F1  <0> A   1     -11.677  13.054  46.669  0.00  0.00    -0.133 F 
ENDBRANCH   4   6
BRANCH   2  13
ATOM     13  C19 <0> A   1     -18.270   7.032  47.003  0.00  0.00    +0.607 C 
ATOM     14  O6  <0> A   1     -19.129   7.006  46.143  0.00  0.00    -0.513 OA
ATOM     15  N3  <0> A   1     -18.562   6.644  48.260  0.00  0.00    -0.710 N 
ATOM     16  H22 <0> A   1     -17.877   6.666  48.946  0.00  0.00    +0.409 HD
BRANCH  15  17
ATOM     17  C20 <0> A   1     -19.914   6.190  48.590  0.00  0.00    +0.354 C 
BRANCH  17  18
ATOM     18  C21 <0> A   1     -19.835   4.917  49.393  0.00  0.00    +0.105 A 
ATOM     19  C22 <0> A   1     -20.994   4.228  49.698  0.00  0.00    -0.013 A 
ATOM     20  C23 <0> A   1     -20.910   3.058  50.437  0.00  0.00    +0.062 A 
ATOM     21  C24 <0> A   1     -19.658   2.623  50.843  0.00  0.00    -0.028 A 
ATOM     22  C25 <0> A   1     -18.544   3.364  50.501  0.00  0.00    +0.259 A 
ATOM     23  N4  <0> A   1     -18.660   4.470  49.792  0.00  0.00    -0.468 NA
ENDBRANCH  17  18
ENDBRANCH  15  17
ENDBRANCH   2  13
BRANCH   1  25
ATOM     24  C1  <0> A   1     -16.224   5.224  44.102  0.00  0.00    +0.028 C 
ATOM     25  C2  <0> A   1     -16.025   5.281  45.617  0.00  0.00    +0.078 C 
ATOM     26  C3  <0> A   1     -14.752   4.521  45.994  0.00  0.00    +0.021 C 
ENDBRANCH   1  25
BRANCH   5  27
ATOM     27  O1  <0> A   1     -13.610   7.123  45.384  0.00  0.00    -0.282 OA
BRANCH  27  28
ATOM     28  C7  <0> A   1     -13.421   7.386  43.993  0.00  0.00    +0.155 C 
BRANCH  28  29
ATOM     29  C8  <0> A   1     -12.196   8.284  43.806  0.00  0.00    +0.232 C 
BRANCH  29  30
ATOM     30  O5  <0> A   1     -11.025   7.587  44.238  0.00  0.00    -0.529 OA
ATOM     31  H17 <0> A   1     -10.667   6.974  43.580  0.00  0.00    +0.363 HD
ENDBRANCH  29  30
BRANCH  29  32
ATOM     32  C9  <0> A   1     -12.054   8.652  42.328  0.00  0.00    -0.040 C 
BRANCH  32  33
ATOM     33  C10 <0> A   1     -13.002   9.807  41.997  0.00  0.00    +0.237 C 
BRANCH  33  34
ATOM     34  O4  <0> A   1     -12.367  11.048  42.312  0.00  0.00    -0.526 OA
ATOM     35  H16 <0> A   1     -11.622  11.267  41.737  0.00  0.00    +0.350 HD
ENDBRANCH  33  34
BRANCH  33  36
ATOM     36  C11 <0> A   1     -13.345   9.775  40.507  0.00  0.00    -0.100 C 
BRANCH  36  37
ATOM     37  C12 <0> A   1     -13.376  11.182  39.968  0.00  0.00    +0.491 C 
ATOM     38  O2  <0> A   1     -12.380  11.658  39.449  0.00  0.00    -0.680 OA
ATOM     39  O3  <0> A   1     -14.396  11.844  40.050  0.00  0.00    -0.712 OA
ENDBRANCH  36  37
ENDBRANCH  33  36
ENDBRANCH  32  33
ENDBRANCH  29  32
ENDBRANCH  28  29
ENDBRANCH  27  28
ENDBRANCH   5  27
TORSDOF 14
ENDMDL
MODEL 2
REMARK VINA RESULT:      -8.0      0.481      1.241
REMARK  Name = CHEMBL250794
REMARK  16 active torsions:
REMARK  status: ('A' for Active; 'I' for Inactive)
REMARK    1  A    between atoms: C1_1  and  C2_2
REMARK    2  A    between atoms: C2_2  and  C3_3
REMARK    3  A    between atoms: C2_2  and  C4_4
REMARK    4  A    between atoms: C5_5  and  C19_29
REMARK    5  A    between atoms: N2_7  and  C13_22
REMARK    6  A    between atoms: C6_8  and  O1_9
REMARK    7  A    between atoms: O1_9  and  C7_10
REMARK    8  A    between atoms: C7_10  and  C8_11
REMARK    9  A    between atoms: C8_11  and  C9_13
REMARK   10  A    between atoms: C8_11  and  O5_21
REMARK   11  A    between atoms: C9_13  and  C10_14
REMARK   12  A    between atoms: C10_14  and  C11_16
REMARK   13  A    between atoms: C10_14  and  O4_20
REMARK   14  A    between atoms: C11_16  and  C12_17
REMARK   15  A    between atoms: N3_31  and  C20_32
REMARK   16  A    between atoms: C20_32  and  C21_33
REMARK                            x       y       z     vdW  Elec       q    Type
REMARK                         _______ _______ _______ _____ _____    ______ ____
ROOT
ATOM      1  C4  <0> A   1     -16.001   6.769  46.122  0.00  0.00    -0.160 C 
ATOM      2  C5  <0> A   1     -17.003   7.512  46.781  0.00  0.00    +0.045 C 
ATOM      3  N1  <0> A   1     -16.518   8.709  47.048  0.00  0.00    -0.237 NA
ATOM      4  N2  <0> A   1     -15.202   8.764  46.570  0.00  0.00    -0.318 N 
ATOM      5  C6  <0> A   1     -14.906   7.558  46.010  0.00  0.00    +0.260 C 
ENDROOT
BRANCH   4   6
ATOM      6  C13 <0> A   1     -14.339   9.865  46.658  0.00  0.00    +0.126 A 
ATOM      7  C14 <0> A   1     -14.389  10.866  45.697  0.00  0.00    +0.064 A 
ATOM      8  C15 <0> A   1     -13.538  11.949  45.785  0.00  0.00    +0.005 A 
ATOM      9  C16 <0> A   1     -12.633  12.037  46.830  0.00  0.00    +0.106 A 
ATOM     10  C17 <0> A   1     -12.581  11.039  47.790  0.00  0.00    +0.020 A 
ATOM     11  C18 <0> A   1     -13.436   9.957  47.708  0.00  0.00    +0.073 A 
ATOM     12  F1  <0> A   1     -11.800  13.098  46.915  0.00  0.00    -0.133 F 
ENDBRANCH   4   6
BRANCH   2  13
ATOM     13  C19 <0> A   1     -18.360   7.033  47.115  0.00  0.00    +0.607 C 
ATOM     14  O6  <0> A   1     -19.214   6.975  46.250  0.00  0.00    -0.513 OA
ATOM     15  N3  <0> A   1     -18.653   6.662  48.376  0.00  0.00    -0.710 N 
ATOM     16  H22 <0> A   1     -17.973   6.709  49.066  0.00  0.00    +0.409 HD
BRANCH  15  17
ATOM     17  C20 <0> A   1     -19.998   6.188  48.708  0.00  0.00    +0.354 C 
BRANCH  17  18
ATOM     18  C21 <0> A   1     -19.901   4.893  49.472  0.00  0.00    +0.105 A 
ATOM     19  C22 <0> A   1     -18.659   4.367  49.771  0.00  0.00    -0.013 A 
ATOM     20  C23 <0> A   1     -18.580   3.175  50.475  0.00  0.00    +0.062 A 
ATOM     21  C24 <0> A   1     -19.761   2.555  50.854  0.00  0.00    -0.028 A 
ATOM     22  C25 <0> A   1     -20.966   3.139  50.520  0.00  0.00    +0.259 A 
ATOM     23  N4  <0> A   1     -21.003   4.277  49.854  0.00  0.00    -0.468 NA
ENDBRANCH  17  18
ENDBRANCH  15  17
ENDBRANCH   2  13
BRANCH   1  25
ATOM     24  C1  <0> A   1     -16.275   5.342  44.113  0.00  0.00    +0.028 C 
ATOM     25  C2  <0> A   1     -16.125   5.348  45.635  0.00  0.00    +0.078 C 
ATOM     26  C3  <0> A   1     -14.871   4.563  46.027  0.00  0.00    +0.021 C 
ENDBRANCH   1  25
BRANCH   5  27
ATOM     27  O1  <0> A   1     -13.724   7.211  45.439  0.00  0.00    -0.282 OA
BRANCH  27  28
ATOM     28  C7  <0> A   1     -13.522   7.598  44.079  0.00  0.00    +0.155 C 
BRANCH  28  29
ATOM     29  C8  <0> A   1     -12.207   8.372  43.958  0.00  0.00    +0.232 C 
BRANCH  29  30
ATOM     30  O5  <0> A   1     -11.121   7.525  44.339  0.00  0.00    -0.529 OA
ATOM     31  H17 <0> A   1     -10.460   7.396  43.643  0.00  0.00    +0.363 HD
ENDBRANCH  29  30
BRANCH  29  32
ATOM     32  C9  <0> A   1     -12.015   8.828  42.511  0.00  0.00    -0.040 C 
BRANCH  32  33
ATOM     33  C10 <0> A   1     -13.050   9.903  42.173  0.00  0.00    +0.237 C 
BRANCH  33  34
ATOM     34  O4  <0> A   1     -12.495  11.196  42.428  0.00  0.00    -0.526 OA
ATOM     35  H16 <0> A   1     -11.776  11.195  43.074  0.00  0.00    +0.350 HD
ENDBRANCH  33  34
BRANCH  33  36
ATOM     36  C11 <0> A   1     -13.434   9.797  40.696  0.00  0.00    -0.100 C 
BRANCH  36  37
ATOM     37  C12 <0> A   1     -13.442  11.171  40.079  0.00  0.00    +0.491 C 
ATOM     38  O2  <0> A   1     -14.457  11.847  40.109  0.00  0.00    -0.680 OA
ATOM     39  O3  <0> A   1     -12.435  11.608  39.550  0.00  0.00    -0.712 OA
ENDBRANCH  36  37
ENDBRANCH  33  36
ENDBRANCH  32  33
ENDBRANCH  29  32
ENDBRANCH  28  29
ENDBRANCH  27  28
ENDBRANCH   5  27
TORSDOF 14
ENDMDL
MODEL 3
REMARK VINA RESULT:      -7.9      4.264      7.333
REMARK  Name = CHEMBL250794
REMARK  16 active torsions:
REMARK  status: ('A' for Active; 'I' for Inactive)
REMARK    1  A    between atoms: C1_1  and  C2_2
REMARK    2  A    between atoms: C2_2  and  C3_3
REMARK    3  A    between atoms: C2_2  and  C4_4
REMARK    4  A    between atoms: C5_5  and  C19_29
REMARK    5  A    between atoms: N2_7  and  C13_22
REMARK    6  A    between atoms: C6_8  and  O1_9
REMARK    7  A    between atoms: O1_9  and  C7_10
REMARK    8  A    between atoms: C7_10  and  C8_11
REMARK    9  A    between atoms: C8_11  and  C9_13
REMARK   10  A    between atoms: C8_11  and  O5_21
REMARK   11  A    between atoms: C9_13  and  C10_14
REMARK   12  A    between atoms: C10_14  and  C11_16
REMARK   13  A    between atoms: C10_14  and  O4_20
REMARK   14  A    between atoms: C11_16  and  C12_17
REMARK   15  A    between atoms: N3_31  and  C20_32
REMARK   16  A    between atoms: C20_32  and  C21_33
REMARK                            x       y       z     vdW  Elec       q    Type
REMARK                         _______ _______ _______ _____ _____    ______ ____
ROOT
ATOM      1  C4  <0> A   1     -11.876   7.472  46.131  0.00  0.00    -0.160 C 
ATOM      2  C5  <0> A   1     -11.903   6.530  47.182  0.00  0.00    +0.045 C 
ATOM      3  N1  <0> A   1     -13.164   6.289  47.484  0.00  0.00    -0.237 NA
ATOM      4  N2  <0> A   1     -13.972   7.062  46.640  0.00  0.00    -0.318 N 
ATOM      5  C6  <0> A   1     -13.158   7.784  45.822  0.00  0.00    +0.260 C 
ENDROOT
BRANCH   4   6
ATOM      6  C13 <0> A   1     -15.373   7.093  46.643  0.00  0.00    +0.126 A 
ATOM      7  C14 <0> A   1     -16.086   6.376  45.691  0.00  0.00    +0.064 A 
ATOM      8  C15 <0> A   1     -17.466   6.407  45.695  0.00  0.00    +0.005 A 
ATOM      9  C16 <0> A   1     -18.140   7.155  46.646  0.00  0.00    +0.106 A 
ATOM     10  C17 <0> A   1     -17.431   7.872  47.596  0.00  0.00    +0.020 A 
ATOM     11  C18 <0> A   1     -16.050   7.837  47.600  0.00  0.00    +0.073 A 
ATOM     12  F1  <0> A   1     -19.491   7.186  46.649  0.00  0.00    -0.133 F 
ENDBRANCH   4   6
BRANCH   2  13
ATOM     13  C19 <0> A   1     -10.724   5.921  47.831  0.00  0.00    +0.607 C 
ATOM     14  O6  <0> A   1     -10.145   6.515  48.720  0.00  0.00    -0.513 OA
ATOM     15  N3  <0> A   1     -10.289   4.709  47.437  0.00  0.00    -0.710 N 
ATOM     16  H22 <0> A   1     -10.750   4.235  46.727  0.00  0.00    +0.409 HD
BRANCH  15  17
ATOM     17  C20 <0> A   1      -9.120   4.104  48.080  0.00  0.00    +0.354 C 
BRANCH  17  18
ATOM     18  C21 <0> A   1      -8.115   3.710  47.029  0.00  0.00    +0.105 A 
ATOM     19  C22 <0> A   1      -7.785   4.605  46.029  0.00  0.00    -0.013 A 
ATOM     20  C23 <0> A   1      -6.860   4.233  45.066  0.00  0.00    +0.062 A 
ATOM     21  C24 <0> A   1      -6.297   2.968  45.147  0.00  0.00    -0.028 A 
ATOM     22  C25 <0> A   1      -6.675   2.127  46.175  0.00  0.00    +0.259 A 
ATOM     23  N4  <0> A   1      -7.555   2.517  47.077  0.00  0.00    -0.468 NA
ENDBRANCH  17  18
ENDBRANCH  15  17
ENDBRANCH   2  13
BRANCH   1  25
ATOM     24  C1  <0> A   1     -10.803   7.976  43.953  0.00  0.00    +0.028 C 
ATOM     25  C2  <0> A   1     -10.641   8.033  45.473  0.00  0.00    +0.078 C 
ATOM     26  C3  <0> A   1     -10.448   9.487  45.911  0.00  0.00    +0.021 C 
ENDBRANCH   1  25
BRANCH   5  27
ATOM     27  O1  <0> A   1     -13.560   8.660  44.865  0.00  0.00    -0.282 OA
BRANCH  27  28
ATOM     28  C7  <0> A   1     -13.930   9.970  45.298  0.00  0.00    +0.155 C 
BRANCH  28  29
ATOM     29  C8  <0> A   1     -13.762  10.956  44.140  0.00  0.00    +0.232 C 
BRANCH  29  30
ATOM     30  O5  <0> A   1     -12.559  11.705  44.323  0.00  0.00    -0.529 OA
ATOM     31  H17 <0> A   1     -11.892  11.550  43.640  0.00  0.00    +0.363 HD
ENDBRANCH  29  30
BRANCH  29  32
ATOM     32  C9  <0> A   1     -13.688  10.186  42.820  0.00  0.00    -0.040 C 
BRANCH  32  33
ATOM     33  C10 <0> A   1     -13.018  11.059  41.757  0.00  0.00    +0.237 C 
BRANCH  33  34
ATOM     34  O4  <0> A   1     -11.699  10.570  41.503  0.00  0.00    -0.526 OA
ATOM     35  H16 <0> A   1     -11.426   9.851  42.088  0.00  0.00    +0.350 HD
ENDBRANCH  33  34
BRANCH  33  36
ATOM     36  C11 <0> A   1     -13.836  11.009  40.466  0.00  0.00    -0.100 C 
BRANCH  36  37
ATOM     37  C12 <0> A   1     -12.905  10.976  39.282  0.00  0.00    +0.491 C 
ATOM     38  O2  <0> A   1     -12.597   9.909  38.777  0.00  0.00    -0.680 OA
ATOM     39  O3  <0> A   1     -12.460  12.016  38.827  0.00  0.00    -0.712 OA
ENDBRANCH  36  37
ENDBRANCH  33  36
ENDBRANCH  32  33
ENDBRANCH  29  32
ENDBRANCH  28  29
ENDBRANCH  27  28
ENDBRANCH   5  27
TORSDOF 14
ENDMDL
MODEL 4
REMARK VINA RESULT:      -7.8      1.474      1.989
REMARK  Name = CHEMBL250794
REMARK  16 active torsions:
REMARK  status: ('A' for Active; 'I' for Inactive)
REMARK    1  A    between atoms: C1_1  and  C2_2
REMARK    2  A    between atoms: C2_2  and  C3_3
REMARK    3  A    between atoms: C2_2  and  C4_4
REMARK    4  A    between atoms: C5_5  and  C19_29
REMARK    5  A    between atoms: N2_7  and  C13_22
REMARK    6  A    between atoms: C6_8  and  O1_9
REMARK    7  A    between atoms: O1_9  and  C7_10
REMARK    8  A    between atoms: C7_10  and  C8_11
REMARK    9  A    between atoms: C8_11  and  C9_13
REMARK   10  A    between atoms: C8_11  and  O5_21
REMARK   11  A    between atoms: C9_13  and  C10_14
REMARK   12  A    between atoms: C10_14  and  C11_16
REMARK   13  A    between atoms: C10_14  and  O4_20
REMARK   14  A    between atoms: C11_16  and  C12_17
REMARK   15  A    between atoms: N3_31  and  C20_32
REMARK   16  A    between atoms: C20_32  and  C21_33
REMARK                            x       y       z     vdW  Elec       q    Type
REMARK                         _______ _______ _______ _____ _____    ______ ____
ROOT
ATOM      1  C4  <0> A   1     -15.379   6.811  45.788  0.00  0.00    -0.160 C 
ATOM      2  C5  <0> A   1     -16.297   7.420  46.669  0.00  0.00    +0.045 C 
ATOM      3  N1  <0> A   1     -15.876   8.645  46.919  0.00  0.00    -0.237 NA
ATOM      4  N2  <0> A   1     -14.686   8.852  46.209  0.00  0.00    -0.318 N 
ATOM      5  C6  <0> A   1     -14.399   7.709  45.526  0.00  0.00    +0.260 C 
ENDROOT
BRANCH   4   6
ATOM      6  C13 <0> A   1     -13.923  10.027  46.206  0.00  0.00    +0.126 A 
ATOM      7  C14 <0> A   1     -12.891  10.187  47.122  0.00  0.00    +0.064 A 
ATOM      8  C15 <0> A   1     -12.140  11.345  47.118  0.00  0.00    +0.005 A 
ATOM      9  C16 <0> A   1     -12.416  12.348  46.204  0.00  0.00    +0.106 A 
ATOM     10  C17 <0> A   1     -13.446  12.191  45.290  0.00  0.00    +0.020 A 
ATOM     11  C18 <0> A   1     -14.195  11.030  45.287  0.00  0.00    +0.073 A 
ATOM     12  F1  <0> A   1     -11.680  13.482  46.202  0.00  0.00    -0.133 F 
ENDBRANCH   4   6
BRANCH   2  13
ATOM     13  C19 <0> A   1     -17.518   6.794  47.217  0.00  0.00    +0.607 C 
ATOM     14  O6  <0> A   1     -18.527   6.736  46.541  0.00  0.00    -0.513 OA
ATOM     15  N3  <0> A   1     -17.514   6.289  48.466  0.00  0.00    -0.710 N 
ATOM     16  H22 <0> A   1     -16.709   6.336  49.006  0.00  0.00    +0.409 HD
BRANCH  15  17
ATOM     17  C20 <0> A   1     -18.724   5.669  49.010  0.00  0.00    +0.354 C 
BRANCH  17  18
ATOM     18  C21 <0> A   1     -19.388   6.620  49.971  0.00  0.00    +0.105 A 
ATOM     19  C22 <0> A   1     -19.017   6.618  51.302  0.00  0.00    -0.013 A 
ATOM     20  C23 <0> A   1     -19.634   7.497  52.178  0.00  0.00    +0.062 A 
ATOM     21  C24 <0> A   1     -20.607   8.350  51.680  0.00  0.00    -0.028 A 
ATOM     22  C25 <0> A   1     -20.926   8.296  50.337  0.00  0.00    +0.259 A 
ATOM     23  N4  <0> A   1     -20.314   7.450  49.531  0.00  0.00    -0.468 NA
ENDBRANCH  17  18
ENDBRANCH  15  17
ENDBRANCH   2  13
BRANCH   1  25
ATOM     24  C1  <0> A   1     -15.770   5.467  43.742  0.00  0.00    +0.028 C 
ATOM     25  C2  <0> A   1     -15.469   5.410  45.240  0.00  0.00    +0.078 C 
ATOM     26  C3  <0> A   1     -14.138   4.688  45.466  0.00  0.00    +0.021 C 
ENDBRANCH   1  25
BRANCH   5  27
ATOM     27  O1  <0> A   1     -13.322   7.508  44.723  0.00  0.00    -0.282 OA
BRANCH  27  28
ATOM     28  C7  <0> A   1     -13.415   7.989  43.381  0.00  0.00    +0.155 C 
BRANCH  28  29
ATOM     29  C8  <0> A   1     -12.249   7.435  42.559  0.00  0.00    +0.232 C 
BRANCH  29  30
ATOM     30  O5  <0> A   1     -12.341   6.009  42.504  0.00  0.00    -0.529 OA
ATOM     31  H17 <0> A   1     -13.113   5.684  42.022  0.00  0.00    +0.363 HD
ENDBRANCH  29  30
BRANCH  29  32
ATOM     32  C9  <0> A   1     -12.308   8.005  41.141  0.00  0.00    -0.040 C 
BRANCH  32  33
ATOM     33  C10 <0> A   1     -12.876   9.425  41.185  0.00  0.00    +0.237 C 
BRANCH  33  34
ATOM     34  O4  <0> A   1     -11.804  10.363  41.296  0.00  0.00    -0.526 OA
ATOM     35  H16 <0> A   1     -12.041  11.265  41.041  0.00  0.00    +0.350 HD
ENDBRANCH  33  34
BRANCH  33  36
ATOM     36  C11 <0> A   1     -13.663   9.701  39.903  0.00  0.00    -0.100 C 
BRANCH  36  37
ATOM     37  C12 <0> A   1     -13.659  11.180  39.619  0.00  0.00    +0.491 C 
ATOM     38  O2  <0> A   1     -12.871  11.643  38.810  0.00  0.00    -0.680 OA
ATOM     39  O3  <0> A   1     -14.442  11.915  40.195  0.00  0.00    -0.712 OA
ENDBRANCH  36  37
ENDBRANCH  33  36
ENDBRANCH  32  33
ENDBRANCH  29  32
ENDBRANCH  28  29
ENDBRANCH  27  28
ENDBRANCH   5  27
TORSDOF 14
ENDMDL
MODEL 5
REMARK VINA RESULT:      -7.7     23.366     27.330
REMARK  Name = CHEMBL250794
REMARK  16 active torsions:
REMARK  status: ('A' for Active; 'I' for Inactive)
REMARK    1  A    between atoms: C1_1  and  C2_2
REMARK    2  A    between atoms: C2_2  and  C3_3
REMARK    3  A    between atoms: C2_2  and  C4_4
REMARK    4  A    between atoms: C5_5  and  C19_29
REMARK    5  A    between atoms: N2_7  and  C13_22
REMARK    6  A    between atoms: C6_8  and  O1_9
REMARK    7  A    between atoms: O1_9  and  C7_10
REMARK    8  A    between atoms: C7_10  and  C8_11
REMARK    9  A    between atoms: C8_11  and  C9_13
REMARK   10  A    between atoms: C8_11  and  O5_21
REMARK   11  A    between atoms: C9_13  and  C10_14
REMARK   12  A    between atoms: C10_14  and  C11_16
REMARK   13  A    between atoms: C10_14  and  O4_20
REMARK   14  A    between atoms: C11_16  and  C12_17
REMARK   15  A    between atoms: N3_31  and  C20_32
REMARK   16  A    between atoms: C20_32  and  C21_33
REMARK                            x       y       z     vdW  Elec       q    Type
REMARK                         _______ _______ _______ _____ _____    ______ ____
ROOT
ATOM      1  C4  <0> A   1       4.668  21.857  32.601  0.00  0.00    -0.160 C 
ATOM      2  C5  <0> A   1       4.670  20.498  32.222  0.00  0.00    +0.045 C 
ATOM      3  N1  <0> A   1       5.195  19.798  33.210  0.00  0.00    -0.237 NA
ATOM      4  N2  <0> A   1       5.540  20.684  34.239  0.00  0.00    -0.318 N 
ATOM      5  C6  <0> A   1       5.211  21.943  33.839  0.00  0.00    +0.260 C 
ENDROOT
BRANCH   4   6
ATOM      6  C13 <0> A   1       6.126  20.336  35.463  0.00  0.00    +0.126 A 
ATOM      7  C14 <0> A   1       7.392  20.806  35.786  0.00  0.00    +0.064 A 
ATOM      8  C15 <0> A   1       7.968  20.461  36.993  0.00  0.00    +0.005 A 
ATOM      9  C16 <0> A   1       7.285  19.645  37.879  0.00  0.00    +0.106 A 
ATOM     10  C17 <0> A   1       6.023  19.174  37.559  0.00  0.00    +0.020 A 
ATOM     11  C18 <0> A   1       5.441  19.522  36.355  0.00  0.00    +0.073 A 
ATOM     12  F1  <0> A   1       7.851  19.308  39.060  0.00  0.00    -0.133 F 
ENDBRANCH   4   6
BRANCH   2  13
ATOM     13  C19 <0> A   1       4.171  19.953  30.943  0.00  0.00    +0.607 C 
ATOM     14  O6  <0> A   1       3.745  20.704  30.087  0.00  0.00    -0.513 OA
ATOM     15  N3  <0> A   1       4.187  18.624  30.726  0.00  0.00    -0.710 N 
ATOM     16  H22 <0> A   1       4.526  18.023  31.408  0.00  0.00    +0.409 HD
BRANCH  15  17
ATOM     17  C20 <0> A   1       3.692  18.082  29.458  0.00  0.00    +0.354 C 
BRANCH  17  18
ATOM     18  C21 <0> A   1       4.647  17.033  28.951  0.00  0.00    +0.105 A 
ATOM     19  C22 <0> A   1       5.771  16.718  29.691  0.00  0.00    -0.013 A 
ATOM     20  C23 <0> A   1       6.644  15.751  29.217  0.00  0.00    +0.062 A 
ATOM     21  C24 <0> A   1       6.351  15.134  28.010  0.00  0.00    -0.028 A 
ATOM     22  C25 <0> A   1       5.209  15.500  27.325  0.00  0.00    +0.259 A 
ATOM     23  N4  <0> A   1       4.398  16.421  27.810  0.00  0.00    -0.468 NA
ENDBRANCH  17  18
ENDBRANCH  15  17
ENDBRANCH   2  13
BRANCH   1  25
ATOM     24  C1  <0> A   1       2.911  23.598  32.433  0.00  0.00    +0.028 C 
ATOM     25  C2  <0> A   1       4.157  23.008  31.772  0.00  0.00    +0.078 C 
ATOM     26  C3  <0> A   1       5.240  24.085  31.675  0.00  0.00    +0.021 C 
ENDBRANCH   1  25
BRANCH   5  27
ATOM     27  O1  <0> A   1       5.393  23.083  34.556  0.00  0.00    -0.282 OA
BRANCH  27  28
ATOM     28  C7  <0> A   1       4.739  23.163  35.823  0.00  0.00    +0.155 C 
BRANCH  28  29
ATOM     29  C8  <0> A   1       3.376  22.472  35.739  0.00  0.00    +0.232 C 
BRANCH  29  30
ATOM     30  O5  <0> A   1       3.187  21.651  36.894  0.00  0.00    -0.529 OA
ATOM     31  H17 <0> A   1       3.310  20.706  36.729  0.00  0.00    +0.363 HD
ENDBRANCH  29  30
BRANCH  29  32
ATOM     32  C9  <0> A   1       2.272  23.528  35.676  0.00  0.00    -0.040 C 
BRANCH  32  33
ATOM     33  C10 <0> A   1       0.971  22.879  35.199  0.00  0.00    +0.237 C 
BRANCH  33  34
ATOM     34  O4  <0> A   1       1.224  21.520  34.834  0.00  0.00    -0.526 OA
ATOM     35  H16 <0> A   1       1.002  21.311  33.916  0.00  0.00    +0.350 HD
ENDBRANCH  33  34
BRANCH  33  36
ATOM     36  C11 <0> A   1      -0.063  22.919  36.325  0.00  0.00    -0.100 C 
BRANCH  36  37
ATOM     37  C12 <0> A   1      -1.204  21.992  35.993  0.00  0.00    +0.491 C 
ATOM     38  O2  <0> A   1      -1.551  21.844  34.833  0.00  0.00    -0.680 OA
ATOM     39  O3  <0> A   1      -1.779  21.390  36.883  0.00  0.00    -0.712 OA
ENDBRANCH  36  37
ENDBRANCH  33  36
ENDBRANCH  32  33
ENDBRANCH  29  32
ENDBRANCH  28  29
ENDBRANCH  27  28
ENDBRANCH   5  27
TORSDOF 14
ENDMDL
MODEL 6
REMARK VINA RESULT:      -7.6     14.836     20.604
REMARK  Name = CHEMBL250794
REMARK  16 active torsions:
REMARK  status: ('A' for Active; 'I' for Inactive)
REMARK    1  A    between atoms: C1_1  and  C2_2
REMARK    2  A    between atoms: C2_2  and  C3_3
REMARK    3  A    between atoms: C2_2  and  C4_4
REMARK    4  A    between atoms: C5_5  and  C19_29
REMARK    5  A    between atoms: N2_7  and  C13_22
REMARK    6  A    between atoms: C6_8  and  O1_9
REMARK    7  A    between atoms: O1_9  and  C7_10
REMARK    8  A    between atoms: C7_10  and  C8_11
REMARK    9  A    between atoms: C8_11  and  C9_13
REMARK   10  A    between atoms: C8_11  and  O5_21
REMARK   11  A    between atoms: C9_13  and  C10_14
REMARK   12  A    between atoms: C10_14  and  C11_16
REMARK   13  A    between atoms: C10_14  and  O4_20
REMARK   14  A    between atoms: C11_16  and  C12_17
REMARK   15  A    between atoms: N3_31  and  C20_32
REMARK   16  A    between atoms: C20_32  and  C21_33
REMARK                            x       y       z     vdW  Elec       q    Type
REMARK                         _______ _______ _______ _____ _____    ______ ____
ROOT
ATOM      1  C4  <0> A   1     -26.291  -4.776  51.154  0.00  0.00    -0.160 C 
ATOM      2  C5  <0> A   1     -24.997  -4.299  50.855  0.00  0.00    +0.045 C 
ATOM      3  N1  <0> A   1     -24.260  -5.325  50.472  0.00  0.00    -0.237 NA
ATOM      4  N2  <0> A   1     -25.058  -6.477  50.515  0.00  0.00    -0.318 N 
ATOM      5  C6  <0> A   1     -26.299  -6.114  50.942  0.00  0.00    +0.260 C 
ENDROOT
BRANCH   4   6
ATOM      6  C13 <0> A   1     -24.648  -7.775  50.183  0.00  0.00    +0.126 A 
ATOM      7  C14 <0> A   1     -24.246  -8.653  51.180  0.00  0.00    +0.064 A 
ATOM      8  C15 <0> A   1     -23.842  -9.932  50.851  0.00  0.00    +0.005 A 
ATOM      9  C16 <0> A   1     -23.836 -10.338  49.527  0.00  0.00    +0.106 A 
ATOM     10  C17 <0> A   1     -24.236  -9.463  48.530  0.00  0.00    +0.020 A 
ATOM     11  C18 <0> A   1     -24.647  -8.185  48.857  0.00  0.00    +0.073 A 
ATOM     12  F1  <0> A   1     -23.440 -11.590  49.206  0.00  0.00    -0.133 F 
ENDBRANCH   4   6
BRANCH   2  13
ATOM     13  C19 <0> A   1     -24.544  -2.897  50.953  0.00  0.00    +0.607 C 
ATOM     14  O6  <0> A   1     -23.831  -2.551  51.876  0.00  0.00    -0.513 OA
ATOM     15  N3  <0> A   1     -24.922  -2.000  50.022  0.00  0.00    -0.710 N 
ATOM     16  H22 <0> A   1     -25.492  -2.275  49.286  0.00  0.00    +0.409 HD
BRANCH  15  17
ATOM     17  C20 <0> A   1     -24.474  -0.609  50.119  0.00  0.00    +0.354 C 
BRANCH  17  18
ATOM     18  C21 <0> A   1     -25.621   0.259  50.567  0.00  0.00    +0.105 A 
ATOM     19  C22 <0> A   1     -26.908  -0.049  50.167  0.00  0.00    -0.013 A 
ATOM     20  C23 <0> A   1     -27.957   0.756  50.585  0.00  0.00    +0.062 A 
ATOM     21  C24 <0> A   1     -27.670   1.846  51.393  0.00  0.00    -0.028 A 
ATOM     22  C25 <0> A   1     -26.359   2.091  51.753  0.00  0.00    +0.259 A 
ATOM     23  N4  <0> A   1     -25.387   1.300  51.341  0.00  0.00    -0.468 NA
ENDBRANCH  17  18
ENDBRANCH  15  17
ENDBRANCH   2  13
BRANCH   1  25
ATOM     24  C1  <0> A   1     -28.349  -3.592  50.441  0.00  0.00    +0.028 C 
ATOM     25  C2  <0> A   1     -27.455  -3.945  51.630  0.00  0.00    +0.078 C 
ATOM     26  C3  <0> A   1     -28.262  -4.741  52.658  0.00  0.00    +0.021 C 
ENDBRANCH   1  25
BRANCH   5  27
ATOM     27  O1  <0> A   1     -27.357  -6.946  51.121  0.00  0.00    -0.282 OA
BRANCH  27  28
ATOM     28  C7  <0> A   1     -28.044  -7.383  49.947  0.00  0.00    +0.155 C 
BRANCH  28  29
ATOM     29  C8  <0> A   1     -28.633  -8.775  50.189  0.00  0.00    +0.232 C 
BRANCH  29  30
ATOM     30  O5  <0> A   1     -27.573  -9.726  50.306  0.00  0.00    -0.529 OA
ATOM     31  H17 <0> A   1     -27.756 -10.574  49.879  0.00  0.00    +0.363 HD
ENDBRANCH  29  30
BRANCH  29  32
ATOM     32  C9  <0> A   1     -29.454  -8.764  51.479  0.00  0.00    -0.040 C 
BRANCH  32  33
ATOM     33  C10 <0> A   1     -30.350 -10.003  51.525  0.00  0.00    +0.237 C 
BRANCH  33  34
ATOM     34  O4  <0> A   1     -30.144 -10.783  50.345  0.00  0.00    -0.526 OA
ATOM     35  H16 <0> A   1     -29.497 -10.407  49.732  0.00  0.00    +0.350 HD
ENDBRANCH  33  34
BRANCH  33  36
ATOM     36  C11 <0> A   1     -30.000 -10.842  52.756  0.00  0.00    -0.100 C 
BRANCH  36  37
ATOM     37  C12 <0> A   1     -29.320 -12.114  52.321  0.00  0.00    +0.491 C 
ATOM     38  O2  <0> A   1     -29.966 -13.143  52.209  0.00  0.00    -0.680 OA
ATOM     39  O3  <0> A   1     -28.126 -12.116  52.079  0.00  0.00    -0.712 OA
ENDBRANCH  36  37
ENDBRANCH  33  36
ENDBRANCH  32  33
ENDBRANCH  29  32
ENDBRANCH  28  29
ENDBRANCH  27  28
ENDBRANCH   5  27
TORSDOF 14
ENDMDL
MODEL 7
REMARK VINA RESULT:      -7.5     14.856     20.524
REMARK  Name = CHEMBL250794
REMARK  16 active torsions:
REMARK  status: ('A' for Active; 'I' for Inactive)
REMARK    1  A    between atoms: C1_1  and  C2_2
REMARK    2  A    between atoms: C2_2  and  C3_3
REMARK    3  A    between atoms: C2_2  and  C4_4
REMARK    4  A    between atoms: C5_5  and  C19_29
REMARK    5  A    between atoms: N2_7  and  C13_22
REMARK    6  A    between atoms: C6_8  and  O1_9
REMARK    7  A    between atoms: O1_9  and  C7_10
REMARK    8  A    between atoms: C7_10  and  C8_11
REMARK    9  A    between atoms: C8_11  and  C9_13
REMARK   10  A    between atoms: C8_11  and  O5_21
REMARK   11  A    between atoms: C9_13  and  C10_14
REMARK   12  A    between atoms: C10_14  and  C11_16
REMARK   13  A    between atoms: C10_14  and  O4_20
REMARK   14  A    between atoms: C11_16  and  C12_17
REMARK   15  A    between atoms: N3_31  and  C20_32
REMARK   16  A    between atoms: C20_32  and  C21_33
REMARK                            x       y       z     vdW  Elec       q    Type
REMARK                         _______ _______ _______ _____ _____    ______ ____
ROOT
ATOM      1  C4  <0> A   1     -26.388  -4.769  50.963  0.00  0.00    -0.160 C 
ATOM      2  C5  <0> A   1     -25.054  -4.338  50.799  0.00  0.00    +0.045 C 
ATOM      3  N1  <0> A   1     -24.325  -5.383  50.454  0.00  0.00    -0.237 NA
ATOM      4  N2  <0> A   1     -25.166  -6.501  50.388  0.00  0.00    -0.318 N 
ATOM      5  C6  <0> A   1     -26.427  -6.100  50.711  0.00  0.00    +0.260 C 
ENDROOT
BRANCH   4   6
ATOM      6  C13 <0> A   1     -24.778  -7.806  50.056  0.00  0.00    +0.126 A 
ATOM      7  C14 <0> A   1     -24.444  -8.708  51.057  0.00  0.00    +0.064 A 
ATOM      8  C15 <0> A   1     -24.061  -9.993  50.727  0.00  0.00    +0.005 A 
ATOM      9  C16 <0> A   1     -24.006 -10.381  49.399  0.00  0.00    +0.106 A 
ATOM     10  C17 <0> A   1     -24.338  -9.482  48.398  0.00  0.00    +0.020 A 
ATOM     11  C18 <0> A   1     -24.728  -8.198  48.725  0.00  0.00    +0.073 A 
ATOM     12  F1  <0> A   1     -23.631 -11.639  49.078  0.00  0.00    -0.133 F 
ENDBRANCH   4   6
BRANCH   2  13
ATOM     13  C19 <0> A   1     -24.560  -2.959  50.981  0.00  0.00    +0.607 C 
ATOM     14  O6  <0> A   1     -23.896  -2.675  51.959  0.00  0.00    -0.513 OA
ATOM     15  N3  <0> A   1     -24.845  -2.014  50.063  0.00  0.00    -0.710 N 
ATOM     16  H22 <0> A   1     -25.374  -2.240  49.282  0.00  0.00    +0.409 HD
BRANCH  15  17
ATOM     17  C20 <0> A   1     -24.355  -0.646  50.243  0.00  0.00    +0.354 C 
BRANCH  17  18
ATOM     18  C21 <0> A   1     -25.505   0.257  50.606  0.00  0.00    +0.105 A 
ATOM     19  C22 <0> A   1     -26.770  -0.020  50.122  0.00  0.00    -0.013 A 
ATOM     20  C23 <0> A   1     -27.822   0.817  50.461  0.00  0.00    +0.062 A 
ATOM     21  C24 <0> A   1     -27.560   1.906  51.279  0.00  0.00    -0.028 A 
ATOM     22  C25 <0> A   1     -26.271   2.120  51.724  0.00  0.00    +0.259 A 
ATOM     23  N4  <0> A   1     -25.295   1.299  51.386  0.00  0.00    -0.468 NA
ENDBRANCH  17  18
ENDBRANCH  15  17
ENDBRANCH   2  13
BRANCH   1  25
ATOM     24  C1  <0> A   1     -28.421  -3.626  50.125  0.00  0.00    +0.028 C 
ATOM     25  C2  <0> A   1     -27.558  -3.904  51.356  0.00  0.00    +0.078 C 
ATOM     26  C3  <0> A   1     -28.395  -4.629  52.412  0.00  0.00    +0.021 C 
ENDBRANCH   1  25
BRANCH   5  27
ATOM     27  O1  <0> A   1     -27.529  -6.893  50.766  0.00  0.00    -0.282 OA
BRANCH  27  28
ATOM     28  C7  <0> A   1     -28.175  -7.193  49.528  0.00  0.00    +0.155 C 
BRANCH  28  29
ATOM     29  C8  <0> A   1     -28.652  -8.647  49.540  0.00  0.00    +0.232 C 
BRANCH  29  30
ATOM     30  O5  <0> A   1     -28.015  -9.366  48.481  0.00  0.00    -0.529 OA
ATOM     31  H17 <0> A   1     -28.403  -9.205  47.610  0.00  0.00    +0.363 HD
ENDBRANCH  29  30
BRANCH  29  32
ATOM     32  C9  <0> A   1     -28.293  -9.289  50.881  0.00  0.00    -0.040 C 
BRANCH  32  33
ATOM     33  C10 <0> A   1     -29.503 -10.052  51.422  0.00  0.00    +0.237 C 
BRANCH  33  34
ATOM     34  O4  <0> A   1     -29.074 -11.303  51.965  0.00  0.00    -0.526 OA
ATOM     35  H16 <0> A   1     -29.757 -11.770  52.466  0.00  0.00    +0.350 HD
ENDBRANCH  33  34
BRANCH  33  36
ATOM     36  C11 <0> A   1     -30.179  -9.227  52.519  0.00  0.00    -0.100 C 
BRANCH  36  37
ATOM     37  C12 <0> A   1     -30.519 -10.120  53.683  0.00  0.00    +0.491 C 
ATOM     38  O2  <0> A   1     -31.464 -10.888  53.607  0.00  0.00    -0.680 OA
ATOM     39  O3  <0> A   1     -29.849 -10.078  54.701  0.00  0.00    -0.712 OA
ENDBRANCH  36  37
ENDBRANCH  33  36
ENDBRANCH  32  33
ENDBRANCH  29  32
ENDBRANCH  28  29
ENDBRANCH  27  28
ENDBRANCH   5  27
TORSDOF 14
ENDMDL
MODEL 8
REMARK VINA RESULT:      -7.4     23.750     27.247
REMARK  Name = CHEMBL250794
REMARK  16 active torsions:
REMARK  status: ('A' for Active; 'I' for Inactive)
REMARK    1  A    between atoms: C1_1  and  C2_2
REMARK    2  A    between atoms: C2_2  and  C3_3
REMARK    3  A    between atoms: C2_2  and  C4_4
REMARK    4  A    between atoms: C5_5  and  C19_29
REMARK    5  A    between atoms: N2_7  and  C13_22
REMARK    6  A    between atoms: C6_8  and  O1_9
REMARK    7  A    between atoms: O1_9  and  C7_10
REMARK    8  A    between atoms: C7_10  and  C8_11
REMARK    9  A    between atoms: C8_11  and  C9_13
REMARK   10  A    between atoms: C8_11  and  O5_21
REMARK   11  A    between atoms: C9_13  and  C10_14
REMARK   12  A    between atoms: C10_14  and  C11_16
REMARK   13  A    between atoms: C10_14  and  O4_20
REMARK   14  A    between atoms: C11_16  and  C12_17
REMARK   15  A    between atoms: N3_31  and  C20_32
REMARK   16  A    between atoms: C20_32  and  C21_33
REMARK                            x       y       z     vdW  Elec       q    Type
REMARK                         _______ _______ _______ _____ _____    ______ ____
ROOT
ATOM      1  C4  <0> A   1       3.816  22.532  32.850  0.00  0.00    -0.160 C 
ATOM      2  C5  <0> A   1       3.931  21.193  33.279  0.00  0.00    +0.045 C 
ATOM      3  N1  <0> A   1       2.973  20.959  34.155  0.00  0.00    -0.237 NA
ATOM      4  N2  <0> A   1       2.223  22.133  34.308  0.00  0.00    -0.318 N 
ATOM      5  C6  <0> A   1       2.764  23.086  33.500  0.00  0.00    +0.260 C 
ENDROOT
BRANCH   4   6
ATOM      6  C13 <0> A   1       1.115  22.298  35.150  0.00  0.00    +0.126 A 
ATOM      7  C14 <0> A   1      -0.133  21.835  34.756  0.00  0.00    +0.064 A 
ATOM      8  C15 <0> A   1      -1.223  21.999  35.586  0.00  0.00    +0.005 A 
ATOM      9  C16 <0> A   1      -1.074  22.628  36.811  0.00  0.00    +0.106 A 
ATOM     10  C17 <0> A   1       0.171  23.091  37.207  0.00  0.00    +0.020 A 
ATOM     11  C18 <0> A   1       1.265  22.922  36.381  0.00  0.00    +0.073 A 
ATOM     12  F1  <0> A   1      -2.142  22.788  37.624  0.00  0.00    -0.133 F 
ENDBRANCH   4   6
BRANCH   2  13
ATOM     13  C19 <0> A   1       4.948  20.222  32.827  0.00  0.00    +0.607 C 
ATOM     14  O6  <0> A   1       6.100  20.327  33.206  0.00  0.00    -0.513 OA
ATOM     15  N3  <0> A   1       4.601  19.221  31.996  0.00  0.00    -0.710 N 
ATOM     16  H22 <0> A   1       3.684  19.137  31.693  0.00  0.00    +0.409 HD
BRANCH  15  17
ATOM     17  C20 <0> A   1       5.610  18.258  31.547  0.00  0.00    +0.354 C 
BRANCH  17  18
ATOM     18  C21 <0> A   1       5.112  17.545  30.317  0.00  0.00    +0.105 A 
ATOM     19  C22 <0> A   1       6.019  17.040  29.405  0.00  0.00    -0.013 A 
ATOM     20  C23 <0> A   1       5.550  16.385  28.276  0.00  0.00    +0.062 A 
ATOM     21  C24 <0> A   1       4.180  16.261  28.108  0.00  0.00    -0.028 A 
ATOM     22  C25 <0> A   1       3.333  16.790  29.062  0.00  0.00    +0.259 A 
ATOM     23  N4  <0> A   1       3.814  17.403  30.126  0.00  0.00    -0.468 NA
ENDBRANCH  17  18
ENDBRANCH  15  17
ENDBRANCH   2  13
BRANCH   1  25
ATOM     24  C1  <0> A   1       6.081  23.469  32.477  0.00  0.00    +0.028 C 
ATOM     25  C2  <0> A   1       4.707  23.225  31.851  0.00  0.00    +0.078 C 
ATOM     26  C3  <0> A   1       4.861  22.343  30.610  0.00  0.00    +0.021 C 
ENDBRANCH   1  25
BRANCH   5  27
ATOM     27  O1  <0> A   1       2.324  24.365  33.368  0.00  0.00    -0.282 OA
BRANCH  27  28
ATOM     28  C7  <0> A   1       1.772  24.733  32.103  0.00  0.00    +0.155 C 
BRANCH  28  29
ATOM     29  C8  <0> A   1       2.065  26.210  31.830  0.00  0.00    +0.232 C 
BRANCH  29  30
ATOM     30  O5  <0> A   1       1.504  26.581  30.568  0.00  0.00    -0.529 OA
ATOM     31  H17 <0> A   1       2.109  27.077  30.000  0.00  0.00    +0.363 HD
ENDBRANCH  29  30
BRANCH  29  32
ATOM     32  C9  <0> A   1       1.444  27.066  32.935  0.00  0.00    -0.040 C 
BRANCH  32  33
ATOM     33  C10 <0> A   1      -0.072  27.130  32.740  0.00  0.00    +0.237 C 
BRANCH  33  34
ATOM     34  O4  <0> A   1      -0.581  25.811  32.525  0.00  0.00    -0.526 OA
ATOM     35  H16 <0> A   1      -0.311  25.171  33.198  0.00  0.00    +0.350 HD
ENDBRANCH  33  34
BRANCH  33  36
ATOM     36  C11 <0> A   1      -0.723  27.728  33.989  0.00  0.00    -0.100 C 
BRANCH  36  37
ATOM     37  C12 <0> A   1      -0.146  27.076  35.218  0.00  0.00    +0.491 C 
ATOM     38  O2  <0> A   1      -0.353  25.894  35.435  0.00  0.00    -0.680 OA
ATOM     39  O3  <0> A   1       0.528  27.729  35.996  0.00  0.00    -0.712 OA
ENDBRANCH  36  37
ENDBRANCH  33  36
ENDBRANCH  32  33
ENDBRANCH  29  32
ENDBRANCH  28  29
ENDBRANCH  27  28
ENDBRANCH   5  27
TORSDOF 14
ENDMDL
MODEL 9
REMARK VINA RESULT:      -7.4     14.869     18.401
REMARK  Name = CHEMBL250794
REMARK  16 active torsions:
REMARK  status: ('A' for Active; 'I' for Inactive)
REMARK    1  A    between atoms: C1_1  and  C2_2
REMARK    2  A    between atoms: C2_2  and  C3_3
REMARK    3  A    between atoms: C2_2  and  C4_4
REMARK    4  A    between atoms: C5_5  and  C19_29
REMARK    5  A    between atoms: N2_7  and  C13_22
REMARK    6  A    between atoms: C6_8  and  O1_9
REMARK    7  A    between atoms: O1_9  and  C7_10
REMARK    8  A    between atoms: C7_10  and  C8_11
REMARK    9  A    between atoms: C8_11  and  C9_13
REMARK   10  A    between atoms: C8_11  and  O5_21
REMARK   11  A    between atoms: C9_13  and  C10_14
REMARK   12  A    between atoms: C10_14  and  C11_16
REMARK   13  A    between atoms: C10_14  and  O4_20
REMARK   14  A    between atoms: C11_16  and  C12_17
REMARK   15  A    between atoms: N3_31  and  C20_32
REMARK   16  A    between atoms: C20_32  and  C21_33
REMARK                            x       y       z     vdW  Elec       q    Type
REMARK                         _______ _______ _______ _____ _____    ______ ____
ROOT
ATOM      1  C4  <0> A   1     -26.046  -5.678  51.927  0.00  0.00    -0.160 C 
ATOM      2  C5  <0> A   1     -24.670  -5.859  51.670  0.00  0.00    +0.045 C 
ATOM      3  N1  <0> A   1     -24.124  -4.669  51.507  0.00  0.00    -0.237 NA
ATOM      4  N2  <0> A   1     -25.127  -3.702  51.656  0.00  0.00    -0.318 N 
ATOM      5  C6  <0> A   1     -26.300  -4.347  51.908  0.00  0.00    +0.260 C 
ENDROOT
BRANCH   4   6
ATOM      6  C13 <0> A   1     -24.955  -2.315  51.556  0.00  0.00    +0.126 A 
ATOM      7  C14 <0> A   1     -25.080  -1.686  50.324  0.00  0.00    +0.064 A 
ATOM      8  C15 <0> A   1     -24.910  -0.320  50.227  0.00  0.00    +0.005 A 
ATOM      9  C16 <0> A   1     -24.613   0.424  51.358  0.00  0.00    +0.106 A 
ATOM     10  C17 <0> A   1     -24.487  -0.202  52.587  0.00  0.00    +0.020 A 
ATOM     11  C18 <0> A   1     -24.663  -1.568  52.689  0.00  0.00    +0.073 A 
ATOM     12  F1  <0> A   1     -24.446   1.762  51.262  0.00  0.00    -0.133 F 
ENDBRANCH   4   6
BRANCH   2  13
ATOM     13  C19 <0> A   1     -23.965  -7.154  51.595  0.00  0.00    +0.607 C 
ATOM     14  O6  <0> A   1     -23.406  -7.600  52.580  0.00  0.00    -0.513 OA
ATOM     15  N3  <0> A   1     -23.940  -7.842  50.437  0.00  0.00    -0.710 N 
ATOM     16  H22 <0> A   1     -24.384  -7.487  49.652  0.00  0.00    +0.409 HD
BRANCH  15  17
ATOM     17  C20 <0> A   1     -23.240  -9.127  50.362  0.00  0.00    +0.354 C 
BRANCH  17  18
ATOM     18  C21 <0> A   1     -23.944 -10.026  49.380  0.00  0.00    +0.105 A 
ATOM     19  C22 <0> A   1     -23.585 -11.358  49.295  0.00  0.00    -0.013 A 
ATOM     20  C23 <0> A   1     -24.238 -12.178  48.388  0.00  0.00    +0.062 A 
ATOM     21  C24 <0> A   1     -25.234 -11.624  47.597  0.00  0.00    -0.028 A 
ATOM     22  C25 <0> A   1     -25.539 -10.284  47.737  0.00  0.00    +0.259 A 
ATOM     23  N4  <0> A   1     -24.899  -9.535  48.615  0.00  0.00    -0.468 NA
ENDBRANCH  17  18
ENDBRANCH  15  17
ENDBRANCH   2  13
BRANCH   1  25
ATOM     24  C1  <0> A   1     -27.987  -6.356  53.313  0.00  0.00    +0.028 C 
ATOM     25  C2  <0> A   1     -27.054  -6.771  52.174  0.00  0.00    +0.078 C 
ATOM     26  C3  <0> A   1     -27.873  -7.005  50.903  0.00  0.00    +0.021 C 
ENDBRANCH   1  25
BRANCH   5  27
ATOM     27  O1  <0> A   1     -27.508  -3.760  52.108  0.00  0.00    -0.282 OA
BRANCH  27  28
ATOM     28  C7  <0> A   1     -28.208  -3.306  50.948  0.00  0.00    +0.155 C 
BRANCH  28  29
ATOM     29  C8  <0> A   1     -28.967  -2.019  51.281  0.00  0.00    +0.232 C 
BRANCH  29  30
ATOM     30  O5  <0> A   1     -30.336  -2.330  51.549  0.00  0.00    -0.529 OA
ATOM     31  H17 <0> A   1     -30.479  -3.233  51.865  0.00  0.00    +0.363 HD
ENDBRANCH  29  30
BRANCH  29  32
ATOM     32  C9  <0> A   1     -28.342  -1.364  52.514  0.00  0.00    -0.040 C 
BRANCH  32  33
ATOM     33  C10 <0> A   1     -28.328   0.155  52.332  0.00  0.00    +0.237 C 
BRANCH  33  34
ATOM     34  O4  <0> A   1     -28.400   0.468  50.939  0.00  0.00    -0.526 OA
ATOM     35  H16 <0> A   1     -27.875   1.238  50.681  0.00  0.00    +0.350 HD
ENDBRANCH  33  34
BRANCH  33  36
ATOM     36  C11 <0> A   1     -29.529   0.768  53.054  0.00  0.00    -0.100 C 
BRANCH  36  37
ATOM     37  C12 <0> A   1     -30.522   1.272  52.040  0.00  0.00    +0.491 C 
ATOM     38  O2  <0> A   1     -30.481   2.435  51.672  0.00  0.00    -0.680 OA
ATOM     39  O3  <0> A   1     -31.366   0.520  51.584  0.00  0.00    -0.712 OA
ENDBRANCH  36  37
ENDBRANCH  33  36
ENDBRANCH  32  33
ENDBRANCH  29  32
ENDBRANCH  28  29
ENDBRANCH  27  28
ENDBRANCH   5  27
TORSDOF 14
ENDMDL
MODEL 10
REMARK VINA RESULT:      -7.3      2.712      4.248
REMARK  Name = CHEMBL250794
REMARK  16 active torsions:
REMARK  status: ('A' for Active; 'I' for Inactive)
REMARK    1  A    between atoms: C1_1  and  C2_2
REMARK    2  A    between atoms: C2_2  and  C3_3
REMARK    3  A    between atoms: C2_2  and  C4_4
REMARK    4  A    between atoms: C5_5  and  C19_29
REMARK    5  A    between atoms: N2_7  and  C13_22
REMARK    6  A    between atoms: C6_8  and  O1_9
REMARK    7  A    between atoms: O1_9  and  C7_10
REMARK    8  A    between atoms: C7_10  and  C8_11
REMARK    9  A    between atoms: C8_11  and  C9_13
REMARK   10  A    between atoms: C8_11  and  O5_21
REMARK   11  A    between atoms: C9_13  and  C10_14
REMARK   12  A    between atoms: C10_14  and  C11_16
REMARK   13  A    between atoms: C10_14  and  O4_20
REMARK   14  A    between atoms: C11_16  and  C12_17
REMARK   15  A    between atoms: N3_31  and  C20_32
REMARK   16  A    between atoms: C20_32  and  C21_33
REMARK                            x       y       z     vdW  Elec       q    Type
REMARK                         _______ _______ _______ _____ _____    ______ ____
ROOT
ATOM      1  C4  <0> A   1     -15.062   8.865  47.543  0.00  0.00    -0.160 C 
ATOM      2  C5  <0> A   1     -15.670   7.602  47.381  0.00  0.00    +0.045 C 
ATOM      3  N1  <0> A   1     -15.210   7.065  46.267  0.00  0.00    -0.237 NA
ATOM      4  N2  <0> A   1     -14.302   7.963  45.691  0.00  0.00    -0.318 N 
ATOM      5  C6  <0> A   1     -14.232   9.063  46.490  0.00  0.00    +0.260 C 
ENDROOT
BRANCH   4   6
ATOM      6  C13 <0> A   1     -13.595   7.767  44.497  0.00  0.00    +0.126 A 
ATOM      7  C14 <0> A   1     -14.273   7.415  43.337  0.00  0.00    +0.064 A 
ATOM      8  C15 <0> A   1     -13.575   7.222  42.162  0.00  0.00    +0.005 A 
ATOM      9  C16 <0> A   1     -12.198   7.376  42.140  0.00  0.00    +0.106 A 
ATOM     10  C17 <0> A   1     -11.520   7.726  43.296  0.00  0.00    +0.020 A 
ATOM     11  C18 <0> A   1     -12.216   7.927  44.472  0.00  0.00    +0.073 A 
ATOM     12  F1  <0> A   1     -11.516   7.186  40.989  0.00  0.00    -0.133 F 
ENDBRANCH   4   6
BRANCH   2  13
ATOM     13  C19 <0> A   1     -16.650   6.987  48.299  0.00  0.00    +0.607 C 
ATOM     14  O6  <0> A   1     -16.275   6.219  49.164  0.00  0.00    -0.513 OA
ATOM     15  N3  <0> A   1     -17.960   7.277  48.178  0.00  0.00    -0.710 N 
ATOM     16  H22 <0> A   1     -18.260   7.889  47.488  0.00  0.00    +0.409 HD
BRANCH  15  17
ATOM     17  C20 <0> A   1     -18.933   6.668  49.088  0.00  0.00    +0.354 C 
BRANCH  17  18
ATOM     18  C21 <0> A   1     -19.553   7.736  49.950  0.00  0.00    +0.105 A 
ATOM     19  C22 <0> A   1     -18.781   8.390  50.891  0.00  0.00    -0.013 A 
ATOM     20  C23 <0> A   1     -19.361   9.371  51.679  0.00  0.00    +0.062 A 
ATOM     21  C24 <0> A   1     -20.704   9.659  51.490  0.00  0.00    -0.028 A 
ATOM     22  C25 <0> A   1     -21.414   8.965  50.531  0.00  0.00    +0.259 A 
ATOM     23  N4  <0> A   1     -20.827   8.041  49.795  0.00  0.00    -0.468 NA
ENDBRANCH  17  18
ENDBRANCH  15  17
ENDBRANCH   2  13
BRANCH   1  25
ATOM     24  C1  <0> A   1     -16.724  10.368  48.604  0.00  0.00    +0.028 C 
ATOM     25  C2  <0> A   1     -15.297   9.824  48.682  0.00  0.00    +0.078 C 
ATOM     26  C3  <0> A   1     -15.101   9.094  50.012  0.00  0.00    +0.021 C 
ENDBRANCH   1  25
BRANCH   5  27
ATOM     27  O1  <0> A   1     -13.464  10.162  46.272  0.00  0.00    -0.282 OA
BRANCH  27  28
ATOM     28  C7  <0> A   1     -14.107  11.298  45.692  0.00  0.00    +0.155 C 
BRANCH  28  29
ATOM     29  C8  <0> A   1     -13.373  11.700  44.410  0.00  0.00    +0.232 C 
BRANCH  29  30
ATOM     30  O5  <0> A   1     -12.010  11.278  44.491  0.00  0.00    -0.529 OA
ATOM     31  H17 <0> A   1     -11.713  10.761  43.729  0.00  0.00    +0.363 HD
ENDBRANCH  29  30
BRANCH  29  32
ATOM     32  C9  <0> A   1     -14.043  11.032  43.208  0.00  0.00    -0.040 C 
BRANCH  32  33
ATOM     33  C10 <0> A   1     -13.340  11.471  41.923  0.00  0.00    +0.237 C 
BRANCH  33  34
ATOM     34  O4  <0> A   1     -12.070  10.822  41.829  0.00  0.00    -0.526 OA
ATOM     35  H16 <0> A   1     -11.340  11.415  41.607  0.00  0.00    +0.350 HD
ENDBRANCH  33  34
BRANCH  33  36
ATOM     36  C11 <0> A   1     -14.197  11.088  40.715  0.00  0.00    -0.100 C 
BRANCH  36  37
ATOM     37  C12 <0> A   1     -13.341  11.073  39.475  0.00  0.00    +0.491 C 
ATOM     38  O2  <0> A   1     -13.243  12.077  38.790  0.00  0.00    -0.680 OA
ATOM     39  O3  <0> A   1     -12.746  10.058  39.158  0.00  0.00    -0.712 OA
ENDBRANCH  36  37
ENDBRANCH  33  36
ENDBRANCH  32  33
ENDBRANCH  29  32
ENDBRANCH  28  29
ENDBRANCH  27  28
ENDBRANCH   5  27
TORSDOF 14
ENDMDL
