REMARK  Name = CHEMBL427854
REMARK  15 active torsions:
REMARK  status: ('A' for Active; 'I' for Inactive)
REMARK    1  A    between atoms: C1_1  and  C2_2
REMARK    2  A    between atoms: C2_2  and  N1_3
REMARK    3  A    between atoms: C3_4  and  C21_25
REMARK    4  A    between atoms: C4_5  and  C15_18
REMARK    5  A    between atoms: C5_6  and  C14_17
REMARK    6  A    between atoms: C6_7  and  C7_8
REMARK    7  A    between atoms: N2_10  and  C8_11
REMARK    8  A    between atoms: C21_25  and  C22_26
REMARK    9  A    between atoms: C22_26  and  C23_27
REMARK   10  A    between atoms: C23_27  and  C24_29
REMARK   11  A    between atoms: C23_27  and  O5_37
REMARK   12  A    between atoms: C24_29  and  C25_30
REMARK   13  A    between atoms: C25_30  and  C26_32
REMARK   14  A    between atoms: C25_30  and  O4_36
REMARK   15  A    between atoms: C26_32  and  C27_33
REMARK                            x       y       z     vdW  Elec       q    Type
REMARK                         _______ _______ _______ _____ _____    ______ ____
ROOT
ATOM      1  N1  <0> A   1       0.382  -0.844  -0.737  0.00  0.00    -0.407 N 
ATOM      2  C3  <0> A   1      -0.293  -1.101  -1.877  0.00  0.00    +0.082 C 
ATOM      3  C4  <0> A   1       0.588  -1.073  -2.920  0.00  0.00    -0.141 C 
ATOM      4  C5  <0> A   1       1.861  -0.784  -2.390  0.00  0.00    -0.082 C 
ATOM      5  C6  <0> A   1       1.709  -0.641  -1.040  0.00  0.00    -0.059 C 
ATOM      6  C14 <0> A   1       3.145  -0.653  -3.167  0.00  0.00    +0.110 C 
ENDROOT
BRANCH   3   7
ATOM      7  C15 <0> A   1       0.264  -1.305  -4.351  0.00  0.00    -0.009 A 
ATOM      8  C16 <0> A   1      -0.195  -2.552  -4.770  0.00  0.00    +0.050 A 
ATOM      9  C17 <0> A   1      -0.495  -2.763  -6.100  0.00  0.00    -0.016 A 
ATOM     10  C18 <0> A   1      -0.341  -1.737  -7.018  0.00  0.00    +0.094 A 
ATOM     11  C19 <0> A   1       0.115  -0.495  -6.606  0.00  0.00    -0.016 A 
ATOM     12  C20 <0> A   1       0.412  -0.274  -5.276  0.00  0.00    +0.053 A 
ATOM     13  F1  <0> A   1      -0.636  -1.948  -8.319  0.00  0.00    -0.142 F 
ENDBRANCH   3   7
BRANCH   5  14
ATOM     14  C7  <0> A   1       2.774  -0.328  -0.081  0.00  0.00    +0.602 C 
ATOM     15  O1  <0> A   1       3.062   0.831   0.152  0.00  0.00    -0.498 OA
ATOM     16  N2  <0> A   1       3.433  -1.325   0.543  0.00  0.00    -0.661 N 
ATOM     17  H8  <0> A   1       3.296  -2.244   0.267  0.00  0.00    +0.415 HD
BRANCH  16  18
ATOM     18  C8  <0> A   1       4.315  -1.033   1.588  0.00  0.00    +0.144 A 
ATOM     19  C9  <0> A   1       4.880   0.232   1.690  0.00  0.00    +0.017 A 
ATOM     20  C10 <0> A   1       5.751   0.516   2.723  0.00  0.00    +0.026 A 
ATOM     21  C11 <0> A   1       6.060  -0.456   3.657  0.00  0.00    -0.019 A 
ATOM     22  C12 <0> A   1       5.499  -1.716   3.559  0.00  0.00    +0.026 A 
ATOM     23  C13 <0> A   1       4.623  -2.006   2.531  0.00  0.00    -0.027 A 
ENDBRANCH  16  18
ENDBRANCH   5  14
BRANCH   1  25
ATOM     24  C1  <0> A   1      -0.523   0.670   0.957  0.00  0.00    +0.040 C 
ATOM     25  C2  <0> A   1      -0.205  -0.784   0.604  0.00  0.00    +0.280 C 
ENDBRANCH   1  25
BRANCH   2  26
ATOM     26  C21 <0> A   1      -1.771  -1.375  -1.981  0.00  0.00    +0.117 C 
BRANCH  26  27
ATOM     27  C22 <0> A   1      -2.520  -0.057  -2.188  0.00  0.00    -0.007 C 
BRANCH  27  28
ATOM     28  C23 <0> A   1      -4.021  -0.335  -2.294  0.00  0.00    +0.212 C 
BRANCH  28  29
ATOM     29  O5  <0> A   1      -4.499  -0.850  -1.050  0.00  0.00    -0.542 OA
ATOM     30  H30 <0> A   1      -4.372  -0.252  -0.301  0.00  0.00    +0.363 HD
ENDBRANCH  28  29
BRANCH  28  31
ATOM     31  C24 <0> A   1      -4.758   0.965  -2.624  0.00  0.00    -0.051 C 
BRANCH  31  32
ATOM     32  C25 <0> A   1      -6.241   0.666  -2.853  0.00  0.00    +0.231 C 
BRANCH  32  33
ATOM     33  O4  <0> A   1      -6.826   0.198  -1.636  0.00  0.00    -0.528 OA
ATOM     34  H29 <0> A   1      -6.772   0.830  -0.906  0.00  0.00    +0.349 HD
ENDBRANCH  32  33
BRANCH  32  35
ATOM     35  C26 <0> A   1      -6.955   1.942  -3.305  0.00  0.00    -0.103 C 
BRANCH  35  36
ATOM     36  C27 <0> A   1      -8.387   1.621  -3.648  0.00  0.00    +0.490 C 
ATOM     37  O2  <0> A   1      -8.799   0.479  -3.541  0.00  0.00    -0.681 OA
ATOM     38  O3  <0> A   1      -9.134   2.505  -4.033  0.00  0.00    -0.713 OA
ENDBRANCH  35  36
ENDBRANCH  32  35
ENDBRANCH  31  32
ENDBRANCH  28  31
ENDBRANCH  27  28
ENDBRANCH  26  27
ENDBRANCH   2  26
TORSDOF 13
