REMARK VINA RESULT:      -7.5     13.272     17.277
REMARK  Name = CHEMBL250707
REMARK  16 active torsions:
REMARK  status: ('A' for Active; 'I' for Inactive)
REMARK    1  A    between atoms: C1_1  and  C2_2
REMARK    2  A    between atoms: C2_2  and  C3_3
REMARK    3  A    between atoms: C2_2  and  N1_4
REMARK    4  A    between atoms: C4_5  and  C24_28
REMARK    5  A    between atoms: C5_6  and  C18_21
REMARK    6  A    between atoms: C6_7  and  C12_15
REMARK    7  A    between atoms: C7_8  and  C8_9
REMARK    8  A    between atoms: N2_11  and  C9_12
REMARK    9  A    between atoms: C24_28  and  C25_29
REMARK   10  A    between atoms: C25_29  and  C26_30
REMARK   11  A    between atoms: C26_30  and  C27_32
REMARK   12  A    between atoms: C26_30  and  O5_40
REMARK   13  A    between atoms: C27_32  and  C28_33
REMARK   14  A    between atoms: C28_33  and  C29_35
REMARK   15  A    between atoms: C28_33  and  O4_39
REMARK   16  A    between atoms: C29_35  and  C30_36
REMARK                            x       y       z     vdW  Elec       q    Type
REMARK                         _______ _______ _______ _____ _____    ______ ____
ROOT
ATOM      1  N1  <0> A   1     -26.644  -2.205  51.309  0.00  0.00    -0.402 N 
ATOM      2  C4  <0> A   1     -25.530  -2.855  51.722  0.00  0.00    +0.074 C 
ATOM      3  C5  <0> A   1     -24.544  -1.943  51.956  0.00  0.00    -0.122 C 
ATOM      4  C6  <0> A   1     -25.075  -0.659  51.672  0.00  0.00    -0.057 C 
ATOM      5  C7  <0> A   1     -26.389  -0.854  51.264  0.00  0.00    -0.033 C 
ENDROOT
BRANCH   3   6
ATOM      6  C18 <0> A   1     -23.167  -2.240  52.423  0.00  0.00    -0.009 A 
ATOM      7  C19 <0> A   1     -22.221  -2.747  51.533  0.00  0.00    +0.050 A 
ATOM      8  C20 <0> A   1     -20.942  -3.022  51.972  0.00  0.00    -0.016 A 
ATOM      9  C21 <0> A   1     -20.597  -2.793  53.294  0.00  0.00    +0.095 A 
ATOM     10  C22 <0> A   1     -21.534  -2.290  54.181  0.00  0.00    -0.017 A 
ATOM     11  C23 <0> A   1     -22.814  -2.006  53.750  0.00  0.00    +0.055 A 
ATOM     12  F1  <0> A   1     -19.344  -3.064  53.718  0.00  0.00    -0.142 F 
ENDBRANCH   3   6
BRANCH   4  13
ATOM     13  C12 <0> A   1     -24.366   0.636  51.784  0.00  0.00    -0.010 A 
ATOM     14  C13 <0> A   1     -24.670   1.512  52.825  0.00  0.00    +0.026 A 
ATOM     15  C14 <0> A   1     -24.006   2.718  52.925  0.00  0.00    +0.003 A 
ATOM     16  C15 <0> A   1     -23.040   3.057  51.993  0.00  0.00    -0.002 A 
ATOM     17  C16 <0> A   1     -22.734   2.192  50.958  0.00  0.00    +0.001 A 
ATOM     18  C17 <0> A   1     -23.387   0.981  50.853  0.00  0.00    +0.009 A 
ENDBRANCH   4  13
BRANCH   5  19
ATOM     19  C8  <0> A   1     -27.332   0.192  50.862  0.00  0.00    +0.608 C 
ATOM     20  O1  <0> A   1     -27.281   0.659  49.739  0.00  0.00    -0.517 OA
ATOM     21  N2  <0> A   1     -28.256   0.638  51.735  0.00  0.00    -0.693 N 
ATOM     22  H10 <0> A   1     -28.254   0.315  52.650  0.00  0.00    +0.404 HD
BRANCH  21  23
ATOM     23  C9  <0> A   1     -29.263   1.611  51.304  0.00  0.00    +0.217 C 
ATOM     24  C10 <0> A   1     -29.247   2.988  51.970  0.00  0.00    +0.009 C 
ATOM     25  C11 <0> A   1     -30.356   1.989  52.307  0.00  0.00    +0.017 C 
ENDBRANCH  21  23
ENDBRANCH   5  19
BRANCH   1  27
ATOM     26  C1  <0> A   1     -27.836  -3.389  49.532  0.00  0.00    +0.045 C 
ATOM     27  C2  <0> A   1     -27.916  -2.840  50.958  0.00  0.00    +0.230 C 
ATOM     28  C3  <0> A   1     -28.200  -3.987  51.931  0.00  0.00    +0.041 C 
ENDBRANCH   1  27
BRANCH   2  29
ATOM     29  C24 <0> A   1     -25.402  -4.346  51.897  0.00  0.00    +0.117 C 
BRANCH  29  30
ATOM     30  C25 <0> A   1     -24.749  -4.951  50.652  0.00  0.00    -0.007 C 
BRANCH  30  31
ATOM     31  C26 <0> A   1     -25.363  -6.323  50.369  0.00  0.00    +0.212 C 
BRANCH  31  32
ATOM     32  O5  <0> A   1     -25.811  -6.374  49.013  0.00  0.00    -0.542 OA
ATOM     33  H34 <0> A   1     -25.174  -6.024  48.376  0.00  0.00    +0.362 HD
ENDBRANCH  31  32
BRANCH  31  34
ATOM     34  C27 <0> A   1     -24.314  -7.410  50.601  0.00  0.00    -0.051 C 
BRANCH  34  35
ATOM     35  C28 <0> A   1     -24.167  -8.257  49.336  0.00  0.00    +0.230 C 
BRANCH  35  36
ATOM     36  O4  <0> A   1     -23.297  -7.595  48.417  0.00  0.00    -0.528 OA
ATOM     37  H33 <0> A   1     -22.966  -8.164  47.709  0.00  0.00    +0.349 HD
ENDBRANCH  35  36
BRANCH  35  38
ATOM     38  C29 <0> A   1     -23.579  -9.623  49.700  0.00  0.00    -0.103 C 
BRANCH  38  39
ATOM     39  C30 <0> A   1     -24.614 -10.438  50.430  0.00  0.00    +0.490 C 
ATOM     40  O2  <0> A   1     -25.728 -10.576  49.956  0.00  0.00    -0.681 OA
ATOM     41  O3  <0> A   1     -24.337 -10.959  51.497  0.00  0.00    -0.713 OA
ENDBRANCH  38  39
ENDBRANCH  35  38
ENDBRANCH  34  35
ENDBRANCH  31  34
ENDBRANCH  30  31
ENDBRANCH  29  30
ENDBRANCH   2  29
TORSDOF 14
