REMARK VINA RESULT:      -7.0     17.678     21.334
REMARK  Name = CHEMBL331610
REMARK  16 active torsions:
REMARK  status: ('A' for Active; 'I' for Inactive)
REMARK    1  A    between atoms: C1_1  and  C2_2
REMARK    2  A    between atoms: C2_2  and  C3_3
REMARK    3  A    between atoms: C3_3  and  C4_4
REMARK    4  A    between atoms: C3_3  and  C5_5
REMARK    5  A    between atoms: C3_3  and  C6_6
REMARK    6  A    between atoms: C6_6  and  O2_8
REMARK    7  A    between atoms: O2_8  and  C7_9
REMARK    8  A    between atoms: C8_11  and  C26_37
REMARK    9  A    between atoms: C9_13  and  C25_36
REMARK   10  A    between atoms: C13_18  and  C18_25
REMARK   11  A    between atoms: C14_20  and  C17_24
REMARK   12  A    between atoms: C18_25  and  C19_26
REMARK   13  A    between atoms: C19_26  and  C20_27
REMARK   14  A    between atoms: C22_29  and  O5_35
REMARK   15  A    between atoms: C26_37  and  C27_39
REMARK   16  A    between atoms: C26_37  and  O6_45
REMARK                            x       y       z     vdW  Elec       q    Type
REMARK                         _______ _______ _______ _____ _____    ______ ____
ROOT
ATOM      1  C7  <0> A   1     -28.505  -6.798  52.125  0.00  0.00    +0.201 C 
ATOM      2  C8  <0> A   1     -27.437  -7.785  51.659  0.00  0.00    -0.048 C 
ATOM      3  C9  <0> A   1     -27.968  -8.524  50.423  0.00  0.00    +0.033 C 
ATOM      4  C10 <0> A   1     -28.201  -7.498  49.343  0.00  0.00    -0.039 C 
ATOM      5  C11 <0> A   1     -28.584  -6.272  49.647  0.00  0.00    -0.069 C 
ATOM      6  C12 <0> A   1     -28.871  -5.811  51.043  0.00  0.00    +0.044 C 
ATOM      7  C13 <0> A   1     -28.191  -4.455  51.244  0.00  0.00    +0.011 C 
ATOM      8  C14 <0> A   1     -28.800  -3.452  50.262  0.00  0.00    +0.022 C 
ATOM      9  C15 <0> A   1     -28.834  -3.993  48.866  0.00  0.00    -0.017 C 
ATOM     10  C16 <0> A   1     -28.746  -5.272  48.566  0.00  0.00    -0.011 C 
ATOM     11  C17 <0> A   1     -27.967  -2.169  50.279  0.00  0.00    +0.029 C 
ATOM     12  C25 <0> A   1     -29.282  -9.229  50.763  0.00  0.00    +0.041 C 
ENDROOT
BRANCH   1  13
ATOM     13  O2  <0> A   1     -29.675  -7.524  52.506  0.00  0.00    -0.333 OA
BRANCH  13  14
ATOM     14  C6  <0> A   1     -29.933  -7.619  53.820  0.00  0.00    +0.464 C 
ATOM     15  O1  <0> A   1     -29.344  -6.913  54.604  0.00  0.00    -0.502 OA
BRANCH  14  16
ATOM     16  C3  <0> A   1     -30.957  -8.606  54.317  0.00  0.00    -0.052 C 
ATOM     17  C4  <0> A   1     -32.076  -8.745  53.283  0.00  0.00    +0.060 C 
ATOM     18  C5  <0> A   1     -31.544  -8.110  55.641  0.00  0.00    +0.060 C 
BRANCH  16  20
ATOM     19  C1  <0> A   1     -30.973 -11.015  53.653  0.00  0.00    +0.024 C 
ATOM     20  C2  <0> A   1     -30.291  -9.967  54.533  0.00  0.00    +0.036 C 
ENDBRANCH  16  20
ENDBRANCH  14  16
ENDBRANCH  13  14
ENDBRANCH   1  13
BRANCH   7  21
ATOM     21  C18 <0> A   1     -26.690  -4.589  50.981  0.00  0.00    +0.034 C 
BRANCH  21  22
ATOM     22  C19 <0> A   1     -25.916  -3.757  52.004  0.00  0.00    +0.053 C 
BRANCH  22  23
ATOM     23  C20 <0> A   1     -24.719  -3.091  51.320  0.00  0.00    +0.178 C 
ATOM     24  C21 <0> A   1     -23.459  -3.320  52.158  0.00  0.00    +0.033 C 
ATOM     25  C22 <0> A   1     -22.272  -2.617  51.492  0.00  0.00    +0.181 C 
ATOM     26  C23 <0> A   1     -22.576  -1.117  51.391  0.00  0.00    +0.007 C 
ATOM     27  C24 <0> A   1     -23.929  -0.951  50.731  0.00  0.00    +0.498 C 
ATOM     28  O3  <0> A   1     -24.080  -0.185  49.810  0.00  0.00    -0.454 OA
ATOM     29  O4  <0> A   1     -24.959  -1.684  51.202  0.00  0.00    -0.341 OA
BRANCH  25  30
ATOM     30  O5  <0> A   1     -22.068  -3.156  50.184  0.00  0.00    -0.563 OA
ATOM     31  H35 <0> A   1     -21.235  -2.888  49.773  0.00  0.00    +0.385 HD
ENDBRANCH  25  30
ENDBRANCH  22  23
ENDBRANCH  21  22
ENDBRANCH   7  21
BRANCH   2  32
ATOM     32  C26 <0> A   1     -26.157  -7.029  51.299  0.00  0.00    +0.279 C 
BRANCH  32  33
ATOM     33  C27 <0> A   1     -25.242  -7.934  50.516  0.00  0.00    -0.067 A 
ATOM     34  C28 <0> A   1     -24.680  -7.492  49.332  0.00  0.00    -0.003 A 
ATOM     35  C29 <0> A   1     -23.840  -8.322  48.613  0.00  0.00    +0.005 A 
ATOM     36  C30 <0> A   1     -23.561  -9.594  49.079  0.00  0.00    -0.009 A 
ATOM     37  C31 <0> A   1     -24.122 -10.034  50.263  0.00  0.00    -0.014 A 
ATOM     38  C32 <0> A   1     -24.958  -9.203  50.983  0.00  0.00    +0.014 A 
ENDBRANCH  32  33
BRANCH  32  39
ATOM     39  O6  <0> A   1     -25.500  -6.607  52.496  0.00  0.00    -0.535 OA
ATOM     40  H44 <0> A   1     -25.724  -5.708  52.772  0.00  0.00    +0.364 HD
ENDBRANCH  32  39
ENDBRANCH   2  32
TORSDOF 11
