REMARK VINA RESULT:      -6.5      9.726     11.776
REMARK  Name = CHEMBL101633
REMARK  11 active torsions:
REMARK  status: ('A' for Active; 'I' for Inactive)
REMARK    1  A    between atoms: C5_5  and  O1_14
REMARK    2  A    between atoms: C6_6  and  C7_7
REMARK    3  A    between atoms: C7_7  and  C8_8
REMARK    4  A    between atoms: O1_14  and  C14_15
REMARK    5  A    between atoms: C14_15  and  C15_16
REMARK    6  A    between atoms: C15_16  and  C16_17
REMARK    7  A    between atoms: C15_16  and  O5_25
REMARK    8  A    between atoms: C16_17  and  C17_18
REMARK    9  A    between atoms: C17_18  and  C18_20
REMARK   10  A    between atoms: C17_18  and  O4_24
REMARK   11  A    between atoms: C18_20  and  C19_21
REMARK                            x       y       z     vdW  Elec       q    Type
REMARK                         _______ _______ _______ _____ _____    ______ ____
ROOT
ATOM      1  C1  <0> A   1     -13.752  11.422  43.214  0.00  0.00    +0.051 A 
ATOM      2  C2  <0> A   1     -13.847  10.906  41.934  0.00  0.00    -0.030 A 
ATOM      3  C3  <0> A   1     -13.171   9.745  41.603  0.00  0.00    +0.047 A 
ATOM      4  C4  <0> A   1     -12.401   9.098  42.552  0.00  0.00    -0.047 A 
ATOM      5  C5  <0> A   1     -12.306   9.614  43.836  0.00  0.00    +0.117 A 
ATOM      6  C6  <0> A   1     -12.984  10.779  44.166  0.00  0.00    -0.069 A 
ATOM      7 Cl1  <0> A   1     -11.556   7.640  42.136  0.00  0.00    -0.041 Cl
ATOM      8 Cl2  <0> A   1     -14.812  11.717  40.741  0.00  0.00    -0.058 Cl
ENDROOT
BRANCH   6   9
ATOM      9  C7  <0> A   1     -12.882  11.343  45.560  0.00  0.00    +0.085 C 
BRANCH   9  10
ATOM     10  C8  <0> A   1     -14.268  11.784  46.034  0.00  0.00    +0.002 C 
ATOM     11  C9  <0> A   1     -14.130  12.617  47.310  0.00  0.00    +0.006 C 
ATOM     12  C10 <0> A   1     -15.517  13.058  47.784  0.00  0.00    +0.000 C 
ATOM     13  C11 <0> A   1     -16.374  11.823  48.070  0.00  0.00    -0.001 C 
ATOM     14  C12 <0> A   1     -16.512  10.991  46.794  0.00  0.00    +0.005 C 
ATOM     15  C13 <0> A   1     -15.126  10.550  46.320  0.00  0.00    +0.013 C 
ENDBRANCH   9  10
ENDBRANCH   6   9
BRANCH   5  16
ATOM     16  O1  <0> A   1     -11.551   8.980  44.771  0.00  0.00    -0.307 OA
BRANCH  16  17
ATOM     17  C14 <0> A   1     -12.246   8.304  45.820  0.00  0.00    +0.152 C 
BRANCH  17  18
ATOM     18  C15 <0> A   1     -12.779   6.967  45.301  0.00  0.00    +0.227 C 
BRANCH  18  19
ATOM     19  O5  <0> A   1     -12.494   5.939  46.251  0.00  0.00    -0.529 OA
ATOM     20  H25 <0> A   1     -11.583   5.618  46.220  0.00  0.00    +0.364 HD
ENDBRANCH  18  19
BRANCH  18  21
ATOM     21  C16 <0> A   1     -14.292   7.066  45.095  0.00  0.00    -0.043 C 
BRANCH  21  22
ATOM     22  C17 <0> A   1     -14.708   6.172  43.925  0.00  0.00    +0.235 C 
BRANCH  22  23
ATOM     23  O4  <0> A   1     -13.597   5.368  43.522  0.00  0.00    -0.527 OA
ATOM     24  H24 <0> A   1     -12.738   5.725  43.785  0.00  0.00    +0.351 HD
ENDBRANCH  22  23
BRANCH  22  25
ATOM     25  C18 <0> A   1     -15.861   5.266  44.360  0.00  0.00    -0.101 C 
BRANCH  25  26
ATOM     26  C19 <0> A   1     -15.450   4.480  45.579  0.00  0.00    +0.490 C 
ATOM     27  O2  <0> A   1     -14.493   3.727  45.525  0.00  0.00    -0.680 OA
ATOM     28  O3  <0> A   1     -16.075   4.597  46.620  0.00  0.00    -0.713 OA
ENDBRANCH  25  26
ENDBRANCH  22  25
ENDBRANCH  21  22
ENDBRANCH  18  21
ENDBRANCH  17  18
ENDBRANCH  16  17
ENDBRANCH   5  16
TORSDOF 11
