REMARK VINA RESULT:      -8.0     20.553     24.561
REMARK  Name = CHEMBL346446
REMARK  10 active torsions:
REMARK  status: ('A' for Active; 'I' for Inactive)
REMARK    1  A    between atoms: C1_1  and  C2_2
REMARK    2  A    between atoms: C2_2  and  C3_3
REMARK    3  A    between atoms: C2_2  and  C4_4
REMARK    4  A    between atoms: C5_5  and  C17_20
REMARK    5  A    between atoms: C6_6  and  C11_13
REMARK    6  A    between atoms: C7_8  and  C8_10
REMARK    7  A    between atoms: C8_10  and  C9_11
REMARK    8  A    between atoms: C8_10  and  C10_12
REMARK    9  A    between atoms: C18_21  and  C19_22
REMARK   10  A    between atoms: C21_24  and  O3_30
REMARK                            x       y       z     vdW  Elec       q    Type
REMARK                         _______ _______ _______ _____ _____    ______ ____
ROOT
ATOM      1  C4  <0> A   1     -26.212  -3.452  51.403  0.00  0.00    +0.204 A 
ATOM      2  C5  <0> A   1     -26.016  -4.830  51.272  0.00  0.00    -0.160 A 
ATOM      3  C6  <0> A   1     -24.710  -5.290  51.008  0.00  0.00    +0.230 A 
ATOM      4  N1  <0> A   1     -23.728  -4.398  50.896  0.00  0.00    -0.505 NA
ATOM      5  C7  <0> A   1     -23.968  -3.110  51.029  0.00  0.00    +0.334 A 
ATOM      6  N2  <0> A   1     -25.177  -2.641  51.270  0.00  0.00    -0.511 NA
ENDROOT
BRANCH   3   7
ATOM      7  C11 <0> A   1     -24.436  -6.738  50.858  0.00  0.00    -0.072 A 
ATOM      8  C12 <0> A   1     -24.541  -7.344  49.606  0.00  0.00    +0.086 A 
ATOM      9  C13 <0> A   1     -24.286  -8.692  49.471  0.00  0.00    -0.018 A 
ATOM     10  C14 <0> A   1     -23.925  -9.445  50.578  0.00  0.00    +0.120 A 
ATOM     11  C15 <0> A   1     -23.819  -8.848  51.823  0.00  0.00    -0.019 A 
ATOM     12  C16 <0> A   1     -24.066  -7.499  51.967  0.00  0.00    +0.096 A 
ATOM     13  F1  <0> A   1     -23.677 -10.766  50.442  0.00  0.00    -0.135 F 
ENDBRANCH   3   7
BRANCH   1  15
ATOM     14  C1  <0> A   1     -27.504  -1.897  52.839  0.00  0.00    +0.044 C 
ATOM     15  C2  <0> A   1     -27.586  -2.899  51.686  0.00  0.00    +0.045 C 
ATOM     16  C3  <0> A   1     -28.120  -2.197  50.435  0.00  0.00    +0.045 C 
ENDBRANCH   1  15
BRANCH   5  17
ATOM     17  C8  <0> A   1     -22.824  -2.140  50.894  0.00  0.00    +0.070 C 
ATOM     18  C9  <0> A   1     -23.304  -0.732  51.253  0.00  0.00    +0.045 C 
ATOM     19  C10 <0> A   1     -21.693  -2.550  51.840  0.00  0.00    +0.045 C 
ENDBRANCH   5  17
BRANCH   2  20
ATOM     20  C17 <0> A   1     -27.143  -5.775  51.405  0.00  0.00    +0.052 C 
ATOM     21  C18 <0> A   1     -27.542  -6.165  52.608  0.00  0.00    -0.007 C 
BRANCH  21  22
ATOM     22  C19 <0> A   1     -28.693  -7.129  52.744  0.00  0.00    +0.244 C 
ATOM     23  C20 <0> A   1     -29.849  -6.673  51.850  0.00  0.00    +0.051 C 
ATOM     24  C21 <0> A   1     -31.033  -7.633  52.022  0.00  0.00    +0.186 C 
ATOM     25  C22 <0> A   1     -31.464  -7.628  53.494  0.00  0.00    +0.024 C 
ATOM     26  C23 <0> A   1     -30.242  -7.889  54.348  0.00  0.00    +0.498 C 
ATOM     27  O1  <0> A   1     -30.261  -8.723  55.222  0.00  0.00    -0.449 OA
ATOM     28  O2  <0> A   1     -29.131  -7.161  54.106  0.00  0.00    -0.370 OA
BRANCH  24  29
ATOM     29  O3  <0> A   1     -30.638  -8.952  51.640  0.00  0.00    -0.563 OA
ATOM     30  H27 <0> A   1     -30.215  -9.456  52.349  0.00  0.00    +0.388 HD
ENDBRANCH  24  29
ENDBRANCH  21  22
ENDBRANCH   2  20
TORSDOF 6
