REMARK VINA RESULT:      -9.1      0.000      0.000
REMARK  Name = CHEMBL310463
REMARK  17 active torsions:
REMARK  status: ('A' for Active; 'I' for Inactive)
REMARK    1  A    between atoms: C1_1  and  C2_2
REMARK    2  A    between atoms: C2_2  and  C3_3
REMARK    3  A    between atoms: C3_3  and  C4_4
REMARK    4  A    between atoms: C3_3  and  C5_5
REMARK    5  A    between atoms: C3_3  and  C6_6
REMARK    6  A    between atoms: C6_6  and  O2_8
REMARK    7  A    between atoms: O2_8  and  C7_9
REMARK    8  A    between atoms: C9_12  and  C33_48
REMARK    9  A    between atoms: C10_14  and  O6_37
REMARK   10  A    between atoms: C13_19  and  C18_26
REMARK   11  A    between atoms: C14_21  and  C17_25
REMARK   12  A    between atoms: C18_26  and  C19_27
REMARK   13  A    between atoms: C19_27  and  C20_28
REMARK   14  A    between atoms: C22_30  and  O5_36
REMARK   15  A    between atoms: O6_37  and  C25_38
REMARK   16  A    between atoms: N1_40  and  C26_41
REMARK   17  A    between atoms: C26_41  and  C27_42
REMARK                            x       y       z     vdW  Elec       q    Type
REMARK                         _______ _______ _______ _____ _____    ______ ____
ROOT
ATOM      1  C7  <0> A   1      -3.676   5.952  50.465  0.00  0.00    +0.185 C 
ATOM      2  C8  <0> A   1      -3.855   5.917  51.992  0.00  0.00    +0.011 C 
ATOM      3  C9  <0> A   1      -3.645   7.319  52.561  0.00  0.00    -0.015 C 
ATOM      4  C10 <0> A   1      -2.228   7.790  52.235  0.00  0.00    +0.207 C 
ATOM      5  C11 <0> A   1      -2.014   7.798  50.726  0.00  0.00    +0.015 C 
ATOM      6  C12 <0> A   1      -2.263   6.402  50.134  0.00  0.00    +0.025 C 
ATOM      7  C13 <0> A   1      -1.935   6.455  48.653  0.00  0.00    -0.006 C 
ATOM      8  C14 <0> A   1      -2.671   7.536  47.882  0.00  0.00    -0.019 C 
ATOM      9  C15 <0> A   1      -2.636   8.891  48.573  0.00  0.00    +0.018 C 
ATOM     10  C16 <0> A   1      -2.971   8.785  50.059  0.00  0.00    +0.022 C 
ATOM     11  C17 <0> A   1      -4.102   7.126  47.545  0.00  0.00    +0.015 C 
ATOM     12  C33 <0> A   1      -3.834   7.286  54.080  0.00  0.00    +0.030 C 
ENDROOT
BRANCH   1  13
ATOM     13  O2  <0> A   1      -3.941   4.634  49.977  0.00  0.00    -0.334 OA
BRANCH  13  14
ATOM     14  C6  <0> A   1      -5.220   4.333  49.703  0.00  0.00    +0.471 C 
ATOM     15  O1  <0> A   1      -5.757   4.803  48.729  0.00  0.00    -0.508 OA
BRANCH  14  16
ATOM     16  C3  <0> A   1      -5.986   3.405  50.611  0.00  0.00    -0.057 C 
ATOM     17  C4  <0> A   1      -6.873   2.486  49.770  0.00  0.00    +0.056 C 
ATOM     18  C5  <0> A   1      -6.859   4.227  51.562  0.00  0.00    +0.077 C 
BRANCH  16  20
ATOM     19  C1  <0> A   1      -5.390   1.084  51.318  0.00  0.00    +0.023 C 
ATOM     20  C2  <0> A   1      -5.002   2.561  51.424  0.00  0.00    +0.033 C 
ENDBRANCH  16  20
ENDBRANCH  14  16
ENDBRANCH  13  14
ENDBRANCH   1  13
BRANCH   7  21
ATOM     21  C18 <0> A   1      -2.105   5.101  47.969  0.00  0.00    +0.035 C 
BRANCH  21  22
ATOM     22  C19 <0> A   1      -1.520   5.166  46.556  0.00  0.00    +0.043 C 
BRANCH  22  23
ATOM     23  C20 <0> A   1      -1.925   3.912  45.778  0.00  0.00    +0.196 C 
ATOM     24  C21 <0> A   1      -0.738   3.423  44.943  0.00  0.00    +0.037 C 
ATOM     25  C22 <0> A   1      -1.159   2.193  44.134  0.00  0.00    +0.182 C 
ATOM     26  C23 <0> A   1      -2.331   2.577  43.220  0.00  0.00    +0.015 C 
ATOM     27  C24 <0> A   1      -3.396   3.237  44.067  0.00  0.00    +0.495 C 
ATOM     28  O3  <0> A   1      -4.552   2.893  43.991  0.00  0.00    -0.447 OA
ATOM     29  O4  <0> A   1      -3.019   4.222  44.909  0.00  0.00    -0.361 OA
BRANCH  25  30
ATOM     30  O5  <0> A   1      -1.566   1.151  45.023  0.00  0.00    -0.563 OA
ATOM     31  H38 <0> A   1      -2.026   1.464  45.814  0.00  0.00    +0.386 HD
ENDBRANCH  25  30
ENDBRANCH  22  23
ENDBRANCH  21  22
ENDBRANCH   7  21
BRANCH   4  32
ATOM     32  O6  <0> A   1      -1.279   6.920  52.856  0.00  0.00    -0.353 OA
BRANCH  32  33
ATOM     33  C25 <0> A   1      -0.178   7.490  53.379  0.00  0.00    +0.647 C 
ATOM     34  O7  <0> A   1      -0.252   8.579  53.915  0.00  0.00    -0.565 OA
ATOM     35  N1  <0> A   1       1.008   6.854  53.310  0.00  0.00    -0.707 N 
ATOM     36  H39 <0> A   1       1.069   5.985  52.883  0.00  0.00    +0.407 HD
BRANCH  35  37
ATOM     37  C26 <0> A   1       2.207   7.474  53.879  0.00  0.00    +0.341 C 
BRANCH  37  38
ATOM     38  C27 <0> A   1       3.268   7.590  52.815  0.00  0.00    -0.115 A 
ATOM     39  C28 <0> A   1       4.576   7.249  53.102  0.00  0.00    +0.028 A 
ATOM     40  C29 <0> A   1       5.548   7.354  52.125  0.00  0.00    +0.004 A 
ATOM     41  C30 <0> A   1       5.212   7.801  50.860  0.00  0.00    +0.017 A 
ATOM     42  C31 <0> A   1       3.904   8.142  50.573  0.00  0.00    +0.004 A 
ATOM     43  C32 <0> A   1       2.931   8.031  51.548  0.00  0.00    +0.028 A 
ENDBRANCH  37  38
ENDBRANCH  35  37
ENDBRANCH  32  33
ENDBRANCH   4  32
TORSDOF 12
