REMARK VINA RESULT:      -7.1     32.333     34.299
REMARK  Name = CHEMBL293944
REMARK  16 active torsions:
REMARK  status: ('A' for Active; 'I' for Inactive)
REMARK    1  A    between atoms: C1_1  and  C2_2
REMARK    2  A    between atoms: C2_2  and  C3_3
REMARK    3  A    between atoms: C3_3  and  C4_5
REMARK    4  A    between atoms: C3_3  and  C5_6
REMARK    5  A    between atoms: C5_6  and  O2_8
REMARK    6  A    between atoms: O2_8  and  C6_9
REMARK    7  A    between atoms: C8_12  and  C24_37
REMARK    8  A    between atoms: C12_18  and  C17_25
REMARK    9  A    between atoms: C13_20  and  C16_24
REMARK   10  A    between atoms: C17_25  and  C18_26
REMARK   11  A    between atoms: C18_26  and  C19_27
REMARK   12  A    between atoms: C19_27  and  C20_29
REMARK   13  A    between atoms: C20_29  and  C21_30
REMARK   14  A    between atoms: C21_30  and  C22_32
REMARK   15  A    between atoms: C21_30  and  O6_36
REMARK   16  A    between atoms: C22_32  and  C23_33
REMARK                            x       y       z     vdW  Elec       q    Type
REMARK                         _______ _______ _______ _____ _____    ______ ____
ROOT
ATOM      1  C6  <0> A   1     -31.547  21.708  35.615  0.00  0.00    +0.187 C 
ATOM      2  C7  <0> A   1     -32.365  20.613  36.314  0.00  0.00    +0.002 C 
ATOM      3  C8  <0> A   1     -33.131  21.214  37.492  0.00  0.00    -0.013 C 
ATOM      4  C9  <0> A   1     -32.129  21.810  38.485  0.00  0.00    +0.028 C 
ATOM      5  C10 <0> A   1     -31.301  22.885  37.795  0.00  0.00    +0.033 C 
ATOM      6  C11 <0> A   1     -30.541  22.298  36.596  0.00  0.00    +0.020 C 
ATOM      7  C12 <0> A   1     -29.712  23.428  35.997  0.00  0.00    -0.008 C 
ATOM      8  C13 <0> A   1     -30.568  24.589  35.514  0.00  0.00    +0.020 C 
ATOM      9  C14 <0> A   1     -31.838  24.741  36.290  0.00  0.00    -0.041 C 
ATOM     10  C15 <0> A   1     -32.172  24.004  37.306  0.00  0.00    -0.047 C 
ATOM     11  C16 <0> A   1     -30.871  24.453  34.022  0.00  0.00    +0.022 C 
ATOM     12  C24 <0> A   1     -33.945  20.120  38.186  0.00  0.00    +0.018 C 
ENDROOT
BRANCH   1  13
ATOM     13  O2  <0> A   1     -30.891  21.111  34.495  0.00  0.00    -0.337 OA
BRANCH  13  14
ATOM     14  C5  <0> A   1     -31.675  20.604  33.529  0.00  0.00    +0.467 C 
ATOM     15  O1  <0> A   1     -32.226  21.342  32.748  0.00  0.00    -0.508 OA
BRANCH  14  16
ATOM     16  C3  <0> A   1     -31.865  19.113  33.421  0.00  0.00    +0.024 C 
ATOM     17  C4  <0> A   1     -33.335  18.768  33.667  0.00  0.00    +0.058 C 
BRANCH  16  19
ATOM     18  C1  <0> A   1     -30.092  17.965  32.088  0.00  0.00    +0.023 C 
ATOM     19  C2  <0> A   1     -31.459  18.648  32.021  0.00  0.00    +0.032 C 
ENDBRANCH  16  19
ENDBRANCH  14  16
ENDBRANCH  13  14
ENDBRANCH   1  13
BRANCH   7  20
ATOM     20  C17 <0> A   1     -28.791  22.938  34.880  0.00  0.00    +0.044 C 
BRANCH  20  21
ATOM     21  C18 <0> A   1     -27.371  22.772  35.426  0.00  0.00    +0.015 C 
BRANCH  21  22
ATOM     22  C19 <0> A   1     -26.587  24.035  35.176  0.00  0.00    +0.351 C 
ATOM     23  O3  <0> A   1     -26.697  24.973  35.929  0.00  0.00    -0.430 OA
BRANCH  22  24
ATOM     24  C20 <0> A   1     -25.665  24.127  33.986  0.00  0.00    -0.020 C 
BRANCH  24  25
ATOM     25  C21 <0> A   1     -26.445  24.648  32.778  0.00  0.00    +0.241 C 
BRANCH  25  26
ATOM     26  O6  <0> A   1     -25.720  25.718  32.168  0.00  0.00    -0.532 OA
ATOM     27  H34 <0> A   1     -25.703  25.680  31.202  0.00  0.00    +0.350 HD
ENDBRANCH  25  26
BRANCH  25  28
ATOM     28  C22 <0> A   1     -26.630  23.516  31.764  0.00  0.00    -0.098 C 
BRANCH  28  29
ATOM     29  C23 <0> A   1     -25.726  23.747  30.581  0.00  0.00    +0.491 C 
ATOM     30  O4  <0> A   1     -26.177  24.223  29.554  0.00  0.00    -0.679 OA
ATOM     31  O5  <0> A   1     -24.544  23.457  30.653  0.00  0.00    -0.713 OA
ENDBRANCH  28  29
ENDBRANCH  25  28
ENDBRANCH  24  25
ENDBRANCH  22  24
ENDBRANCH  21  22
ENDBRANCH  20  21
ENDBRANCH   7  20
TORSDOF 12
