REMARK VINA RESULT:      -8.0     14.118     15.526
REMARK  Name = CHEMBL430951
REMARK  6 active torsions:
REMARK  status: ('A' for Active; 'I' for Inactive)
REMARK    1  A    between atoms: C6_6  and  C7_7
REMARK    2  A    between atoms: C7_7  and  O1_8
REMARK    3  A    between atoms: O1_8  and  C8_9
REMARK    4  A    between atoms: C13_14  and  C14_15
REMARK    5  A    between atoms: C15_16  and  C16_17
REMARK    6  A    between atoms: C18_19  and  O4_25
REMARK                            x       y       z     vdW  Elec       q    Type
REMARK                         _______ _______ _______ _____ _____    ______ ____
ROOT
ATOM      1  C8  <0> A   1     -12.781  11.298  45.529  0.00  0.00    +0.169 A 
ATOM      2  C9  <0> A   1     -12.300  12.491  46.042  0.00  0.00    -0.051 A 
ATOM      3  C10 <0> A   1     -12.570  12.841  47.353  0.00  0.00    +0.016 A 
ATOM      4  C11 <0> A   1     -13.323  12.004  48.159  0.00  0.00    +0.012 A 
ATOM      5  C12 <0> A   1     -13.810  10.813  47.661  0.00  0.00    +0.016 A 
ATOM      6  C13 <0> A   1     -13.547  10.452  46.339  0.00  0.00    -0.076 A 
ATOM      7 Cl1  <0> A   1     -14.753   9.766  48.677  0.00  0.00    -0.037 Cl
ATOM      8 Cl2  <0> A   1     -11.963  14.339  47.989  0.00  0.00    -0.048 Cl
ENDROOT
BRANCH   6   9
ATOM      9  C14 <0> A   1     -14.071   9.181  45.798  0.00  0.00    +0.056 C 
ATOM     10  C15 <0> A   1     -13.361   8.067  45.917  0.00  0.00    -0.010 C 
BRANCH  10  11
ATOM     11  C16 <0> A   1     -13.896   6.770  45.365  0.00  0.00    +0.243 C 
ATOM     12  C17 <0> A   1     -14.255   6.954  43.888  0.00  0.00    +0.051 C 
ATOM     13  C18 <0> A   1     -14.838   5.645  43.342  0.00  0.00    +0.186 C 
ATOM     14  C19 <0> A   1     -16.087   5.282  44.153  0.00  0.00    +0.023 C 
ATOM     15  C20 <0> A   1     -15.726   5.309  45.621  0.00  0.00    +0.498 C 
ATOM     16  O2  <0> A   1     -16.017   4.391  46.350  0.00  0.00    -0.451 OA
ATOM     17  O3  <0> A   1     -15.067   6.388  46.093  0.00  0.00    -0.367 OA
BRANCH  13  18
ATOM     18  O4  <0> A   1     -13.867   4.604  43.460  0.00  0.00    -0.564 OA
ATOM     19  H17 <0> A   1     -13.043   4.779  42.985  0.00  0.00    +0.387 HD
ENDBRANCH  13  18
ENDBRANCH  10  11
ENDBRANCH   6   9
BRANCH   1  20
ATOM     20  O1  <0> A   1     -12.515  10.953  44.241  0.00  0.00    -0.290 OA
BRANCH  20  21
ATOM     21  C7  <0> A   1     -13.393  11.465  43.238  0.00  0.00    +0.256 C 
BRANCH  21  27
ATOM     22  C1  <0> A   1     -13.372  11.314  40.740  0.00  0.00    +0.074 A 
ATOM     23  C2  <0> A   1     -13.201  10.601  39.568  0.00  0.00    -0.016 A 
ATOM     24  C3  <0> A   1     -12.860   9.259  39.618  0.00  0.00    +0.113 A 
ATOM     25  C4  <0> A   1     -12.693   8.634  40.841  0.00  0.00    -0.017 A 
ATOM     26  C5  <0> A   1     -12.865   9.348  42.012  0.00  0.00    +0.073 A 
ATOM     27  C6  <0> A   1     -13.205  10.688  41.961  0.00  0.00    -0.111 A 
ATOM     28  F1  <0> A   1     -12.692   8.562  38.473  0.00  0.00    -0.136 F 
ENDBRANCH  21  27
ENDBRANCH  20  21
ENDBRANCH   1  20
TORSDOF 6
