REMARK VINA RESULT:      -8.5      0.000      0.000
REMARK  Name = CHEMBL398551
REMARK  19 active torsions:
REMARK  status: ('A' for Active; 'I' for Inactive)
REMARK    1  A    between atoms: C1_1  and  C2_2
REMARK    2  A    between atoms: C4_4  and  C6_8
REMARK    3  A    between atoms: N2_6  and  C5_7
REMARK    4  A    between atoms: C6_8  and  N3_9
REMARK    5  A    between atoms: C7_10  and  C8_12
REMARK    6  A    between atoms: C9_13  and  C28_40
REMARK    7  A    between atoms: C10_14  and  C22_33
REMARK    8  A    between atoms: C11_15  and  C15_20
REMARK    9  A    between atoms: N4_16  and  C12_17
REMARK   10  A    between atoms: C12_17  and  C13_18
REMARK   11  A    between atoms: C12_17  and  C14_19
REMARK   12  A    between atoms: C15_20  and  C16_21
REMARK   13  A    between atoms: C16_21  and  C17_22
REMARK   14  A    between atoms: C17_22  and  C18_24
REMARK   15  A    between atoms: C17_22  and  O5_32
REMARK   16  A    between atoms: C18_24  and  C19_25
REMARK   17  A    between atoms: C19_25  and  C20_27
REMARK   18  A    between atoms: C19_25  and  O4_31
REMARK   19  A    between atoms: C20_27  and  C21_28
REMARK                            x       y       z     vdW  Elec       q    Type
REMARK                         _______ _______ _______ _____ _____    ______ ____
ROOT
ATOM      1  C8  <0> A   1     -16.386   6.909  46.486  0.00  0.00    -0.029 C 
ATOM      2  C9  <0> A   1     -15.545   7.965  46.818  0.00  0.00    -0.059 C 
ATOM      3  C10 <0> A   1     -14.400   7.849  45.988  0.00  0.00    -0.123 C 
ATOM      4  C11 <0> A   1     -14.578   6.753  45.197  0.00  0.00    +0.072 C 
ATOM      5  N4  <0> A   1     -15.768   6.180  45.496  0.00  0.00    -0.403 N 
ENDROOT
BRANCH   3   6
ATOM      6  C22 <0> A   1     -13.226   8.754  45.982  0.00  0.00    -0.009 A 
ATOM      7  C23 <0> A   1     -13.210   9.874  45.152  0.00  0.00    +0.053 A 
ATOM      8  C24 <0> A   1     -12.115  10.714  45.150  0.00  0.00    -0.013 A 
ATOM      9  C25 <0> A   1     -11.032  10.446  45.972  0.00  0.00    +0.094 A 
ATOM     10  C26 <0> A   1     -11.043   9.335  46.799  0.00  0.00    -0.020 A 
ATOM     11  C27 <0> A   1     -12.136   8.492  46.812  0.00  0.00    +0.054 A 
ATOM     12  F1  <0> A   1      -9.962  11.270  45.966  0.00  0.00    -0.142 F 
ENDBRANCH   3   6
BRANCH   2  13
ATOM     13  C28 <0> A   1     -15.794   9.006  47.840  0.00  0.00    -0.009 A 
ATOM     14  C29 <0> A   1     -15.486   8.762  49.178  0.00  0.00    +0.027 A 
ATOM     15  C30 <0> A   1     -15.720   9.737  50.126  0.00  0.00    +0.003 A 
ATOM     16  C31 <0> A   1     -16.260  10.954  49.751  0.00  0.00    -0.003 A 
ATOM     17  C32 <0> A   1     -16.569  11.203  48.426  0.00  0.00    -0.001 A 
ATOM     18  C33 <0> A   1     -16.333  10.238  47.468  0.00  0.00    +0.009 A 
ENDBRANCH   2  13
BRANCH   1  20
ATOM     19  N3  <0> A   1     -17.762   5.961  48.258  0.00  0.00    -0.715 N 
ATOM     20  C7  <0> A   1     -17.690   6.621  47.086  0.00  0.00    +0.605 C 
ATOM     21  O1  <0> A   1     -18.709   6.979  46.526  0.00  0.00    -0.517 OA
ATOM     22  H12 <0> A   1     -16.955   5.615  48.670  0.00  0.00    +0.404 HD
BRANCH  19  23
ATOM     23  C6  <0> A   1     -19.058   5.765  48.910  0.00  0.00    +0.381 C 
BRANCH  23  27
ATOM     24  C1  <0> A   1     -18.868   9.601  52.254  0.00  0.00    +0.146 C 
ATOM     25  C2  <0> A   1     -19.322   8.673  51.158  0.00  0.00    +0.083 C 
ATOM     26  C3  <0> A   1     -18.659   7.581  50.711  0.00  0.00    -0.107 C 
ATOM     27  C4  <0> A   1     -19.421   7.003  49.691  0.00  0.00    +0.055 C 
ATOM     28  N1  <0> A   1     -20.503   7.721  49.531  0.00  0.00    -0.276 NA
ATOM     29  N2  <0> A   1     -20.466   8.778  50.450  0.00  0.00    -0.368 N 
ATOM     30  C5  <0> A   1     -21.487   9.816  50.611  0.00  0.00    +0.354 C 
ENDBRANCH  23  27
ENDBRANCH  19  23
ENDBRANCH   1  20
BRANCH   5  31
ATOM     31  C12 <0> A   1     -16.313   4.977  44.863  0.00  0.00    +0.229 C 
ATOM     32  C13 <0> A   1     -16.999   5.357  43.548  0.00  0.00    +0.042 C 
ATOM     33  C14 <0> A   1     -15.179   3.990  44.579  0.00  0.00    +0.046 C 
ENDBRANCH   5  31
BRANCH   4  34
ATOM     34  C15 <0> A   1     -13.603   6.256  44.161  0.00  0.00    +0.118 C 
BRANCH  34  35
ATOM     35  C16 <0> A   1     -13.753   7.083  42.882  0.00  0.00    -0.009 C 
BRANCH  35  36
ATOM     36  C17 <0> A   1     -12.371   7.351  42.282  0.00  0.00    +0.212 C 
BRANCH  36  37
ATOM     37  O5  <0> A   1     -11.666   6.116  42.141  0.00  0.00    -0.542 OA
ATOM     38  H29 <0> A   1     -10.821   6.196  41.677  0.00  0.00    +0.363 HD
ENDBRANCH  36  37
BRANCH  36  39
ATOM     39  C18 <0> A   1     -12.528   8.008  40.910  0.00  0.00    -0.051 C 
BRANCH  39  40
ATOM     40  C19 <0> A   1     -13.029   9.443  41.086  0.00  0.00    +0.230 C 
BRANCH  40  41
ATOM     41  O4  <0> A   1     -11.912  10.332  41.150  0.00  0.00    -0.528 OA
ATOM     42  H28 <0> A   1     -11.909  10.905  41.930  0.00  0.00    +0.349 HD
ENDBRANCH  40  41
BRANCH  40  43
ATOM     43  C20 <0> A   1     -13.915   9.823  39.898  0.00  0.00    -0.103 C 
BRANCH  43  44
ATOM     44  C21 <0> A   1     -13.921  11.321  39.734  0.00  0.00    +0.490 C 
ATOM     45  O2  <0> A   1     -13.283  11.838  38.833  0.00  0.00    -0.681 OA
ATOM     46  O3  <0> A   1     -14.563  12.016  40.504  0.00  0.00    -0.713 OA
ENDBRANCH  43  44
ENDBRANCH  40  43
ENDBRANCH  39  40
ENDBRANCH  36  39
ENDBRANCH  35  36
ENDBRANCH  34  35
ENDBRANCH   4  34
TORSDOF 15
