REMARK VINA RESULT:      -8.2      0.000      0.000
REMARK  Name = CHEMBL157882
REMARK  8 active torsions:
REMARK  status: ('A' for Active; 'I' for Inactive)
REMARK    1  A    between atoms: C1_1  and  C2_2
REMARK    2  A    between atoms: C2_2  and  C3_3
REMARK    3  A    between atoms: C2_2  and  C4_4
REMARK    4  A    between atoms: C5_5  and  C21_23
REMARK    5  A    between atoms: C6_6  and  C15_16
REMARK    6  A    between atoms: C8_8  and  C9_10
REMARK    7  A    between atoms: C22_24  and  C23_25
REMARK    8  A    between atoms: C25_27  and  O3_33
REMARK                            x       y       z     vdW  Elec       q    Type
REMARK                         _______ _______ _______ _____ _____    ______ ____
ROOT
ATOM      1  C4  <0> A   1     -25.094  -2.794  51.468  0.00  0.00    +0.161 A 
ATOM      2  C5  <0> A   1     -25.799  -3.986  51.305  0.00  0.00    -0.103 A 
ATOM      3  C6  <0> A   1     -27.166  -3.924  50.964  0.00  0.00    +0.010 A 
ATOM      4  C7  <0> A   1     -27.746  -2.663  50.805  0.00  0.00    -0.023 A 
ATOM      5  C8  <0> A   1     -26.969  -1.538  50.986  0.00  0.00    +0.146 A 
ATOM      6  N1  <0> A   1     -25.693  -1.632  51.311  0.00  0.00    -0.473 NA
ENDROOT
BRANCH   3   7
ATOM      7  C15 <0> A   1     -27.961  -5.159  50.778  0.00  0.00    -0.064 A 
ATOM      8  C16 <0> A   1     -28.469  -5.838  51.885  0.00  0.00    +0.074 A 
ATOM      9  C17 <0> A   1     -29.210  -6.988  51.706  0.00  0.00    -0.013 A 
ATOM     10  C18 <0> A   1     -29.449  -7.469  50.429  0.00  0.00    +0.108 A 
ATOM     11  C19 <0> A   1     -28.946  -6.799  49.326  0.00  0.00    -0.014 A 
ATOM     12  C20 <0> A   1     -28.209  -5.645  49.493  0.00  0.00    +0.060 A 
ATOM     13  F1  <0> A   1     -30.172  -8.597  50.259  0.00  0.00    -0.137 F 
ENDBRANCH   3   7
BRANCH   5  14
ATOM     14  C9  <0> A   1     -27.590  -0.175  50.816  0.00  0.00    +0.054 C 
ATOM     15  C10 <0> A   1     -28.911  -0.118  51.586  0.00  0.00    +0.017 C 
ATOM     16  C11 <0> A   1     -29.542   1.265  51.414  0.00  0.00    +0.009 C 
ATOM     17  C12 <0> A   1     -28.590   2.332  51.956  0.00  0.00    +0.003 C 
ATOM     18  C13 <0> A   1     -27.267   2.275  51.187  0.00  0.00    +0.009 C 
ATOM     19  C14 <0> A   1     -26.637   0.891  51.360  0.00  0.00    +0.022 C 
ENDBRANCH   5  14
BRANCH   1  21
ATOM     20  C1  <0> A   1     -22.794  -2.377  50.639  0.00  0.00    +0.037 C 
ATOM     21  C2  <0> A   1     -23.632  -2.836  51.834  0.00  0.00    +0.041 C 
ATOM     22  C3  <0> A   1     -23.377  -1.908  53.023  0.00  0.00    +0.037 C 
ENDBRANCH   1  21
BRANCH   2  23
ATOM     23  C21 <0> A   1     -25.128  -5.288  51.486  0.00  0.00    +0.049 C 
ATOM     24  C22 <0> A   1     -24.793  -6.014  50.427  0.00  0.00    -0.014 C 
BRANCH  24  25
ATOM     25  C23 <0> A   1     -24.107  -7.343  50.612  0.00  0.00    +0.242 C 
ATOM     26  C24 <0> A   1     -25.072  -8.474  50.241  0.00  0.00    +0.050 C 
ATOM     27  C25 <0> A   1     -24.386  -9.823  50.470  0.00  0.00    +0.186 C 
ATOM     28  C26 <0> A   1     -23.981  -9.931  51.946  0.00  0.00    +0.024 C 
ATOM     29  C27 <0> A   1     -23.196  -8.692  52.315  0.00  0.00    +0.498 C 
ATOM     30  O1  <0> A   1     -22.139  -8.776  52.894  0.00  0.00    -0.450 OA
ATOM     31  O2  <0> A   1     -23.709  -7.491  51.979  0.00  0.00    -0.369 OA
BRANCH  27  32
ATOM     32  O3  <0> A   1     -23.221  -9.914  49.645  0.00  0.00    -0.564 OA
ATOM     33  H32 <0> A   1     -23.214 -10.684  49.060  0.00  0.00    +0.387 HD
ENDBRANCH  27  32
ENDBRANCH  24  25
ENDBRANCH   2  23
TORSDOF 6
