REMARK VINA RESULT:      -7.0     17.927     20.880
REMARK  Name = CHEMBL331680
REMARK  15 active torsions:
REMARK  status: ('A' for Active; 'I' for Inactive)
REMARK    1  A    between atoms: C1_1  and  C2_2
REMARK    2  A    between atoms: C2_2  and  C3_3
REMARK    3  A    between atoms: C2_2  and  C4_4
REMARK    4  A    between atoms: C6_6  and  C22_30
REMARK    5  A    between atoms: C7_7  and  C16_23
REMARK    6  A    between atoms: N1_8  and  C8_9
REMARK    7  A    between atoms: C9_10  and  C10_11
REMARK    8  A    between atoms: C10_11  and  C11_13
REMARK    9  A    between atoms: C10_11  and  O4_22
REMARK   10  A    between atoms: C11_13  and  C12_14
REMARK   11  A    between atoms: C12_14  and  C13_16
REMARK   12  A    between atoms: C12_14  and  O3_21
REMARK   13  A    between atoms: C13_16  and  C14_17
REMARK   14  A    between atoms: C14_17  and  O2_19
REMARK   15  A    between atoms: O2_19  and  C15_20
REMARK                            x       y       z     vdW  Elec       q    Type
REMARK                         _______ _______ _______ _____ _____    ______ ____
ROOT
ATOM      1  C4  <0> A   1     -28.492  -5.388  52.665  0.00  0.00    +0.038 C 
ATOM      2  C5  <0> A   1     -29.350  -4.403  52.987  0.00  0.00    -0.017 C 
ATOM      3  C6  <0> A   1     -28.726  -3.169  52.678  0.00  0.00    -0.114 C 
ATOM      4  C7  <0> A   1     -27.475  -3.470  52.165  0.00  0.00    +0.101 C 
ATOM      5  N1  <0> A   1     -27.344  -4.835  52.169  0.00  0.00    -0.391 N 
ENDROOT
BRANCH   4   6
ATOM      6  C16 <0> A   1     -26.464  -2.498  51.704  0.00  0.00    -0.037 A 
ATOM      7  C17 <0> A   1     -26.459  -2.069  50.374  0.00  0.00    +0.053 A 
ATOM      8  C18 <0> A   1     -25.513  -1.161  49.949  0.00  0.00    -0.029 A 
ATOM      9  C19 <0> A   1     -24.568  -0.673  50.838  0.00  0.00    +0.108 A 
ATOM     10  C20 <0> A   1     -24.568  -1.095  52.159  0.00  0.00    -0.031 A 
ATOM     11  C21 <0> A   1     -25.513  -1.999  52.596  0.00  0.00    +0.129 A 
ATOM     12  F1  <0> A   1     -23.643   0.216  50.416  0.00  0.00    -0.141 F 
ENDBRANCH   4   6
BRANCH   3  13
ATOM     13  C22 <0> A   1     -29.301  -1.819  52.868  0.00  0.00    +0.208 A 
ATOM     14  C23 <0> A   1     -29.025  -1.106  54.036  0.00  0.00    -0.030 A 
ATOM     15  C24 <0> A   1     -29.569   0.155  54.197  0.00  0.00    +0.064 A 
ATOM     16  C25 <0> A   1     -30.373   0.665  53.188  0.00  0.00    -0.052 A 
ATOM     17  C26 <0> A   1     -30.606  -0.094  52.056  0.00  0.00    +0.258 A 
ATOM     18  N2  <0> A   1     -30.071  -1.292  51.923  0.00  0.00    -0.481 NA
ENDBRANCH   3  13
BRANCH   1  20
ATOM     19  C1  <0> A   1     -29.672  -7.088  54.032  0.00  0.00    +0.041 C 
ATOM     20  C2  <0> A   1     -28.751  -6.864  52.831  0.00  0.00    +0.051 C 
ATOM     21  C3  <0> A   1     -29.418  -7.409  51.567  0.00  0.00    +0.033 C 
ENDBRANCH   1  20
BRANCH   5  22
ATOM     22  C8  <0> A   1     -26.225  -5.544  51.735  0.00  0.00    +0.201 C 
ATOM     23  C9  <0> A   1     -26.109  -5.878  50.464  0.00  0.00    -0.054 C 
BRANCH  23  24
ATOM     24  C10 <0> A   1     -24.899  -6.644  49.994  0.00  0.00    +0.268 C 
BRANCH  24  25
ATOM     25  O4  <0> A   1     -23.895  -6.619  51.010  0.00  0.00    -0.538 OA
ATOM     26  H21 <0> A   1     -24.187  -6.975  51.861  0.00  0.00    +0.370 HD
ENDBRANCH  24  25
BRANCH  24  27
ATOM     27  C11 <0> A   1     -25.294  -8.094  49.703  0.00  0.00    -0.015 C 
BRANCH  27  28
ATOM     28  C12 <0> A   1     -24.228  -8.747  48.821  0.00  0.00    +0.233 C 
BRANCH  28  29
ATOM     29  O3  <0> A   1     -23.259  -7.767  48.443  0.00  0.00    -0.530 OA
ATOM     30  H20 <0> A   1     -22.343  -8.044  48.586  0.00  0.00    +0.366 HD
ENDBRANCH  28  29
BRANCH  28  31
ATOM     31  C13 <0> A   1     -23.542  -9.871  49.597  0.00  0.00    +0.073 C 
BRANCH  31  32
ATOM     32  C14 <0> A   1     -24.236 -11.178  49.307  0.00  0.00    +0.456 C 
ATOM     33  O1  <0> A   1     -23.908 -11.836  48.348  0.00  0.00    -0.486 OA
BRANCH  32  34
ATOM     34  O2  <0> A   1     -25.217 -11.609  50.114  0.00  0.00    -0.359 OA
ATOM     35  C15 <0> A   1     -24.876 -11.841  51.483  0.00  0.00    +0.258 C 
ENDBRANCH  32  34
ENDBRANCH  31  32
ENDBRANCH  28  31
ENDBRANCH  27  28
ENDBRANCH  24  27
ENDBRANCH  23  24
ENDBRANCH   5  22
TORSDOF 12
