REMARK VINA RESULT:      -7.4     31.963     33.667
REMARK  Name = CHEMBL47537
REMARK  6 active torsions:
REMARK  status: ('A' for Active; 'I' for Inactive)
REMARK    1  A    between atoms: C4_4  and  O1_7
REMARK    2  A    between atoms: O1_7  and  C7_8
REMARK    3  A    between atoms: C12_13  and  C13_14
REMARK    4  A    between atoms: C13_14  and  C14_15
REMARK    5  A    between atoms: C14_15  and  C15_16
REMARK    6  A    between atoms: C17_18  and  O4_24
REMARK                            x       y       z     vdW  Elec       q    Type
REMARK                         _______ _______ _______ _____ _____    ______ ____
ROOT
ATOM      1  C7  <0> A   1     -31.557  22.015  34.272  0.00  0.00    +0.153 A 
ATOM      2  C8  <0> A   1     -31.907  22.664  35.448  0.00  0.00    -0.035 A 
ATOM      3  C9  <0> A   1     -32.796  22.070  36.325  0.00  0.00    +0.010 A 
ATOM      4  C10 <0> A   1     -33.335  20.830  36.032  0.00  0.00    +0.017 A 
ATOM      5  C11 <0> A   1     -32.987  20.182  34.861  0.00  0.00    +0.010 A 
ATOM      6  C12 <0> A   1     -32.103  20.775  33.977  0.00  0.00    -0.095 A 
ATOM      7 Cl1  <0> A   1     -33.664  18.626  34.496  0.00  0.00    -0.040 Cl
ATOM      8 Cl2  <0> A   1     -33.235  22.882  37.796  0.00  0.00    -0.048 Cl
ENDROOT
BRANCH   1   9
ATOM      9  O1  <0> A   1     -30.684  22.597  33.408  0.00  0.00    -0.239 OA
BRANCH   9  13
ATOM     10  C1  <0> A   1     -26.969  23.674  34.844  0.00  0.00    +0.014 A 
ATOM     11  C2  <0> A   1     -27.913  23.142  35.702  0.00  0.00    +0.029 A 
ATOM     12  C3  <0> A   1     -29.157  22.780  35.224  0.00  0.00    -0.007 A 
ATOM     13  C4  <0> A   1     -29.460  22.953  33.881  0.00  0.00    +0.077 A 
ATOM     14  C5  <0> A   1     -28.512  23.487  33.022  0.00  0.00    +0.017 A 
ATOM     15  C6  <0> A   1     -27.268  23.846  33.505  0.00  0.00    +0.031 A 
ENDBRANCH   9  13
ENDBRANCH   1   9
BRANCH   6  16
ATOM     16  C13 <0> A   1     -31.729  20.071  32.698  0.00  0.00    +0.098 C 
BRANCH  16  17
ATOM     17  C14 <0> A   1     -30.686  18.992  32.997  0.00  0.00    +0.062 C 
BRANCH  17  18
ATOM     18  C15 <0> A   1     -30.818  17.858  31.977  0.00  0.00    +0.199 C 
ATOM     19  C16 <0> A   1     -29.439  17.518  31.409  0.00  0.00    +0.041 C 
ATOM     20  C17 <0> A   1     -29.581  16.411  30.360  0.00  0.00    +0.184 C 
ATOM     21  C18 <0> A   1     -30.509  16.903  29.242  0.00  0.00    +0.021 C 
ATOM     22  C19 <0> A   1     -31.784  17.414  29.874  0.00  0.00    +0.496 C 
ATOM     23  O2  <0> A   1     -32.866  17.065  29.464  0.00  0.00    -0.453 OA
ATOM     24  O3  <0> A   1     -31.680  18.273  30.911  0.00  0.00    -0.365 OA
BRANCH  20  25
ATOM     25  O4  <0> A   1     -30.137  15.244  30.968  0.00  0.00    -0.563 OA
ATOM     26  H18 <0> A   1     -31.012  15.003  30.629  0.00  0.00    +0.386 HD
ENDBRANCH  20  25
ENDBRANCH  17  18
ENDBRANCH  16  17
ENDBRANCH   6  16
TORSDOF 6
