REMARK  Name = CHEMBL352790
REMARK  9 active torsions:
REMARK  status: ('A' for Active; 'I' for Inactive)
REMARK    1  A    between atoms: C1_1  and  C2_2
REMARK    2  A    between atoms: C4_5  and  O4_28
REMARK    3  A    between atoms: C6_8  and  C13_17
REMARK    4  A    between atoms: C7_10  and  C12_16
REMARK    5  A    between atoms: C13_17  and  C14_18
REMARK    6  A    between atoms: C14_18  and  C15_19
REMARK    7  A    between atoms: C17_21  and  O3_27
REMARK    8  A    between atoms: O4_28  and  C20_29
REMARK    9  A    between atoms: C20_29  and  C21_31
REMARK                            x       y       z     vdW  Elec       q    Type
REMARK                         _______ _______ _______ _____ _____    ______ ____
ROOT
ATOM      1  C1  <0> A   1       1.432   0.537   0.009  0.00  0.00    +0.033 C 
ATOM      2  C2  <0> A   1       1.155  -0.939   0.299  0.00  0.00    +0.026 C 
ATOM      3  C3  <0> A   1      -0.274  -1.295  -0.136  0.00  0.00    +0.019 C 
ATOM      4  C4  <0> A   1      -0.506  -2.778   0.145  0.00  0.00    +0.179 C 
ATOM      5  C5  <0> A   1      -0.320  -3.112   1.606  0.00  0.00    +0.043 C 
ATOM      6  C6  <0> A   1      -1.656  -3.197   2.348  0.00  0.00    +0.013 C 
ATOM      7  C7  <0> A   1      -1.405  -3.762   3.747  0.00  0.00    +0.022 C 
ATOM      8  C8  <0> A   1      -0.295  -3.037   4.446  0.00  0.00    -0.032 C 
ATOM      9  C9  <0> A   1       0.619  -2.310   3.827  0.00  0.00    -0.006 C 
ATOM     10  C10 <0> A   1       0.570  -2.164   2.354  0.00  0.00    -0.086 C 
ATOM     11  C11 <0> A   1       1.263  -1.197   1.780  0.00  0.00    -0.021 C 
ATOM     12  C12 <0> A   1      -1.036  -5.242   3.629  0.00  0.00    +0.029 C 
ENDROOT
BRANCH   6  13
ATOM     13  C13 <0> A   1      -2.610  -4.117   1.583  0.00  0.00    +0.056 C 
BRANCH  13  14
ATOM     14  C14 <0> A   1      -3.716  -4.600   2.523  0.00  0.00    +0.039 C 
BRANCH  14  15
ATOM     15  C15 <0> A   1      -4.605  -5.607   1.790  0.00  0.00    +0.192 C 
ATOM     16  C16 <0> A   1      -5.746  -6.047   2.711  0.00  0.00    +0.039 C 
ATOM     17  C17 <0> A   1      -6.609  -7.086   1.989  0.00  0.00    +0.183 C 
ATOM     18  C18 <0> A   1      -5.732  -8.288   1.617  0.00  0.00    +0.018 C 
ATOM     19  C19 <0> A   1      -4.515  -7.777   0.878  0.00  0.00    +0.495 C 
ATOM     20  O1  <0> A   1      -4.168  -8.274  -0.167  0.00  0.00    -0.452 OA
ATOM     21  O2  <0> A   1      -3.827  -6.751   1.421  0.00  0.00    -0.365 OA
BRANCH  17  22
ATOM     22  O3  <0> A   1      -7.162  -6.509   0.804  0.00  0.00    -0.562 OA
ATOM     23  H27 <0> A   1      -7.721  -7.112   0.296  0.00  0.00    +0.386 HD
ENDBRANCH  17  22
ENDBRANCH  14  15
ENDBRANCH  13  14
ENDBRANCH   6  13
BRANCH   4  24
ATOM     24  O4  <0> A   1      -1.838  -3.122  -0.243  0.00  0.00    -0.316 OA
BRANCH  24  25
ATOM     25  C20 <0> A   1      -2.032  -3.456  -1.533  0.00  0.00    +0.498 C 
ATOM     26  O5  <0> A   1      -1.082  -3.561  -2.283  0.00  0.00    -0.498 OA
BRANCH  25  27
ATOM     27  C21 <0> A   1      -3.399  -3.696  -2.036  0.00  0.00    -0.137 A 
ATOM     28  C22 <0> A   1      -4.502  -3.443  -1.216  0.00  0.00    +0.105 A 
ATOM     29  C23 <0> A   1      -5.776  -3.668  -1.691  0.00  0.00    -0.014 A 
ATOM     30  C24 <0> A   1      -5.965  -4.144  -2.979  0.00  0.00    +0.137 A 
ATOM     31  C25 <0> A   1      -4.874  -4.397  -3.797  0.00  0.00    -0.017 A 
ATOM     32  C26 <0> A   1      -3.596  -4.170  -3.335  0.00  0.00    +0.124 A 
ATOM     33  F1  <0> A   1      -7.216  -4.364  -3.439  0.00  0.00    -0.131 F 
ENDBRANCH  25  27
ENDBRANCH  24  25
ENDBRANCH   4  24
TORSDOF 7
