REMARK VINA RESULT:      -8.0      0.000      0.000
REMARK  Name = CHEMBL317576
REMARK  15 active torsions:
REMARK  status: ('A' for Active; 'I' for Inactive)
REMARK    1  A    between atoms: C6_6  and  C7_7
REMARK    2  A    between atoms: C7_7  and  C8_8
REMARK    3  A    between atoms: C7_7  and  C16_18
REMARK    4  A    between atoms: C8_8  and  C9_9
REMARK    5  A    between atoms: C9_9  and  O1_10
REMARK    6  A    between atoms: O1_10  and  C10_11
REMARK    7  A    between atoms: C21_23  and  O2_24
REMARK    8  A    between atoms: O2_24  and  C22_25
REMARK    9  A    between atoms: C22_25  and  C23_26
REMARK   10  A    between atoms: C23_26  and  C24_27
REMARK   11  A    between atoms: C23_26  and  O6_35
REMARK   12  A    between atoms: C24_27  and  C25_28
REMARK   13  A    between atoms: C25_28  and  C26_30
REMARK   14  A    between atoms: C25_28  and  O5_34
REMARK   15  A    between atoms: C26_30  and  C27_31
REMARK                            x       y       z     vdW  Elec       q    Type
REMARK                         _______ _______ _______ _____ _____    ______ ____
ROOT
ATOM      1  C16 <0> A   1     -14.218   8.174  46.993  0.00  0.00    -0.069 A 
ATOM      2  C17 <0> A   1     -13.929   7.385  48.089  0.00  0.00    +0.055 A 
ATOM      3  C18 <0> A   1     -12.687   6.790  48.208  0.00  0.00    -0.029 A 
ATOM      4  C19 <0> A   1     -11.729   6.984  47.228  0.00  0.00    +0.057 A 
ATOM      5  C20 <0> A   1     -12.012   7.773  46.130  0.00  0.00    -0.045 A 
ATOM      6  C21 <0> A   1     -13.262   8.366  46.007  0.00  0.00    +0.123 A 
ATOM      7 Cl1  <0> A   1     -10.811   8.017  44.901  0.00  0.00    -0.036 Cl
ATOM      8 Cl2  <0> A   1     -12.327   5.798  49.587  0.00  0.00    -0.054 Cl
ENDROOT
BRANCH   1   9
ATOM      9  C7  <0> A   1     -15.572   8.823  46.866  0.00  0.00    +0.109 C 
BRANCH   9  15
ATOM     10  C1  <0> A   1     -16.405  11.183  46.823  0.00  0.00    +0.047 A 
ATOM     11  C2  <0> A   1     -16.322  12.506  47.211  0.00  0.00    -0.012 A 
ATOM     12  C3  <0> A   1     -15.314  12.914  48.068  0.00  0.00    +0.100 A 
ATOM     13  C4  <0> A   1     -14.389  11.996  48.535  0.00  0.00    -0.007 A 
ATOM     14  C5  <0> A   1     -14.473  10.672  48.145  0.00  0.00    +0.049 A 
ATOM     15  C6  <0> A   1     -15.481  10.266  47.290  0.00  0.00    -0.091 A 
ATOM     16  F2  <0> A   1     -15.232  14.209  48.448  0.00  0.00    -0.139 F 
ENDBRANCH   9  15
BRANCH   9  17
ATOM     17  C8  <0> A   1     -16.574   8.090  47.761  0.00  0.00    +0.059 C 
BRANCH  17  18
ATOM     18  C9  <0> A   1     -17.655   7.442  46.893  0.00  0.00    +0.196 C 
BRANCH  18  19
ATOM     19  O1  <0> A   1     -17.475   6.025  46.887  0.00  0.00    -0.310 OA
BRANCH  19  20
ATOM     20  C10 <0> A   1     -16.547   5.524  46.029  0.00  0.00    +0.125 A 
ATOM     21  C11 <0> A   1     -15.544   4.691  46.502  0.00  0.00    -0.039 A 
ATOM     22  C12 <0> A   1     -14.601   4.183  45.629  0.00  0.00    +0.029 A 
ATOM     23  C13 <0> A   1     -14.658   4.505  44.284  0.00  0.00    +0.057 A 
ATOM     24  C14 <0> A   1     -15.659   5.337  43.811  0.00  0.00    +0.028 A 
ATOM     25  C15 <0> A   1     -16.606   5.841  44.681  0.00  0.00    +0.015 A 
ATOM     26  F1  <0> A   1     -13.735   4.009  43.431  0.00  0.00    -0.141 F 
ENDBRANCH  19  20
ENDBRANCH  18  19
ENDBRANCH  17  18
ENDBRANCH   9  17
ENDBRANCH   1   9
BRANCH   6  27
ATOM     27  O2  <0> A   1     -13.546   9.138  44.925  0.00  0.00    -0.309 OA
BRANCH  27  28
ATOM     28  C22 <0> A   1     -12.912  10.417  44.856  0.00  0.00    +0.154 C 
BRANCH  28  29
ATOM     29  C23 <0> A   1     -13.787  11.377  44.047  0.00  0.00    +0.229 C 
BRANCH  29  30
ATOM     30  O6  <0> A   1     -13.084  12.605  43.843  0.00  0.00    -0.528 OA
ATOM     31  H25 <0> A   1     -12.204  12.626  44.244  0.00  0.00    +0.359 HD
ENDBRANCH  29  30
BRANCH  29  32
ATOM     32  C24 <0> A   1     -14.118  10.748  42.693  0.00  0.00    -0.041 C 
BRANCH  32  33
ATOM     33  C25 <0> A   1     -13.281  11.416  41.601  0.00  0.00    +0.235 C 
BRANCH  33  34
ATOM     34  O5  <0> A   1     -11.983  10.819  41.563  0.00  0.00    -0.526 OA
ATOM     35  H24 <0> A   1     -11.266  11.419  41.810  0.00  0.00    +0.350 HD
ENDBRANCH  33  34
BRANCH  33  36
ATOM     36  C26 <0> A   1     -13.967  11.229  40.247  0.00  0.00    -0.101 C 
BRANCH  36  37
ATOM     37  C27 <0> A   1     -12.923  11.093  39.169  0.00  0.00    +0.490 C 
ATOM     38  O3  <0> A   1     -12.626   9.990  38.743  0.00  0.00    -0.680 OA
ATOM     39  O4  <0> A   1     -12.373  12.086  38.723  0.00  0.00    -0.712 OA
ENDBRANCH  36  37
ENDBRANCH  33  36
ENDBRANCH  32  33
ENDBRANCH  29  32
ENDBRANCH  28  29
ENDBRANCH  27  28
ENDBRANCH   6  27
TORSDOF 15
