REMARK VINA RESULT:      -6.8     21.626     23.744
REMARK  Name = CHEMBL296765
REMARK  6 active torsions:
REMARK  status: ('A' for Active; 'I' for Inactive)
REMARK    1  A    between atoms: C2_2  and  C3_3
REMARK    2  A    between atoms: C3_3  and  O1_4
REMARK    3  A    between atoms: O1_4  and  C4_5
REMARK    4  A    between atoms: C9_10  and  C10_11
REMARK    5  A    between atoms: C11_12  and  C12_13
REMARK    6  A    between atoms: C14_15  and  O4_21
REMARK                            x       y       z     vdW  Elec       q    Type
REMARK                         _______ _______ _______ _____ _____    ______ ____
ROOT
ATOM      1  C4  <0> A   1       5.726  21.708  33.573  0.00  0.00    +0.170 A 
ATOM      2  C5  <0> A   1       6.011  22.379  34.751  0.00  0.00    -0.052 A 
ATOM      3  C6  <0> A   1       5.576  21.869  35.962  0.00  0.00    +0.017 A 
ATOM      4  C7  <0> A   1       4.855  20.687  36.005  0.00  0.00    +0.011 A 
ATOM      5  C8  <0> A   1       4.565  20.007  34.838  0.00  0.00    +0.017 A 
ATOM      6  C9  <0> A   1       4.993  20.517  33.611  0.00  0.00    -0.077 A 
ATOM      7 Cl1  <0> A   1       3.660  18.527  34.897  0.00  0.00    -0.037 Cl
ATOM      8 Cl2  <0> A   1       5.938  22.714  37.434  0.00  0.00    -0.049 Cl
ENDROOT
BRANCH   6   9
ATOM      9  C10 <0> A   1       4.679  19.798  32.359  0.00  0.00    +0.056 C 
ATOM     10  C11 <0> A   1       5.548  18.932  31.855  0.00  0.00    -0.010 C 
BRANCH  10  11
ATOM     11  C12 <0> A   1       5.228  18.199  30.579  0.00  0.00    +0.243 C 
ATOM     12  C13 <0> A   1       3.991  17.322  30.789  0.00  0.00    +0.051 C 
ATOM     13  C14 <0> A   1       3.694  16.547  29.502  0.00  0.00    +0.186 C 
ATOM     14  C15 <0> A   1       4.908  15.677  29.153  0.00  0.00    +0.023 C 
ATOM     15  C16 <0> A   1       6.137  16.559  29.153  0.00  0.00    +0.497 C 
ATOM     16  O2  <0> A   1       6.919  16.535  28.231  0.00  0.00    -0.451 OA
ATOM     17  O3  <0> A   1       6.337  17.371  30.211  0.00  0.00    -0.367 OA
BRANCH  13  18
ATOM     18  O4  <0> A   1       3.438  17.466  28.437  0.00  0.00    -0.564 OA
ATOM     19  H16 <0> A   1       2.887  18.218  28.691  0.00  0.00    +0.387 HD
ENDBRANCH  13  18
ENDBRANCH  10  11
ENDBRANCH   6   9
BRANCH   1  20
ATOM     20  O1  <0> A   1       6.153  22.208  32.384  0.00  0.00    -0.292 OA
BRANCH  20  21
ATOM     21  C3  <0> A   1       5.826  23.570  32.098  0.00  0.00    +0.232 C 
BRANCH  21  23
ATOM     22  C1  <0> A   1       3.442  24.098  32.065  0.00  0.00    +0.049 C 
ATOM     23  C2  <0> A   1       4.482  23.633  31.419  0.00  0.00    -0.039 C 
ENDBRANCH  21  23
ENDBRANCH  20  21
ENDBRANCH   1  20
TORSDOF 6
