REMARK VINA RESULT:      -7.4     13.736     19.664
REMARK  Name = CHEMBL471744
REMARK  17 active torsions:
REMARK  status: ('A' for Active; 'I' for Inactive)
REMARK    1  A    between atoms: C1_1  and  C2_2
REMARK    2  A    between atoms: C2_2  and  C3_3
REMARK    3  A    between atoms: C4_4  and  C23_31
REMARK    4  A    between atoms: C5_5  and  C20_28
REMARK    5  A    between atoms: C6_6  and  C14_21
REMARK    6  A    between atoms: N1_7  and  C7_8
REMARK    7  A    between atoms: C7_8  and  C8_9
REMARK    8  A    between atoms: C8_9  and  C9_10
REMARK    9  A    between atoms: C9_10  and  C10_12
REMARK   10  A    between atoms: C9_10  and  O4_20
REMARK   11  A    between atoms: C10_12  and  C11_13
REMARK   12  A    between atoms: C11_13  and  C12_15
REMARK   13  A    between atoms: C11_13  and  O3_19
REMARK   14  A    between atoms: C12_15  and  C13_16
REMARK   15  A    between atoms: C20_28  and  C21_29
REMARK   16  A    between atoms: C20_28  and  C22_30
REMARK   17  A    between atoms: N2_33  and  C24_34
REMARK                            x       y       z     vdW  Elec       q    Type
REMARK                         _______ _______ _______ _____ _____    ______ ____
ROOT
ATOM      1  C3  <0> A   1     -24.539  -3.719  51.205  0.00  0.00    +0.089 C 
ATOM      2  C4  <0> A   1     -25.418  -2.677  51.409  0.00  0.00    -0.221 C 
ATOM      3  C5  <0> A   1     -26.681  -3.254  51.704  0.00  0.00    -0.086 C 
ATOM      4  C6  <0> A   1     -26.522  -4.601  51.666  0.00  0.00    +0.043 C 
ATOM      5  N1  <0> A   1     -25.213  -4.877  51.356  0.00  0.00    -0.413 N 
ENDROOT
BRANCH   4   6
ATOM      6  C14 <0> A   1     -27.581  -5.604  51.913  0.00  0.00    -0.023 A 
ATOM      7  C15 <0> A   1     -28.297  -6.144  50.843  0.00  0.00    +0.065 A 
ATOM      8  C16 <0> A   1     -29.283  -7.079  51.079  0.00  0.00    -0.009 A 
ATOM      9  C17 <0> A   1     -29.565  -7.482  52.374  0.00  0.00    +0.102 A 
ATOM     10  C18 <0> A   1     -28.858  -6.948  53.440  0.00  0.00    -0.006 A 
ATOM     11  C19 <0> A   1     -27.865  -6.017  53.216  0.00  0.00    +0.046 A 
ATOM     12  F1  <0> A   1     -30.532  -8.398  52.599  0.00  0.00    -0.138 F 
ENDBRANCH   4   6
BRANCH   2  13
ATOM     13  C23 <0> A   1     -25.106  -1.240  51.337  0.00  0.00    +0.606 C 
ATOM     14  O5  <0> A   1     -25.340  -0.617  50.318  0.00  0.00    -0.512 OA
ATOM     15  N2  <0> A   1     -24.563  -0.614  52.399  0.00  0.00    -0.671 N 
ATOM     16  H29 <0> A   1     -24.446  -1.091  53.236  0.00  0.00    +0.411 HD
BRANCH  15  17
ATOM     17  C24 <0> A   1     -24.164   0.723  52.295  0.00  0.00    +0.151 A 
ATOM     18  C25 <0> A   1     -22.917   1.040  51.772  0.00  0.00    -0.024 A 
ATOM     19  C26 <0> A   1     -22.527   2.361  51.672  0.00  0.00    +0.024 A 
ATOM     20  C27 <0> A   1     -23.377   3.368  52.093  0.00  0.00    -0.018 A 
ATOM     21  C28 <0> A   1     -24.619   3.056  52.614  0.00  0.00    +0.024 A 
ATOM     22  C29 <0> A   1     -25.018   1.737  52.711  0.00  0.00    +0.011 A 
ENDBRANCH  15  17
ENDBRANCH   2  13
BRANCH   3  23
ATOM     23  C20 <0> A   1     -27.958  -2.511  52.000  0.00  0.00    +0.048 C 
ATOM     24  C21 <0> A   1     -27.735  -1.567  53.185  0.00  0.00    +0.021 C 
ATOM     25  C22 <0> A   1     -28.373  -1.699  50.772  0.00  0.00    +0.024 C 
ENDBRANCH   3  23
BRANCH   1  27
ATOM     26  C1  <0> A   1     -22.264  -3.437  52.152  0.00  0.00    +0.035 C 
ATOM     27  C2  <0> A   1     -23.077  -3.586  50.864  0.00  0.00    +0.099 C 
ENDBRANCH   1  27
BRANCH   5  28
ATOM     28  C7  <0> A   1     -24.639  -6.218  51.215  0.00  0.00    +0.293 C 
BRANCH  28  29
ATOM     29  C8  <0> A   1     -24.777  -6.681  49.764  0.00  0.00    -0.014 C 
BRANCH  29  30
ATOM     30  C9  <0> A   1     -25.020  -8.191  49.732  0.00  0.00    +0.217 C 
BRANCH  30  31
ATOM     31  O4  <0> A   1     -25.611  -8.552  48.482  0.00  0.00    -0.541 OA
ATOM     32  H17 <0> A   1     -25.396  -9.449  48.190  0.00  0.00    +0.366 HD
ENDBRANCH  30  31
BRANCH  30  33
ATOM     33  C10 <0> A   1     -23.689  -8.927  49.898  0.00  0.00    -0.048 C 
BRANCH  33  34
ATOM     34  C11 <0> A   1     -23.952 -10.360  50.361  0.00  0.00    +0.231 C 
BRANCH  34  35
ATOM     35  O3  <0> A   1     -25.345 -10.523  50.639  0.00  0.00    -0.528 OA
ATOM     36  H16 <0> A   1     -25.789 -11.162  50.064  0.00  0.00    +0.350 HD
ENDBRANCH  34  35
BRANCH  34  37
ATOM     37  C12 <0> A   1     -23.536 -11.337  49.258  0.00  0.00    -0.102 C 
BRANCH  37  38
ATOM     38  C13 <0> A   1     -24.755 -12.054  48.736  0.00  0.00    +0.490 C 
ATOM     39  O1  <0> A   1     -25.065 -13.141  49.192  0.00  0.00    -0.681 OA
ATOM     40  O2  <0> A   1     -25.430 -11.545  47.858  0.00  0.00    -0.712 OA
ENDBRANCH  37  38
ENDBRANCH  34  37
ENDBRANCH  33  34
ENDBRANCH  30  33
ENDBRANCH  29  30
ENDBRANCH  28  29
ENDBRANCH   5  28
TORSDOF 14
