REMARK VINA RESULT:      -8.8     16.688     20.393
REMARK  Name = CHEMBL332812
REMARK  11 active torsions:
REMARK  status: ('A' for Active; 'I' for Inactive)
REMARK    1  A    between atoms: C6_6  and  C11_11
REMARK    2  A    between atoms: C11_11  and  C12_12
REMARK    3  A    between atoms: N2_19  and  C26_34
REMARK    4  A    between atoms: C18_20  and  C19_21
REMARK    5  A    between atoms: C20_22  and  C21_23
REMARK    6  A    between atoms: C21_23  and  C22_25
REMARK    7  A    between atoms: C21_23  and  O4_33
REMARK    8  A    between atoms: C22_25  and  C23_26
REMARK    9  A    between atoms: C23_26  and  C24_28
REMARK   10  A    between atoms: C23_26  and  O3_32
REMARK   11  A    between atoms: C24_28  and  C25_29
REMARK                            x       y       z     vdW  Elec       q    Type
REMARK                         _______ _______ _______ _____ _____    ______ ____
ROOT
ATOM      1  C12 <0> A   1     -24.617  -5.617  51.135  0.00  0.00    +0.092 C 
ATOM      2  C13 <0> A   1     -23.769  -4.358  51.349  0.00  0.00    +0.030 C 
ATOM      3  C14 <0> A   1     -24.499  -3.139  50.780  0.00  0.00    +0.016 C 
ATOM      4  C15 <0> A   1     -25.698  -2.793  51.672  0.00  0.00    +0.104 C 
ATOM      5  C16 <0> A   1     -26.500  -4.051  51.892  0.00  0.00    -0.211 C 
ATOM      6  C17 <0> A   1     -26.011  -5.340  51.647  0.00  0.00    +0.089 C 
ATOM      7  N1  <0> A   1     -26.946  -6.202  51.934  0.00  0.00    -0.263 NA
ATOM      8  N2  <0> A   1     -28.080  -5.507  52.378  0.00  0.00    -0.330 N 
ATOM      9  C18 <0> A   1     -27.788  -4.170  52.348  0.00  0.00    +0.124 C 
ENDROOT
BRANCH   8  10
ATOM     10  C26 <0> A   1     -29.294  -6.079  52.781  0.00  0.00    +0.149 A 
ATOM     11  C27 <0> A   1     -29.511  -6.379  54.120  0.00  0.00    +0.048 A 
ATOM     12  C28 <0> A   1     -30.708  -6.941  54.515  0.00  0.00    +0.017 A 
ATOM     13  C29 <0> A   1     -31.692  -7.207  53.577  0.00  0.00    +0.097 A 
ATOM     14  C30 <0> A   1     -31.477  -6.910  52.242  0.00  0.00    +0.007 A 
ATOM     15  C31 <0> A   1     -30.284  -6.342  51.843  0.00  0.00    +0.056 A 
ATOM     16  F1  <0> A   1     -32.863  -7.758  53.966  0.00  0.00    -0.135 F 
ENDBRANCH   8  10
BRANCH   9  17
ATOM     17  C19 <0> A   1     -28.687  -3.067  52.731  0.00  0.00    +0.027 C 
ATOM     18  C20 <0> A   1     -29.293  -2.347  51.793  0.00  0.00    -0.028 C 
BRANCH  18  19
ATOM     19  C21 <0> A   1     -30.212  -1.220  52.185  0.00  0.00    +0.254 C 
BRANCH  19  20
ATOM     20  O4  <0> A   1     -31.531  -1.731  52.394  0.00  0.00    -0.536 OA
ATOM     21  H26 <0> A   1     -32.211  -1.046  52.462  0.00  0.00    +0.368 HD
ENDBRANCH  19  20
BRANCH  19  22
ATOM     22  C22 <0> A   1     -29.705  -0.573  53.476  0.00  0.00    -0.040 C 
BRANCH  22  23
ATOM     23  C23 <0> A   1     -28.967   0.724  53.141  0.00  0.00    +0.232 C 
BRANCH  23  24
ATOM     24  O3  <0> A   1     -27.562   0.472  53.080  0.00  0.00    -0.528 OA
ATOM     25  H25 <0> A   1     -27.112   0.543  53.932  0.00  0.00    +0.351 HD
ENDBRANCH  23  24
BRANCH  23  26
ATOM     26  C24 <0> A   1     -29.449   1.250  51.787  0.00  0.00    -0.102 C 
BRANCH  26  27
ATOM     27  C25 <0> A   1     -28.272   1.775  51.004  0.00  0.00    +0.491 C 
ATOM     28  O1  <0> A   1     -27.784   1.101  50.114  0.00  0.00    -0.681 OA
ATOM     29  O2  <0> A   1     -27.809   2.872  51.263  0.00  0.00    -0.713 OA
ENDBRANCH  26  27
ENDBRANCH  23  26
ENDBRANCH  22  23
ENDBRANCH  19  22
ENDBRANCH  18  19
ENDBRANCH   9  17
BRANCH   1  30
ATOM     30  C11 <0> A   1     -24.006  -6.788  51.907  0.00  0.00    +0.081 C 
BRANCH  30  36
ATOM     31  C1  <0> A   1     -24.412 -12.687  49.311  0.00  0.00    -0.002 A 
ATOM     32  C2  <0> A   1     -24.475 -12.790  50.700  0.00  0.00    -0.004 A 
ATOM     33  C3  <0> A   1     -24.411 -11.682  51.487  0.00  0.00    +0.017 A 
ATOM     34  C4  <0> A   1     -24.278 -10.413  50.895  0.00  0.00    -0.055 A 
ATOM     35  C5  <0> A   1     -24.209  -9.248  51.675  0.00  0.00    +0.015 A 
ATOM     36  C6  <0> A   1     -24.080  -8.037  51.067  0.00  0.00    -0.073 A 
ATOM     37  C7  <0> A   1     -24.017  -7.934  49.678  0.00  0.00    +0.066 A 
ATOM     38  C8  <0> A   1     -24.081  -9.042  48.891  0.00  0.00    +0.001 A 
ATOM     39  C9  <0> A   1     -24.213 -10.310  49.483  0.00  0.00    -0.047 A 
ATOM     40  C10 <0> A   1     -24.283 -11.477  48.702  0.00  0.00    +0.015 A 
ENDBRANCH  30  36
ENDBRANCH   1  30
TORSDOF 11
