REMARK VINA RESULT:      -7.2     22.957     24.593
REMARK  Name = CHEMBL101806
REMARK  11 active torsions:
REMARK  status: ('A' for Active; 'I' for Inactive)
REMARK    1  A    between atoms: C5_5  and  O2_15
REMARK    2  A    between atoms: C6_6  and  C7_7
REMARK    3  A    between atoms: C7_7  and  C8_9
REMARK    4  A    between atoms: O2_15  and  C14_16
REMARK    5  A    between atoms: C14_16  and  C15_17
REMARK    6  A    between atoms: C15_17  and  C16_18
REMARK    7  A    between atoms: C15_17  and  O6_26
REMARK    8  A    between atoms: C16_18  and  C17_19
REMARK    9  A    between atoms: C17_19  and  C18_21
REMARK   10  A    between atoms: C17_19  and  O5_25
REMARK   11  A    between atoms: C18_21  and  C19_22
REMARK                            x       y       z     vdW  Elec       q    Type
REMARK                         _______ _______ _______ _____ _____    ______ ____
ROOT
ATOM      1  C1  <0> A   1       2.971  21.910  34.931  0.00  0.00    +0.103 A 
ATOM      2  C2  <0> A   1       2.554  23.013  34.218  0.00  0.00    -0.048 A 
ATOM      3  C3  <0> A   1       3.062  23.262  32.952  0.00  0.00    +0.091 A 
ATOM      4  C4  <0> A   1       3.992  22.407  32.391  0.00  0.00    -0.063 A 
ATOM      5  C5  <0> A   1       4.424  21.292  33.092  0.00  0.00    +0.174 A 
ATOM      6  C6  <0> A   1       3.913  21.036  34.375  0.00  0.00    -0.168 A 
ATOM      7 Cl1  <0> A   1       4.619  22.730  30.804  0.00  0.00    -0.030 Cl
ATOM      8 Cl2  <0> A   1       1.387  24.097  34.908  0.00  0.00    -0.049 Cl
ENDROOT
BRANCH   6   9
ATOM      9  C7  <0> A   1       4.363  19.859  35.128  0.00  0.00    +0.394 C 
ATOM     10  O1  <0> A   1       3.684  18.854  35.146  0.00  0.00    -0.410 OA
BRANCH   9  11
ATOM     11  C8  <0> A   1       5.669  19.900  35.880  0.00  0.00    -0.031 C 
ATOM     12  C9  <0> A   1       5.548  19.069  37.158  0.00  0.00    +0.029 C 
ATOM     13  C10 <0> A   1       6.873  19.112  37.921  0.00  0.00    +0.015 C 
ATOM     14  C11 <0> A   1       7.207  20.559  38.285  0.00  0.00    +0.004 C 
ATOM     15  C12 <0> A   1       7.328  21.391  37.006  0.00  0.00    +0.010 C 
ATOM     16  C13 <0> A   1       6.002  21.349  36.243  0.00  0.00    +0.034 C 
ENDBRANCH   9  11
ENDBRANCH   6   9
BRANCH   5  17
ATOM     17  O2  <0> A   1       5.337  20.452  32.542  0.00  0.00    -0.298 OA
BRANCH  17  18
ATOM     18  C14 <0> A   1       4.854  19.506  31.585  0.00  0.00    +0.164 C 
BRANCH  18  19
ATOM     19  C15 <0> A   1       5.297  18.099  31.992  0.00  0.00    +0.233 C 
BRANCH  19  20
ATOM     20  O6  <0> A   1       4.163  17.355  32.443  0.00  0.00    -0.530 OA
ATOM     21  H23 <0> A   1       3.369  17.486  31.909  0.00  0.00    +0.362 HD
ENDBRANCH  19  20
BRANCH  19  22
ATOM     22  C16 <0> A   1       5.924  17.393  30.789  0.00  0.00    -0.042 C 
BRANCH  22  23
ATOM     23  C17 <0> A   1       4.859  17.181  29.710  0.00  0.00    +0.236 C 
BRANCH  23  24
ATOM     24  O5  <0> A   1       5.079  18.101  28.638  0.00  0.00    -0.526 OA
ATOM     25  H22 <0> A   1       5.039  17.699  27.759  0.00  0.00    +0.350 HD
ENDBRANCH  23  24
BRANCH  23  26
ATOM     26  C18 <0> A   1       4.950  15.749  29.179  0.00  0.00    -0.101 C 
BRANCH  26  27
ATOM     27  C19 <0> A   1       5.480  15.770  27.768  0.00  0.00    +0.491 C 
ATOM     28  O3  <0> A   1       4.708  15.854  26.829  0.00  0.00    -0.680 OA
ATOM     29  O4  <0> A   1       6.681  15.703  27.566  0.00  0.00    -0.713 OA
ENDBRANCH  26  27
ENDBRANCH  23  26
ENDBRANCH  22  23
ENDBRANCH  19  22
ENDBRANCH  18  19
ENDBRANCH  17  18
ENDBRANCH   5  17
TORSDOF 11
