REMARK VINA RESULT:      -7.0     16.888     20.268
REMARK  Name = CHEMBL333904
REMARK  15 active torsions:
REMARK  status: ('A' for Active; 'I' for Inactive)
REMARK    1  A    between atoms: C1_1  and  C2_2
REMARK    2  A    between atoms: C2_2  and  C3_3
REMARK    3  A    between atoms: C2_2  and  C4_4
REMARK    4  A    between atoms: C6_6  and  C22_30
REMARK    5  A    between atoms: C7_7  and  C16_23
REMARK    6  A    between atoms: N1_8  and  C8_9
REMARK    7  A    between atoms: C9_10  and  C10_11
REMARK    8  A    between atoms: C10_11  and  C11_13
REMARK    9  A    between atoms: C10_11  and  O4_22
REMARK   10  A    between atoms: C11_13  and  C12_14
REMARK   11  A    between atoms: C12_14  and  C13_16
REMARK   12  A    between atoms: C12_14  and  O3_21
REMARK   13  A    between atoms: C13_16  and  C14_17
REMARK   14  A    between atoms: C14_17  and  O2_19
REMARK   15  A    between atoms: O2_19  and  C15_20
REMARK                            x       y       z     vdW  Elec       q    Type
REMARK                         _______ _______ _______ _____ _____    ______ ____
ROOT
ATOM      1  C4  <0> A   1     -28.238  -4.653  52.436  0.00  0.00    +0.043 C 
ATOM      2  C5  <0> A   1     -28.925  -3.529  52.715  0.00  0.00    -0.020 C 
ATOM      3  C6  <0> A   1     -28.042  -2.433  52.556  0.00  0.00    -0.112 C 
ATOM      4  C7  <0> A   1     -26.817  -2.958  52.174  0.00  0.00    +0.072 C 
ATOM      5  N1  <0> A   1     -26.952  -4.321  52.111  0.00  0.00    -0.389 N 
ENDROOT
BRANCH   4   6
ATOM      6  C16 <0> A   1     -25.588  -2.189  51.893  0.00  0.00    -0.034 A 
ATOM      7  C17 <0> A   1     -25.322  -1.742  50.597  0.00  0.00    +0.056 A 
ATOM      8  C18 <0> A   1     -24.174  -1.023  50.340  0.00  0.00    -0.011 A 
ATOM      9  C19 <0> A   1     -23.284  -0.744  51.366  0.00  0.00    +0.106 A 
ATOM     10  C20 <0> A   1     -23.543  -1.184  52.654  0.00  0.00    -0.010 A 
ATOM     11  C21 <0> A   1     -24.691  -1.898  52.923  0.00  0.00    +0.069 A 
ATOM     12  F1  <0> A   1     -22.161  -0.039  51.108  0.00  0.00    -0.136 F 
ENDBRANCH   4   6
BRANCH   3  13
ATOM     13  C22 <0> A   1     -28.365  -1.003  52.757  0.00  0.00    +0.041 A 
ATOM     14  C23 <0> A   1     -28.182  -0.394  54.004  0.00  0.00    -0.031 A 
ATOM     15  C24 <0> A   1     -28.496   0.941  54.147  0.00  0.00    +0.255 A 
ATOM     16  N2  <0> A   1     -28.963   1.641  53.130  0.00  0.00    -0.490 NA
ATOM     17  C25 <0> A   1     -29.150   1.105  51.939  0.00  0.00    +0.255 A 
ATOM     18  C26 <0> A   1     -28.856  -0.222  51.706  0.00  0.00    -0.031 A 
ENDBRANCH   3  13
BRANCH   1  20
ATOM     19  C1  <0> A   1     -29.053  -6.451  53.937  0.00  0.00    +0.041 C 
ATOM     20  C2  <0> A   1     -28.794  -6.053  52.482  0.00  0.00    +0.050 C 
ATOM     21  C3  <0> A   1     -30.107  -6.105  51.697  0.00  0.00    +0.033 C 
ENDBRANCH   1  20
BRANCH   5  22
ATOM     22  C8  <0> A   1     -25.945  -5.220  51.766  0.00  0.00    +0.201 C 
ATOM     23  C9  <0> A   1     -25.779  -5.575  50.506  0.00  0.00    -0.056 C 
BRANCH  23  24
ATOM     24  C10 <0> A   1     -24.690  -6.547  50.133  0.00  0.00    +0.268 C 
BRANCH  24  25
ATOM     25  O4  <0> A   1     -23.843  -6.769  51.263  0.00  0.00    -0.538 OA
ATOM     26  H21 <0> A   1     -22.903  -6.629  51.085  0.00  0.00    +0.370 HD
ENDBRANCH  24  25
BRANCH  24  27
ATOM     27  C11 <0> A   1     -25.316  -7.873  49.699  0.00  0.00    -0.015 C 
BRANCH  27  28
ATOM     28  C12 <0> A   1     -24.381  -8.582  48.718  0.00  0.00    +0.233 C 
BRANCH  28  29
ATOM     29  O3  <0> A   1     -23.255  -7.746  48.443  0.00  0.00    -0.530 OA
ATOM     30  H20 <0> A   1     -23.317  -7.268  47.605  0.00  0.00    +0.366 HD
ENDBRANCH  28  29
BRANCH  28  31
ATOM     31  C13 <0> A   1     -23.901  -9.898  49.332  0.00  0.00    +0.073 C 
BRANCH  31  32
ATOM     32  C14 <0> A   1     -24.895 -10.988  49.025  0.00  0.00    +0.456 C 
ATOM     33  O1  <0> A   1     -25.509 -10.971  47.984  0.00  0.00    -0.486 OA
BRANCH  32  34
ATOM     34  O2  <0> A   1     -25.097 -11.980  49.908  0.00  0.00    -0.359 OA
ATOM     35  C15 <0> A   1     -24.665 -11.750  51.251  0.00  0.00    +0.258 C 
ENDBRANCH  32  34
ENDBRANCH  31  32
ENDBRANCH  28  31
ENDBRANCH  27  28
ENDBRANCH  24  27
ENDBRANCH  23  24
ENDBRANCH   5  22
TORSDOF 12
