MODEL 1
REMARK VINA RESULT:      -8.2      0.000      0.000
REMARK  Name = CHEMBL254036
REMARK  16 active torsions:
REMARK  status: ('A' for Active; 'I' for Inactive)
REMARK    1  A    between atoms: C1_1  and  C2_2
REMARK    2  A    between atoms: C2_2  and  C3_3
REMARK    3  A    between atoms: C2_2  and  C4_4
REMARK    4  A    between atoms: C5_5  and  C21_26
REMARK    5  A    between atoms: N2_7  and  C15_19
REMARK    6  A    between atoms: C6_8  and  C7_9
REMARK    7  A    between atoms: N3_11  and  C8_12
REMARK    8  A    between atoms: C8_12  and  C9_13
REMARK    9  A    between atoms: C21_26  and  C22_27
REMARK   10  A    between atoms: C22_27  and  C23_28
REMARK   11  A    between atoms: C23_28  and  C24_30
REMARK   12  A    between atoms: C23_28  and  O5_38
REMARK   13  A    between atoms: C24_30  and  C25_31
REMARK   14  A    between atoms: C25_31  and  C26_33
REMARK   15  A    between atoms: C25_31  and  O4_37
REMARK   16  A    between atoms: C26_33  and  C27_34
REMARK                            x       y       z     vdW  Elec       q    Type
REMARK                         _______ _______ _______ _____ _____    ______ ____
ROOT
ATOM      1  C4  <0> A   1     -14.717   6.711  45.632  0.00  0.00    -0.123 C 
ATOM      2  C5  <0> A   1     -13.911   7.225  44.613  0.00  0.00    +0.056 C 
ATOM      3  N1  <0> A   1     -13.634   8.470  44.910  0.00  0.00    -0.273 NA
ATOM      4  N2  <0> A   1     -14.182   8.811  46.020  0.00  0.00    -0.230 N 
ATOM      5  C6  <0> A   1     -14.886   7.753  46.528  0.00  0.00    -0.035 C 
ENDROOT
BRANCH   4   6
ATOM      6  C15 <0> A   1     -14.080  10.074  46.618  0.00  0.00    +0.120 A 
ATOM      7  C16 <0> A   1     -15.107  10.996  46.474  0.00  0.00    +0.057 A 
ATOM      8  C17 <0> A   1     -15.005  12.241  47.064  0.00  0.00    +0.015 A 
ATOM      9  C18 <0> A   1     -13.876  12.569  47.798  0.00  0.00    +0.109 A 
ATOM     10  C19 <0> A   1     -12.850  11.651  47.941  0.00  0.00    +0.012 A 
ATOM     11  C20 <0> A   1     -12.951  10.403  47.357  0.00  0.00    +0.080 A 
ATOM     12  F1  <0> A   1     -13.777  13.787  48.372  0.00  0.00    -0.132 F 
ENDBRANCH   4   6
BRANCH   5  13
ATOM     13  C7  <0> A   1     -15.663   7.726  47.776  0.00  0.00    +0.602 C 
ATOM     14  O1  <0> A   1     -15.092   7.644  48.846  0.00  0.00    -0.514 OA
ATOM     15  N3  <0> A   1     -17.009   7.794  47.734  0.00  0.00    -0.713 N 
ATOM     16  H10 <0> A   1     -17.469   7.785  46.879  0.00  0.00    +0.405 HD
BRANCH  15  17
ATOM     17  C8  <0> A   1     -17.777   7.880  48.977  0.00  0.00    +0.324 C 
BRANCH  17  18
ATOM     18  C9  <0> A   1     -18.517   6.587  49.201  0.00  0.00    -0.112 A 
ATOM     19  C10 <0> A   1     -17.821   5.444  49.550  0.00  0.00    +0.027 A 
ATOM     20  C11 <0> A   1     -18.499   4.257  49.756  0.00  0.00    +0.004 A 
ATOM     21  C12 <0> A   1     -19.874   4.213  49.613  0.00  0.00    +0.014 A 
ATOM     22  C13 <0> A   1     -20.569   5.356  49.264  0.00  0.00    +0.002 A 
ATOM     23  C14 <0> A   1     -19.892   6.544  49.063  0.00  0.00    +0.024 A 
ENDBRANCH  17  18
ENDBRANCH  15  17
ENDBRANCH   5  13
BRANCH   1  25
ATOM     24  C1  <0> A   1     -16.369   5.136  44.664  0.00  0.00    +0.023 C 
ATOM     25  C2  <0> A   1     -15.288   5.319  45.730  0.00  0.00    +0.066 C 
ATOM     26  C3  <0> A   1     -14.174   4.294  45.508  0.00  0.00    +0.030 C 
ENDBRANCH   1  25
BRANCH   2  27
ATOM     27  C21 <0> A   1     -13.442   6.479  43.391  0.00  0.00    +0.141 C 
BRANCH  27  28
ATOM     28  C22 <0> A   1     -13.770   7.294  42.139  0.00  0.00    -0.007 C 
BRANCH  28  29
ATOM     29  C23 <0> A   1     -12.475   7.651  41.408  0.00  0.00    +0.212 C 
BRANCH  29  30
ATOM     30  O5  <0> A   1     -11.526   6.597  41.579  0.00  0.00    -0.542 OA
ATOM     31  H31 <0> A   1     -10.605   6.890  41.565  0.00  0.00    +0.364 HD
ENDBRANCH  29  30
BRANCH  29  32
ATOM     32  C24 <0> A   1     -12.765   7.839  39.917  0.00  0.00    -0.052 C 
BRANCH  32  33
ATOM     33  C25 <0> A   1     -12.364   9.253  39.494  0.00  0.00    +0.230 C 
BRANCH  33  34
ATOM     34  O4  <0> A   1     -12.772   9.480  38.144  0.00  0.00    -0.528 OA
ATOM     35  H30 <0> A   1     -12.650   8.716  37.562  0.00  0.00    +0.350 HD
ENDBRANCH  33  34
BRANCH  33  36
ATOM     36  C26 <0> A   1     -13.044  10.273  40.410  0.00  0.00    -0.103 C 
BRANCH  36  37
ATOM     37  C27 <0> A   1     -13.850  11.237  39.579  0.00  0.00    +0.490 C 
ATOM     38  O2  <0> A   1     -15.068  11.196  39.607  0.00  0.00    -0.681 OA
ATOM     39  O3  <0> A   1     -13.283  12.058  38.878  0.00  0.00    -0.714 OA
ENDBRANCH  36  37
ENDBRANCH  33  36
ENDBRANCH  32  33
ENDBRANCH  29  32
ENDBRANCH  28  29
ENDBRANCH  27  28
ENDBRANCH   2  27
TORSDOF 14
ENDMDL
MODEL 2
REMARK VINA RESULT:      -8.2      2.743      8.862
REMARK  Name = CHEMBL254036
REMARK  16 active torsions:
REMARK  status: ('A' for Active; 'I' for Inactive)
REMARK    1  A    between atoms: C1_1  and  C2_2
REMARK    2  A    between atoms: C2_2  and  C3_3
REMARK    3  A    between atoms: C2_2  and  C4_4
REMARK    4  A    between atoms: C5_5  and  C21_26
REMARK    5  A    between atoms: N2_7  and  C15_19
REMARK    6  A    between atoms: C6_8  and  C7_9
REMARK    7  A    between atoms: N3_11  and  C8_12
REMARK    8  A    between atoms: C8_12  and  C9_13
REMARK    9  A    between atoms: C21_26  and  C22_27
REMARK   10  A    between atoms: C22_27  and  C23_28
REMARK   11  A    between atoms: C23_28  and  C24_30
REMARK   12  A    between atoms: C23_28  and  O5_38
REMARK   13  A    between atoms: C24_30  and  C25_31
REMARK   14  A    between atoms: C25_31  and  C26_33
REMARK   15  A    between atoms: C25_31  and  O4_37
REMARK   16  A    between atoms: C26_33  and  C27_34
REMARK                            x       y       z     vdW  Elec       q    Type
REMARK                         _______ _______ _______ _____ _____    ______ ____
ROOT
ATOM      1  C4  <0> A   1     -15.403   6.730  46.006  0.00  0.00    -0.123 C 
ATOM      2  C5  <0> A   1     -16.074   7.320  47.080  0.00  0.00    +0.056 C 
ATOM      3  N1  <0> A   1     -15.575   8.518  47.256  0.00  0.00    -0.273 NA
ATOM      4  N2  <0> A   1     -14.648   8.760  46.401  0.00  0.00    -0.230 N 
ATOM      5  C6  <0> A   1     -14.482   7.675  45.585  0.00  0.00    -0.035 C 
ENDROOT
BRANCH   4   6
ATOM      6  C15 <0> A   1     -13.916   9.952  46.318  0.00  0.00    +0.120 A 
ATOM      7  C16 <0> A   1     -14.216  10.885  45.335  0.00  0.00    +0.057 A 
ATOM      8  C17 <0> A   1     -13.493  12.059  45.254  0.00  0.00    +0.015 A 
ATOM      9  C18 <0> A   1     -12.469  12.305  46.155  0.00  0.00    +0.109 A 
ATOM     10  C19 <0> A   1     -12.168  11.375  47.135  0.00  0.00    +0.012 A 
ATOM     11  C20 <0> A   1     -12.892  10.202  47.222  0.00  0.00    +0.080 A 
ATOM     12  F1  <0> A   1     -11.762  13.453  46.074  0.00  0.00    -0.132 F 
ENDBRANCH   4   6
BRANCH   5  13
ATOM     13  C7  <0> A   1     -13.521   7.539  44.480  0.00  0.00    +0.602 C 
ATOM     14  O1  <0> A   1     -12.365   7.242  44.713  0.00  0.00    -0.514 OA
ATOM     15  N3  <0> A   1     -13.921   7.743  43.209  0.00  0.00    -0.713 N 
ATOM     16  H10 <0> A   1     -14.823   8.052  43.028  0.00  0.00    +0.405 HD
BRANCH  15  17
ATOM     17  C8  <0> A   1     -12.995   7.500  42.102  0.00  0.00    +0.324 C 
BRANCH  17  18
ATOM     18  C9  <0> A   1     -12.972   8.701  41.192  0.00  0.00    -0.112 A 
ATOM     19  C10 <0> A   1     -12.695   8.544  39.847  0.00  0.00    +0.027 A 
ATOM     20  C11 <0> A   1     -12.674   9.647  39.012  0.00  0.00    +0.004 A 
ATOM     21  C12 <0> A   1     -12.932  10.905  39.523  0.00  0.00    +0.014 A 
ATOM     22  C13 <0> A   1     -13.210  11.061  40.868  0.00  0.00    +0.002 A 
ATOM     23  C14 <0> A   1     -13.235   9.959  41.702  0.00  0.00    +0.024 A 
ENDBRANCH  17  18
ENDBRANCH  15  17
ENDBRANCH   5  13
BRANCH   1  25
ATOM     24  C1  <0> A   1     -16.218   5.481  44.026  0.00  0.00    +0.023 C 
ATOM     25  C2  <0> A   1     -15.630   5.355  45.432  0.00  0.00    +0.066 C 
ATOM     26  C3  <0> A   1     -14.299   4.605  45.363  0.00  0.00    +0.030 C 
ENDBRANCH   1  25
BRANCH   2  27
ATOM     27  C21 <0> A   1     -17.175   6.690  47.893  0.00  0.00    +0.141 C 
BRANCH  27  28
ATOM     28  C22 <0> A   1     -18.522   6.950  47.216  0.00  0.00    -0.007 C 
BRANCH  28  29
ATOM     29  C23 <0> A   1     -19.638   6.892  48.260  0.00  0.00    +0.212 C 
BRANCH  29  30
ATOM     30  O5  <0> A   1     -20.519   5.809  47.955  0.00  0.00    -0.542 OA
ATOM     31  H31 <0> A   1     -20.900   5.850  47.068  0.00  0.00    +0.364 HD
ENDBRANCH  29  30
BRANCH  29  32
ATOM     32  C24 <0> A   1     -19.027   6.677  49.647  0.00  0.00    -0.052 C 
BRANCH  32  33
ATOM     33  C25 <0> A   1     -19.991   7.200  50.715  0.00  0.00    +0.230 C 
BRANCH  33  34
ATOM     34  O4  <0> A   1     -21.167   7.710  50.086  0.00  0.00    -0.528 OA
ATOM     35  H30 <0> A   1     -21.254   8.672  50.135  0.00  0.00    +0.350 HD
ENDBRANCH  33  34
BRANCH  33  36
ATOM     36  C26 <0> A   1     -20.372   6.058  51.660  0.00  0.00    -0.103 C 
BRANCH  36  37
ATOM     37  C27 <0> A   1     -21.708   5.494  51.254  0.00  0.00    +0.490 C 
ATOM     38  O2  <0> A   1     -21.773   4.652  50.375  0.00  0.00    -0.681 OA
ATOM     39  O3  <0> A   1     -22.725   5.880  51.804  0.00  0.00    -0.714 OA
ENDBRANCH  36  37
ENDBRANCH  33  36
ENDBRANCH  32  33
ENDBRANCH  29  32
ENDBRANCH  28  29
ENDBRANCH  27  28
ENDBRANCH   2  27
TORSDOF 14
ENDMDL
MODEL 3
REMARK VINA RESULT:      -8.1      2.347      5.496
REMARK  Name = CHEMBL254036
REMARK  16 active torsions:
REMARK  status: ('A' for Active; 'I' for Inactive)
REMARK    1  A    between atoms: C1_1  and  C2_2
REMARK    2  A    between atoms: C2_2  and  C3_3
REMARK    3  A    between atoms: C2_2  and  C4_4
REMARK    4  A    between atoms: C5_5  and  C21_26
REMARK    5  A    between atoms: N2_7  and  C15_19
REMARK    6  A    between atoms: C6_8  and  C7_9
REMARK    7  A    between atoms: N3_11  and  C8_12
REMARK    8  A    between atoms: C8_12  and  C9_13
REMARK    9  A    between atoms: C21_26  and  C22_27
REMARK   10  A    between atoms: C22_27  and  C23_28
REMARK   11  A    between atoms: C23_28  and  C24_30
REMARK   12  A    between atoms: C23_28  and  O5_38
REMARK   13  A    between atoms: C24_30  and  C25_31
REMARK   14  A    between atoms: C25_31  and  C26_33
REMARK   15  A    between atoms: C25_31  and  O4_37
REMARK   16  A    between atoms: C26_33  and  C27_34
REMARK                            x       y       z     vdW  Elec       q    Type
REMARK                         _______ _______ _______ _____ _____    ______ ____
ROOT
ATOM      1  C4  <0> A   1     -14.189   7.573  45.781  0.00  0.00    -0.123 C 
ATOM      2  C5  <0> A   1     -14.589   6.524  44.949  0.00  0.00    +0.056 C 
ATOM      3  N1  <0> A   1     -15.733   6.071  45.396  0.00  0.00    -0.273 NA
ATOM      4  N2  <0> A   1     -16.113   6.725  46.434  0.00  0.00    -0.230 N 
ATOM      5  C6  <0> A   1     -15.184   7.683  46.737  0.00  0.00    -0.035 C 
ENDROOT
BRANCH   4   6
ATOM      6  C15 <0> A   1     -17.295   6.491  47.149  0.00  0.00    +0.120 A 
ATOM      7  C16 <0> A   1     -18.471   7.125  46.774  0.00  0.00    +0.057 A 
ATOM      8  C17 <0> A   1     -19.635   6.894  47.480  0.00  0.00    +0.015 A 
ATOM      9  C18 <0> A   1     -19.629   6.029  48.563  0.00  0.00    +0.109 A 
ATOM     10  C19 <0> A   1     -18.456   5.397  48.939  0.00  0.00    +0.012 A 
ATOM     11  C20 <0> A   1     -17.290   5.622  48.232  0.00  0.00    +0.080 A 
ATOM     12  F1  <0> A   1     -20.767   5.805  49.253  0.00  0.00    -0.132 F 
ENDBRANCH   4   6
BRANCH   5  13
ATOM     13  C7  <0> A   1     -15.235   8.640  47.853  0.00  0.00    +0.602 C 
ATOM     14  O1  <0> A   1     -14.952   8.277  48.978  0.00  0.00    -0.514 OA
ATOM     15  N3  <0> A   1     -15.594   9.920  47.628  0.00  0.00    -0.713 N 
ATOM     16  H10 <0> A   1     -15.891  10.193  46.745  0.00  0.00    +0.405 HD
BRANCH  15  17
ATOM     17  C8  <0> A   1     -15.537  10.899  48.715  0.00  0.00    +0.324 C 
BRANCH  17  18
ATOM     18  C9  <0> A   1     -14.181  11.556  48.730  0.00  0.00    -0.112 A 
ATOM     19  C10 <0> A   1     -13.858  12.496  47.769  0.00  0.00    +0.027 A 
ATOM     20  C11 <0> A   1     -12.614  13.099  47.782  0.00  0.00    +0.004 A 
ATOM     21  C12 <0> A   1     -11.693  12.761  48.756  0.00  0.00    +0.014 A 
ATOM     22  C13 <0> A   1     -12.016  11.821  49.716  0.00  0.00    +0.002 A 
ATOM     23  C14 <0> A   1     -13.262  11.222  49.706  0.00  0.00    +0.024 A 
ENDBRANCH  17  18
ENDBRANCH  15  17
ENDBRANCH   5  13
BRANCH   1  25
ATOM     24  C1  <0> A   1     -13.298   9.805  45.169  0.00  0.00    +0.023 C 
ATOM     25  C2  <0> A   1     -12.937   8.404  45.665  0.00  0.00    +0.066 C 
ATOM     26  C3  <0> A   1     -12.263   8.505  47.035  0.00  0.00    +0.030 C 
ENDBRANCH   1  25
BRANCH   2  27
ATOM     27  C21 <0> A   1     -13.836   6.005  43.752  0.00  0.00    +0.141 C 
BRANCH  27  28
ATOM     28  C22 <0> A   1     -13.844   7.062  42.646  0.00  0.00    -0.007 C 
BRANCH  28  29
ATOM     29  C23 <0> A   1     -12.409   7.338  42.194  0.00  0.00    +0.212 C 
BRANCH  29  30
ATOM     30  O5  <0> A   1     -11.704   6.102  42.066  0.00  0.00    -0.542 OA
ATOM     31  H31 <0> A   1     -10.972   6.000  42.689  0.00  0.00    +0.364 HD
ENDBRANCH  29  30
BRANCH  29  32
ATOM     32  C24 <0> A   1     -12.430   8.055  40.842  0.00  0.00    -0.052 C 
BRANCH  32  33
ATOM     33  C25 <0> A   1     -12.959   9.479  41.028  0.00  0.00    +0.230 C 
BRANCH  33  34
ATOM     34  O4  <0> A   1     -11.863  10.395  41.050  0.00  0.00    -0.528 OA
ATOM     35  H30 <0> A   1     -11.110  10.095  41.577  0.00  0.00    +0.350 HD
ENDBRANCH  33  34
BRANCH  33  36
ATOM     36  C26 <0> A   1     -13.896   9.831  39.870  0.00  0.00    -0.103 C 
BRANCH  36  37
ATOM     37  C27 <0> A   1     -13.951  11.327  39.706  0.00  0.00    +0.490 C 
ATOM     38  O2  <0> A   1     -14.608  12.002  40.480  0.00  0.00    -0.681 OA
ATOM     39  O3  <0> A   1     -13.339  11.863  38.798  0.00  0.00    -0.714 OA
ENDBRANCH  36  37
ENDBRANCH  33  36
ENDBRANCH  32  33
ENDBRANCH  29  32
ENDBRANCH  28  29
ENDBRANCH  27  28
ENDBRANCH   2  27
TORSDOF 14
ENDMDL
MODEL 4
REMARK VINA RESULT:      -8.0      2.749      8.822
REMARK  Name = CHEMBL254036
REMARK  16 active torsions:
REMARK  status: ('A' for Active; 'I' for Inactive)
REMARK    1  A    between atoms: C1_1  and  C2_2
REMARK    2  A    between atoms: C2_2  and  C3_3
REMARK    3  A    between atoms: C2_2  and  C4_4
REMARK    4  A    between atoms: C5_5  and  C21_26
REMARK    5  A    between atoms: N2_7  and  C15_19
REMARK    6  A    between atoms: C6_8  and  C7_9
REMARK    7  A    between atoms: N3_11  and  C8_12
REMARK    8  A    between atoms: C8_12  and  C9_13
REMARK    9  A    between atoms: C21_26  and  C22_27
REMARK   10  A    between atoms: C22_27  and  C23_28
REMARK   11  A    between atoms: C23_28  and  C24_30
REMARK   12  A    between atoms: C23_28  and  O5_38
REMARK   13  A    between atoms: C24_30  and  C25_31
REMARK   14  A    between atoms: C25_31  and  C26_33
REMARK   15  A    between atoms: C25_31  and  O4_37
REMARK   16  A    between atoms: C26_33  and  C27_34
REMARK                            x       y       z     vdW  Elec       q    Type
REMARK                         _______ _______ _______ _____ _____    ______ ____
ROOT
ATOM      1  C4  <0> A   1     -15.478   6.943  46.060  0.00  0.00    -0.123 C 
ATOM      2  C5  <0> A   1     -16.393   7.179  47.089  0.00  0.00    +0.056 C 
ATOM      3  N1  <0> A   1     -16.099   8.334  47.631  0.00  0.00    -0.273 NA
ATOM      4  N2  <0> A   1     -15.083   8.867  47.054  0.00  0.00    -0.230 N 
ATOM      5  C6  <0> A   1     -14.636   8.042  46.058  0.00  0.00    -0.035 C 
ENDROOT
BRANCH   4   6
ATOM      6  C15 <0> A   1     -14.517  10.103  47.395  0.00  0.00    +0.120 A 
ATOM      7  C16 <0> A   1     -13.471  10.159  48.306  0.00  0.00    +0.057 A 
ATOM      8  C17 <0> A   1     -12.914  11.378  48.642  0.00  0.00    +0.015 A 
ATOM      9  C18 <0> A   1     -13.398  12.543  48.069  0.00  0.00    +0.109 A 
ATOM     10  C19 <0> A   1     -14.442  12.488  47.161  0.00  0.00    +0.012 A 
ATOM     11  C20 <0> A   1     -14.999  11.271  46.819  0.00  0.00    +0.080 A 
ATOM     12  F1  <0> A   1     -12.853  13.733  48.399  0.00  0.00    -0.132 F 
ENDBRANCH   4   6
BRANCH   5  13
ATOM     13  C7  <0> A   1     -13.493   8.277  45.164  0.00  0.00    +0.602 C 
ATOM     14  O1  <0> A   1     -12.403   7.810  45.434  0.00  0.00    -0.514 OA
ATOM     15  N3  <0> A   1     -13.652   9.010  44.044  0.00  0.00    -0.713 N 
ATOM     16  H10 <0> A   1     -14.502   9.445  43.866  0.00  0.00    +0.405 HD
BRANCH  15  17
ATOM     17  C8  <0> A   1     -12.545   9.152  43.097  0.00  0.00    +0.324 C 
BRANCH  17  18
ATOM     18  C9  <0> A   1     -13.029   9.867  41.861  0.00  0.00    -0.112 A 
ATOM     19  C10 <0> A   1     -13.973  10.870  41.969  0.00  0.00    +0.027 A 
ATOM     20  C11 <0> A   1     -14.417  11.526  40.835  0.00  0.00    +0.004 A 
ATOM     21  C12 <0> A   1     -13.916  11.178  39.595  0.00  0.00    +0.014 A 
ATOM     22  C13 <0> A   1     -12.971  10.174  39.488  0.00  0.00    +0.002 A 
ATOM     23  C14 <0> A   1     -12.524   9.522  40.622  0.00  0.00    +0.024 A 
ENDBRANCH  17  18
ENDBRANCH  15  17
ENDBRANCH   5  13
BRANCH   1  25
ATOM     24  C1  <0> A   1     -15.264   4.474  45.993  0.00  0.00    +0.023 C 
ATOM     25  C2  <0> A   1     -15.415   5.742  45.151  0.00  0.00    +0.066 C 
ATOM     26  C3  <0> A   1     -16.701   5.658  44.328  0.00  0.00    +0.030 C 
ENDBRANCH   1  25
BRANCH   2  27
ATOM     27  C21 <0> A   1     -17.520   6.267  47.500  0.00  0.00    +0.141 C 
BRANCH  27  28
ATOM     28  C22 <0> A   1     -18.852   6.860  47.037  0.00  0.00    -0.007 C 
BRANCH  28  29
ATOM     29  C23 <0> A   1     -19.874   6.766  48.171  0.00  0.00    +0.212 C 
BRANCH  29  30
ATOM     30  O5  <0> A   1     -20.751   5.663  47.932  0.00  0.00    -0.542 OA
ATOM     31  H31 <0> A   1     -21.522   5.639  48.513  0.00  0.00    +0.364 HD
ENDBRANCH  29  30
BRANCH  29  32
ATOM     32  C24 <0> A   1     -19.144   6.557  49.500  0.00  0.00    -0.052 C 
BRANCH  32  33
ATOM     33  C25 <0> A   1     -19.954   7.193  50.632  0.00  0.00    +0.230 C 
BRANCH  33  34
ATOM     34  O4  <0> A   1     -21.141   7.781  50.096  0.00  0.00    -0.528 OA
ATOM     35  H30 <0> A   1     -21.539   8.453  50.667  0.00  0.00    +0.350 HD
ENDBRANCH  33  34
BRANCH  33  36
ATOM     36  C26 <0> A   1     -20.333   6.119  51.653  0.00  0.00    -0.103 C 
BRANCH  36  37
ATOM     37  C27 <0> A   1     -21.692   5.563  51.317  0.00  0.00    +0.490 C 
ATOM     38  O2  <0> A   1     -22.676   5.945  51.928  0.00  0.00    -0.681 OA
ATOM     39  O3  <0> A   1     -21.809   4.732  50.434  0.00  0.00    -0.714 OA
ENDBRANCH  36  37
ENDBRANCH  33  36
ENDBRANCH  32  33
ENDBRANCH  29  32
ENDBRANCH  28  29
ENDBRANCH  27  28
ENDBRANCH   2  27
TORSDOF 14
ENDMDL
MODEL 5
REMARK VINA RESULT:      -8.0      2.727      8.404
REMARK  Name = CHEMBL254036
REMARK  16 active torsions:
REMARK  status: ('A' for Active; 'I' for Inactive)
REMARK    1  A    between atoms: C1_1  and  C2_2
REMARK    2  A    between atoms: C2_2  and  C3_3
REMARK    3  A    between atoms: C2_2  and  C4_4
REMARK    4  A    between atoms: C5_5  and  C21_26
REMARK    5  A    between atoms: N2_7  and  C15_19
REMARK    6  A    between atoms: C6_8  and  C7_9
REMARK    7  A    between atoms: N3_11  and  C8_12
REMARK    8  A    between atoms: C8_12  and  C9_13
REMARK    9  A    between atoms: C21_26  and  C22_27
REMARK   10  A    between atoms: C22_27  and  C23_28
REMARK   11  A    between atoms: C23_28  and  C24_30
REMARK   12  A    between atoms: C23_28  and  O5_38
REMARK   13  A    between atoms: C24_30  and  C25_31
REMARK   14  A    between atoms: C25_31  and  C26_33
REMARK   15  A    between atoms: C25_31  and  O4_37
REMARK   16  A    between atoms: C26_33  and  C27_34
REMARK                            x       y       z     vdW  Elec       q    Type
REMARK                         _______ _______ _______ _____ _____    ______ ____
ROOT
ATOM      1  C4  <0> A   1     -15.519   7.041  46.212  0.00  0.00    -0.123 C 
ATOM      2  C5  <0> A   1     -16.467   7.235  47.219  0.00  0.00    +0.056 C 
ATOM      3  N1  <0> A   1     -16.249   8.409  47.756  0.00  0.00    -0.273 NA
ATOM      4  N2  <0> A   1     -15.252   8.993  47.195  0.00  0.00    -0.230 N 
ATOM      5  C6  <0> A   1     -14.739   8.186  46.217  0.00  0.00    -0.035 C 
ENDROOT
BRANCH   4   6
ATOM      6  C15 <0> A   1     -14.762  10.261  47.535  0.00  0.00    +0.120 A 
ATOM      7  C16 <0> A   1     -15.356  11.400  47.008  0.00  0.00    +0.057 A 
ATOM      8  C17 <0> A   1     -14.871  12.649  47.344  0.00  0.00    +0.015 A 
ATOM      9  C18 <0> A   1     -13.793  12.765  48.206  0.00  0.00    +0.109 A 
ATOM     10  C19 <0> A   1     -13.199  11.630  48.732  0.00  0.00    +0.012 A 
ATOM     11  C20 <0> A   1     -13.684  10.379  48.402  0.00  0.00    +0.080 A 
ATOM     12  F1  <0> A   1     -13.320  13.987  48.533  0.00  0.00    -0.132 F 
ENDBRANCH   4   6
BRANCH   5  13
ATOM     13  C7  <0> A   1     -13.592   8.476  45.343  0.00  0.00    +0.602 C 
ATOM     14  O1  <0> A   1     -12.580   7.806  45.425  0.00  0.00    -0.514 OA
ATOM     15  N3  <0> A   1     -13.662   9.484  44.451  0.00  0.00    -0.713 N 
ATOM     16  H10 <0> A   1     -14.439  10.066  44.436  0.00  0.00    +0.405 HD
BRANCH  15  17
ATOM     17  C8  <0> A   1     -12.565   9.704  43.506  0.00  0.00    +0.324 C 
BRANCH  17  18
ATOM     18  C9  <0> A   1     -13.125  10.163  42.185  0.00  0.00    -0.112 A 
ATOM     19  C10 <0> A   1     -14.108  11.135  42.151  0.00  0.00    +0.027 A 
ATOM     20  C11 <0> A   1     -14.622  11.556  40.938  0.00  0.00    +0.004 A 
ATOM     21  C12 <0> A   1     -14.152  11.005  39.760  0.00  0.00    +0.014 A 
ATOM     22  C13 <0> A   1     -13.170  10.033  39.795  0.00  0.00    +0.002 A 
ATOM     23  C14 <0> A   1     -12.653   9.615  41.007  0.00  0.00    +0.024 A 
ENDBRANCH  17  18
ENDBRANCH  15  17
ENDBRANCH   5  13
BRANCH   1  25
ATOM     24  C1  <0> A   1     -15.179   4.586  46.173  0.00  0.00    +0.023 C 
ATOM     25  C2  <0> A   1     -15.371   5.838  45.316  0.00  0.00    +0.066 C 
ATOM     26  C3  <0> A   1     -16.628   5.682  44.459  0.00  0.00    +0.030 C 
ENDBRANCH   1  25
BRANCH   2  27
ATOM     27  C21 <0> A   1     -17.550   6.266  47.616  0.00  0.00    +0.141 C 
BRANCH  27  28
ATOM     28  C22 <0> A   1     -18.914   6.831  47.216  0.00  0.00    -0.007 C 
BRANCH  28  29
ATOM     29  C23 <0> A   1     -19.898   6.658  48.374  0.00  0.00    +0.212 C 
BRANCH  29  30
ATOM     30  O5  <0> A   1     -20.785   5.576  48.087  0.00  0.00    -0.542 OA
ATOM     31  H31 <0> A   1     -21.681   5.700  48.429  0.00  0.00    +0.364 HD
ENDBRANCH  29  30
BRANCH  29  32
ATOM     32  C24 <0> A   1     -19.124   6.356  49.660  0.00  0.00    -0.052 C 
BRANCH  32  33
ATOM     33  C25 <0> A   1     -19.372   7.470  50.678  0.00  0.00    +0.230 C 
BRANCH  33  34
ATOM     34  O4  <0> A   1     -18.902   8.712  50.149  0.00  0.00    -0.528 OA
ATOM     35  H30 <0> A   1     -19.592   9.250  49.737  0.00  0.00    +0.350 HD
ENDBRANCH  33  34
BRANCH  33  36
ATOM     36  C26 <0> A   1     -20.871   7.574  50.967  0.00  0.00    -0.103 C 
BRANCH  36  37
ATOM     37  C27 <0> A   1     -21.311   9.008  50.832  0.00  0.00    +0.490 C 
ATOM     38  O2  <0> A   1     -21.962   9.357  49.862  0.00  0.00    -0.681 OA
ATOM     39  O3  <0> A   1     -21.017   9.820  51.692  0.00  0.00    -0.714 OA
ENDBRANCH  36  37
ENDBRANCH  33  36
ENDBRANCH  32  33
ENDBRANCH  29  32
ENDBRANCH  28  29
ENDBRANCH  27  28
ENDBRANCH   2  27
TORSDOF 14
ENDMDL
MODEL 6
REMARK VINA RESULT:      -7.9     15.228     18.811
REMARK  Name = CHEMBL254036
REMARK  16 active torsions:
REMARK  status: ('A' for Active; 'I' for Inactive)
REMARK    1  A    between atoms: C1_1  and  C2_2
REMARK    2  A    between atoms: C2_2  and  C3_3
REMARK    3  A    between atoms: C2_2  and  C4_4
REMARK    4  A    between atoms: C5_5  and  C21_26
REMARK    5  A    between atoms: N2_7  and  C15_19
REMARK    6  A    between atoms: C6_8  and  C7_9
REMARK    7  A    between atoms: N3_11  and  C8_12
REMARK    8  A    between atoms: C8_12  and  C9_13
REMARK    9  A    between atoms: C21_26  and  C22_27
REMARK   10  A    between atoms: C22_27  and  C23_28
REMARK   11  A    between atoms: C23_28  and  C24_30
REMARK   12  A    between atoms: C23_28  and  O5_38
REMARK   13  A    between atoms: C24_30  and  C25_31
REMARK   14  A    between atoms: C25_31  and  C26_33
REMARK   15  A    between atoms: C25_31  and  O4_37
REMARK   16  A    between atoms: C26_33  and  C27_34
REMARK                            x       y       z     vdW  Elec       q    Type
REMARK                         _______ _______ _______ _____ _____    ______ ____
ROOT
ATOM      1  C4  <0> A   1     -26.610  -5.164  51.628  0.00  0.00    -0.123 C 
ATOM      2  C5  <0> A   1     -25.292  -5.441  51.254  0.00  0.00    +0.056 C 
ATOM      3  N1  <0> A   1     -24.644  -4.305  51.195  0.00  0.00    -0.273 NA
ATOM      4  N2  <0> A   1     -25.413  -3.321  51.495  0.00  0.00    -0.230 N 
ATOM      5  C6  <0> A   1     -26.669  -3.789  51.773  0.00  0.00    -0.035 C 
ENDROOT
BRANCH   4   6
ATOM      6  C15 <0> A   1     -25.028  -1.974  51.528  0.00  0.00    +0.120 A 
ATOM      7  C16 <0> A   1     -24.696  -1.318  50.351  0.00  0.00    +0.057 A 
ATOM      8  C17 <0> A   1     -24.315   0.009  50.385  0.00  0.00    +0.015 A 
ATOM      9  C18 <0> A   1     -24.264   0.685  51.594  0.00  0.00    +0.109 A 
ATOM     10  C19 <0> A   1     -24.593   0.031  52.769  0.00  0.00    +0.012 A 
ATOM     11  C20 <0> A   1     -24.980  -1.295  52.739  0.00  0.00    +0.080 A 
ATOM     12  F1  <0> A   1     -23.890   1.982  51.625  0.00  0.00    -0.132 F 
ENDBRANCH   4   6
BRANCH   5  13
ATOM     13  C7  <0> A   1     -27.844  -2.991  52.153  0.00  0.00    +0.602 C 
ATOM     14  O1  <0> A   1     -28.224  -2.979  53.309  0.00  0.00    -0.514 OA
ATOM     15  N3  <0> A   1     -28.502  -2.273  51.221  0.00  0.00    -0.713 N 
ATOM     16  H10 <0> A   1     -28.246  -2.340  50.287  0.00  0.00    +0.405 HD
BRANCH  15  17
ATOM     17  C8  <0> A   1     -29.603  -1.392  51.616  0.00  0.00    +0.324 C 
BRANCH  17  18
ATOM     18  C9  <0> A   1     -29.153   0.044  51.530  0.00  0.00    -0.112 A 
ATOM     19  C10 <0> A   1     -29.912   1.041  52.114  0.00  0.00    +0.027 A 
ATOM     20  C11 <0> A   1     -29.499   2.359  52.036  0.00  0.00    +0.004 A 
ATOM     21  C12 <0> A   1     -28.328   2.678  51.373  0.00  0.00    +0.014 A 
ATOM     22  C13 <0> A   1     -27.571   1.680  50.790  0.00  0.00    +0.002 A 
ATOM     23  C14 <0> A   1     -27.980   0.362  50.872  0.00  0.00    +0.024 A 
ENDBRANCH  17  18
ENDBRANCH  15  17
ENDBRANCH   5  13
BRANCH   1  25
ATOM     24  C1  <0> A   1     -28.075  -6.243  53.312  0.00  0.00    +0.023 C 
ATOM     25  C2  <0> A   1     -27.730  -6.153  51.825  0.00  0.00    +0.066 C 
ATOM     26  C3  <0> A   1     -28.961  -5.693  51.043  0.00  0.00    +0.030 C 
ENDBRANCH   1  25
BRANCH   2  27
ATOM     27  C21 <0> A   1     -24.719  -6.805  50.968  0.00  0.00    +0.141 C 
BRANCH  27  28
ATOM     28  C22 <0> A   1     -25.065  -7.214  49.535  0.00  0.00    -0.007 C 
BRANCH  28  29
ATOM     29  C23 <0> A   1     -24.151  -8.360  49.098  0.00  0.00    +0.212 C 
BRANCH  29  30
ATOM     30  O5  <0> A   1     -23.102  -7.845  48.275  0.00  0.00    -0.542 OA
ATOM     31  H31 <0> A   1     -23.332  -7.781  47.339  0.00  0.00    +0.364 HD
ENDBRANCH  29  30
BRANCH  29  32
ATOM     32  C24 <0> A   1     -23.547  -9.031  50.333  0.00  0.00    -0.052 C 
BRANCH  32  33
ATOM     33  C25 <0> A   1     -24.058 -10.469  50.434  0.00  0.00    +0.230 C 
BRANCH  33  34
ATOM     34  O4  <0> A   1     -25.484 -10.464  50.508  0.00  0.00    -0.528 OA
ATOM     35  H30 <0> A   1     -25.870 -11.324  50.725  0.00  0.00    +0.350 HD
ENDBRANCH  33  34
BRANCH  33  36
ATOM     36  C26 <0> A   1     -23.614 -11.256  49.198  0.00  0.00    -0.103 C 
BRANCH  36  37
ATOM     37  C27 <0> A   1     -24.729 -12.167  48.755  0.00  0.00    +0.490 C 
ATOM     38  O2  <0> A   1     -24.946 -13.204  49.359  0.00  0.00    -0.681 OA
ATOM     39  O3  <0> A   1     -25.415 -11.867  47.794  0.00  0.00    -0.714 OA
ENDBRANCH  36  37
ENDBRANCH  33  36
ENDBRANCH  32  33
ENDBRANCH  29  32
ENDBRANCH  28  29
ENDBRANCH  27  28
ENDBRANCH   2  27
TORSDOF 14
ENDMDL
MODEL 7
REMARK VINA RESULT:      -7.9     15.203     18.900
REMARK  Name = CHEMBL254036
REMARK  16 active torsions:
REMARK  status: ('A' for Active; 'I' for Inactive)
REMARK    1  A    between atoms: C1_1  and  C2_2
REMARK    2  A    between atoms: C2_2  and  C3_3
REMARK    3  A    between atoms: C2_2  and  C4_4
REMARK    4  A    between atoms: C5_5  and  C21_26
REMARK    5  A    between atoms: N2_7  and  C15_19
REMARK    6  A    between atoms: C6_8  and  C7_9
REMARK    7  A    between atoms: N3_11  and  C8_12
REMARK    8  A    between atoms: C8_12  and  C9_13
REMARK    9  A    between atoms: C21_26  and  C22_27
REMARK   10  A    between atoms: C22_27  and  C23_28
REMARK   11  A    between atoms: C23_28  and  C24_30
REMARK   12  A    between atoms: C23_28  and  O5_38
REMARK   13  A    between atoms: C24_30  and  C25_31
REMARK   14  A    between atoms: C25_31  and  C26_33
REMARK   15  A    between atoms: C25_31  and  O4_37
REMARK   16  A    between atoms: C26_33  and  C27_34
REMARK                            x       y       z     vdW  Elec       q    Type
REMARK                         _______ _______ _______ _____ _____    ______ ____
ROOT
ATOM      1  C4  <0> A   1     -27.003  -5.287  51.250  0.00  0.00    -0.123 C 
ATOM      2  C5  <0> A   1     -25.730  -5.805  51.502  0.00  0.00    +0.056 C 
ATOM      3  N1  <0> A   1     -24.893  -4.801  51.563  0.00  0.00    -0.273 NA
ATOM      4  N2  <0> A   1     -25.499  -3.684  51.377  0.00  0.00    -0.230 N 
ATOM      5  C6  <0> A   1     -26.831  -3.916  51.167  0.00  0.00    -0.035 C 
ENDROOT
BRANCH   4   6
ATOM      6  C15 <0> A   1     -24.890  -2.423  51.383  0.00  0.00    +0.120 A 
ATOM      7  C16 <0> A   1     -24.452  -1.869  52.578  0.00  0.00    +0.057 A 
ATOM      8  C17 <0> A   1     -23.852  -0.625  52.583  0.00  0.00    +0.015 A 
ATOM      9  C18 <0> A   1     -23.687   0.070  51.395  0.00  0.00    +0.109 A 
ATOM     10  C19 <0> A   1     -24.124  -0.481  50.202  0.00  0.00    +0.012 A 
ATOM     11  C20 <0> A   1     -24.721  -1.727  50.193  0.00  0.00    +0.080 A 
ATOM     12  F1  <0> A   1     -23.101   1.286  51.401  0.00  0.00    -0.132 F 
ENDBRANCH   4   6
BRANCH   5  13
ATOM     13  C7  <0> A   1     -27.872  -2.910  50.907  0.00  0.00    +0.602 C 
ATOM     14  O1  <0> A   1     -28.366  -2.817  49.799  0.00  0.00    -0.514 OA
ATOM     15  N3  <0> A   1     -28.280  -2.091  51.897  0.00  0.00    -0.713 N 
ATOM     16  H10 <0> A   1     -27.836  -2.113  52.759  0.00  0.00    +0.405 HD
BRANCH  15  17
ATOM     17  C8  <0> A   1     -29.392  -1.166  51.671  0.00  0.00    +0.324 C 
BRANCH  17  18
ATOM     18  C9  <0> A   1     -28.867   0.245  51.603  0.00  0.00    -0.112 A 
ATOM     19  C10 <0> A   1     -29.742   1.313  51.675  0.00  0.00    +0.027 A 
ATOM     20  C11 <0> A   1     -29.260   2.607  51.613  0.00  0.00    +0.004 A 
ATOM     21  C12 <0> A   1     -27.903   2.834  51.479  0.00  0.00    +0.014 A 
ATOM     22  C13 <0> A   1     -27.028   1.766  51.407  0.00  0.00    +0.002 A 
ATOM     23  C14 <0> A   1     -27.509   0.471  51.474  0.00  0.00    +0.024 A 
ENDBRANCH  17  18
ENDBRANCH  15  17
ENDBRANCH   5  13
BRANCH   1  25
ATOM     24  C1  <0> A   1     -28.234  -6.885  49.809  0.00  0.00    +0.023 C 
ATOM     25  C2  <0> A   1     -28.288  -6.059  51.095  0.00  0.00    +0.066 C 
ATOM     26  C3  <0> A   1     -28.472  -6.991  52.293  0.00  0.00    +0.030 C 
ENDBRANCH   1  25
BRANCH   2  27
ATOM     27  C21 <0> A   1     -25.383  -7.261  51.672  0.00  0.00    +0.141 C 
BRANCH  27  28
ATOM     28  C22 <0> A   1     -24.160  -7.598  50.817  0.00  0.00    -0.007 C 
BRANCH  28  29
ATOM     29  C23 <0> A   1     -24.568  -7.660  49.344  0.00  0.00    +0.212 C 
BRANCH  29  30
ATOM     30  O5  <0> A   1     -23.401  -7.571  48.523  0.00  0.00    -0.542 OA
ATOM     31  H31 <0> A   1     -23.508  -7.004  47.748  0.00  0.00    +0.364 HD
ENDBRANCH  29  30
BRANCH  29  32
ATOM     32  C24 <0> A   1     -25.285  -8.983  49.069  0.00  0.00    -0.052 C 
BRANCH  32  33
ATOM     33  C25 <0> A   1     -24.738 -10.063  50.004  0.00  0.00    +0.230 C 
BRANCH  33  34
ATOM     34  O4  <0> A   1     -25.825 -10.786  50.584  0.00  0.00    -0.528 OA
ATOM     35  H30 <0> A   1     -26.182 -10.383  51.387  0.00  0.00    +0.350 HD
ENDBRANCH  33  34
BRANCH  33  36
ATOM     36  C26 <0> A   1     -23.852 -11.025  49.209  0.00  0.00    -0.103 C 
BRANCH  36  37
ATOM     37  C27 <0> A   1     -24.601 -12.308  48.959  0.00  0.00    +0.490 C 
ATOM     38  O2  <0> A   1     -24.464 -13.252  49.718  0.00  0.00    -0.681 OA
ATOM     39  O3  <0> A   1     -25.344 -12.402  47.997  0.00  0.00    -0.714 OA
ENDBRANCH  36  37
ENDBRANCH  33  36
ENDBRANCH  32  33
ENDBRANCH  29  32
ENDBRANCH  28  29
ENDBRANCH  27  28
ENDBRANCH   2  27
TORSDOF 14
ENDMDL
MODEL 8
REMARK VINA RESULT:      -7.9     15.845     19.764
REMARK  Name = CHEMBL254036
REMARK  16 active torsions:
REMARK  status: ('A' for Active; 'I' for Inactive)
REMARK    1  A    between atoms: C1_1  and  C2_2
REMARK    2  A    between atoms: C2_2  and  C3_3
REMARK    3  A    between atoms: C2_2  and  C4_4
REMARK    4  A    between atoms: C5_5  and  C21_26
REMARK    5  A    between atoms: N2_7  and  C15_19
REMARK    6  A    between atoms: C6_8  and  C7_9
REMARK    7  A    between atoms: N3_11  and  C8_12
REMARK    8  A    between atoms: C8_12  and  C9_13
REMARK    9  A    between atoms: C21_26  and  C22_27
REMARK   10  A    between atoms: C22_27  and  C23_28
REMARK   11  A    between atoms: C23_28  and  C24_30
REMARK   12  A    between atoms: C23_28  and  O5_38
REMARK   13  A    between atoms: C24_30  and  C25_31
REMARK   14  A    between atoms: C25_31  and  C26_33
REMARK   15  A    between atoms: C25_31  and  O4_37
REMARK   16  A    between atoms: C26_33  and  C27_34
REMARK                            x       y       z     vdW  Elec       q    Type
REMARK                         _______ _______ _______ _____ _____    ______ ____
ROOT
ATOM      1  C4  <0> A   1     -26.291  -4.319  50.842  0.00  0.00    -0.123 C 
ATOM      2  C5  <0> A   1     -24.939  -3.985  50.943  0.00  0.00    +0.056 C 
ATOM      3  N1  <0> A   1     -24.239  -5.074  50.747  0.00  0.00    -0.273 NA
ATOM      4  N2  <0> A   1     -25.008  -6.080  50.528  0.00  0.00    -0.230 N 
ATOM      5  C6  <0> A   1     -26.315  -5.679  50.580  0.00  0.00    -0.035 C 
ENDROOT
BRANCH   4   6
ATOM      6  C15 <0> A   1     -24.574  -7.389  50.280  0.00  0.00    +0.120 A 
ATOM      7  C16 <0> A   1     -24.217  -8.215  51.337  0.00  0.00    +0.057 A 
ATOM      8  C17 <0> A   1     -23.789  -9.505  51.090  0.00  0.00    +0.015 A 
ATOM      9  C18 <0> A   1     -23.717  -9.974  49.788  0.00  0.00    +0.109 A 
ATOM     10  C19 <0> A   1     -24.072  -9.152  48.733  0.00  0.00    +0.012 A 
ATOM     11  C20 <0> A   1     -24.505  -7.862  48.976  0.00  0.00    +0.080 A 
ATOM     12  F1  <0> A   1     -23.297 -11.235  49.549  0.00  0.00    -0.132 F 
ENDBRANCH   4   6
BRANCH   5  13
ATOM     13  C7  <0> A   1     -27.505  -6.521  50.391  0.00  0.00    +0.602 C 
ATOM     14  O1  <0> A   1     -27.986  -6.655  49.282  0.00  0.00    -0.514 OA
ATOM     15  N3  <0> A   1     -28.065  -7.144  51.448  0.00  0.00    -0.713 N 
ATOM     16  H10 <0> A   1     -27.728  -6.979  52.343  0.00  0.00    +0.405 HD
BRANCH  15  17
ATOM     17  C8  <0> A   1     -29.181  -8.070  51.246  0.00  0.00    +0.324 C 
BRANCH  17  18
ATOM     18  C9  <0> A   1     -29.745  -8.477  52.583  0.00  0.00    -0.112 A 
ATOM     19  C10 <0> A   1     -30.016  -9.807  52.843  0.00  0.00    +0.027 A 
ATOM     20  C11 <0> A   1     -30.533 -10.181  54.069  0.00  0.00    +0.004 A 
ATOM     21  C12 <0> A   1     -30.779  -9.223  55.036  0.00  0.00    +0.014 A 
ATOM     22  C13 <0> A   1     -30.508  -7.893  54.775  0.00  0.00    +0.002 A 
ATOM     23  C14 <0> A   1     -29.986  -7.520  53.551  0.00  0.00    +0.024 A 
ENDBRANCH  17  18
ENDBRANCH  15  17
ENDBRANCH   5  13
BRANCH   1  25
ATOM     24  C1  <0> A   1     -27.421  -2.723  52.366  0.00  0.00    +0.023 C 
ATOM     25  C2  <0> A   1     -27.474  -3.397  50.994  0.00  0.00    +0.066 C 
ATOM     26  C3  <0> A   1     -27.432  -2.329  49.899  0.00  0.00    +0.030 C 
ENDBRANCH   1  25
BRANCH   2  27
ATOM     27  C21 <0> A   1     -24.383  -2.614  51.228  0.00  0.00    +0.141 C 
BRANCH  27  28
ATOM     28  C22 <0> A   1     -22.932  -2.541  50.747  0.00  0.00    -0.007 C 
BRANCH  28  29
ATOM     29  C23 <0> A   1     -22.026  -2.150  51.915  0.00  0.00    +0.212 C 
BRANCH  29  30
ATOM     30  O5  <0> A   1     -22.754  -2.258  53.140  0.00  0.00    -0.542 OA
ATOM     31  H31 <0> A   1     -23.110  -3.140  53.309  0.00  0.00    +0.364 HD
ENDBRANCH  29  30
BRANCH  29  32
ATOM     32  C24 <0> A   1     -20.816  -3.085  51.957  0.00  0.00    -0.052 C 
BRANCH  32  33
ATOM     33  C25 <0> A   1     -20.470  -3.406  53.413  0.00  0.00    +0.230 C 
BRANCH  33  34
ATOM     34  O4  <0> A   1     -20.970  -4.703  53.746  0.00  0.00    -0.528 OA
ATOM     35  H30 <0> A   1     -21.916  -4.720  53.946  0.00  0.00    +0.350 HD
ENDBRANCH  33  34
BRANCH  33  36
ATOM     36  C26 <0> A   1     -18.951  -3.383  53.593  0.00  0.00    -0.103 C 
BRANCH  36  37
ATOM     37  C27 <0> A   1     -18.487  -4.714  54.125  0.00  0.00    +0.490 C 
ATOM     38  O2  <0> A   1     -18.233  -5.623  53.353  0.00  0.00    -0.681 OA
ATOM     39  O3  <0> A   1     -18.367  -4.883  55.326  0.00  0.00    -0.714 OA
ENDBRANCH  36  37
ENDBRANCH  33  36
ENDBRANCH  32  33
ENDBRANCH  29  32
ENDBRANCH  28  29
ENDBRANCH  27  28
ENDBRANCH   2  27
TORSDOF 14
ENDMDL
MODEL 9
REMARK VINA RESULT:      -7.9      1.664      2.579
REMARK  Name = CHEMBL254036
REMARK  16 active torsions:
REMARK  status: ('A' for Active; 'I' for Inactive)
REMARK    1  A    between atoms: C1_1  and  C2_2
REMARK    2  A    between atoms: C2_2  and  C3_3
REMARK    3  A    between atoms: C2_2  and  C4_4
REMARK    4  A    between atoms: C5_5  and  C21_26
REMARK    5  A    between atoms: N2_7  and  C15_19
REMARK    6  A    between atoms: C6_8  and  C7_9
REMARK    7  A    between atoms: N3_11  and  C8_12
REMARK    8  A    between atoms: C8_12  and  C9_13
REMARK    9  A    between atoms: C21_26  and  C22_27
REMARK   10  A    between atoms: C22_27  and  C23_28
REMARK   11  A    between atoms: C23_28  and  C24_30
REMARK   12  A    between atoms: C23_28  and  O5_38
REMARK   13  A    between atoms: C24_30  and  C25_31
REMARK   14  A    between atoms: C25_31  and  C26_33
REMARK   15  A    between atoms: C25_31  and  O4_37
REMARK   16  A    between atoms: C26_33  and  C27_34
REMARK                            x       y       z     vdW  Elec       q    Type
REMARK                         _______ _______ _______ _____ _____    ______ ____
ROOT
ATOM      1  C4  <0> A   1     -15.008   6.655  45.428  0.00  0.00    -0.123 C 
ATOM      2  C5  <0> A   1     -14.035   7.120  44.540  0.00  0.00    +0.056 C 
ATOM      3  N1  <0> A   1     -13.689   8.325  44.918  0.00  0.00    -0.273 NA
ATOM      4  N2  <0> A   1     -14.343   8.684  45.964  0.00  0.00    -0.230 N 
ATOM      5  C6  <0> A   1     -15.197   7.682  46.337  0.00  0.00    -0.035 C 
ENDROOT
BRANCH   4   6
ATOM      6  C15 <0> A   1     -14.206   9.915  46.620  0.00  0.00    +0.120 A 
ATOM      7  C16 <0> A   1     -15.109  10.939  46.369  0.00  0.00    +0.057 A 
ATOM      8  C17 <0> A   1     -14.972  12.152  47.015  0.00  0.00    +0.015 A 
ATOM      9  C18 <0> A   1     -13.935  12.346  47.914  0.00  0.00    +0.109 A 
ATOM     10  C19 <0> A   1     -13.034  11.325  48.164  0.00  0.00    +0.012 A 
ATOM     11  C20 <0> A   1     -13.170  10.109  47.523  0.00  0.00    +0.080 A 
ATOM     12  F1  <0> A   1     -13.803  13.533  48.544  0.00  0.00    -0.132 F 
ENDBRANCH   4   6
BRANCH   5  13
ATOM     13  C7  <0> A   1     -16.127   7.693  47.476  0.00  0.00    +0.602 C 
ATOM     14  O1  <0> A   1     -17.310   7.911  47.293  0.00  0.00    -0.514 OA
ATOM     15  N3  <0> A   1     -15.669   7.462  48.722  0.00  0.00    -0.713 N 
ATOM     16  H10 <0> A   1     -14.717   7.362  48.879  0.00  0.00    +0.405 HD
BRANCH  15  17
ATOM     17  C8  <0> A   1     -16.608   7.362  49.841  0.00  0.00    +0.324 C 
BRANCH  17  18
ATOM     18  C9  <0> A   1     -16.415   8.535  50.766  0.00  0.00    -0.112 A 
ATOM     19  C10 <0> A   1     -17.349   8.802  51.750  0.00  0.00    +0.027 A 
ATOM     20  C11 <0> A   1     -17.172   9.878  52.599  0.00  0.00    +0.004 A 
ATOM     21  C12 <0> A   1     -16.059  10.689  52.464  0.00  0.00    +0.014 A 
ATOM     22  C13 <0> A   1     -15.125  10.422  51.481  0.00  0.00    +0.002 A 
ATOM     23  C14 <0> A   1     -15.300   9.342  50.635  0.00  0.00    +0.024 A 
ENDBRANCH  17  18
ENDBRANCH  15  17
ENDBRANCH   5  13
BRANCH   1  25
ATOM     24  C1  <0> A   1     -16.548   5.214  44.125  0.00  0.00    +0.023 C 
ATOM     25  C2  <0> A   1     -15.707   5.320  45.398  0.00  0.00    +0.066 C 
ATOM     26  C3  <0> A   1     -14.668   4.198  45.418  0.00  0.00    +0.030 C 
ENDBRANCH   1  25
BRANCH   2  27
ATOM     27  C21 <0> A   1     -13.482   6.369  43.357  0.00  0.00    +0.141 C 
BRANCH  27  28
ATOM     28  C22 <0> A   1     -13.811   7.129  42.070  0.00  0.00    -0.007 C 
BRANCH  28  29
ATOM     29  C23 <0> A   1     -12.515   7.612  41.417  0.00  0.00    +0.212 C 
BRANCH  29  30
ATOM     30  O5  <0> A   1     -11.483   6.649  41.638  0.00  0.00    -0.542 OA
ATOM     31  H31 <0> A   1     -11.196   6.584  42.558  0.00  0.00    +0.364 HD
ENDBRANCH  29  30
BRANCH  29  32
ATOM     32  C24 <0> A   1     -12.736   7.786  39.913  0.00  0.00    -0.052 C 
BRANCH  32  33
ATOM     33  C25 <0> A   1     -12.371   9.215  39.506  0.00  0.00    +0.230 C 
BRANCH  33  34
ATOM     34  O4  <0> A   1     -12.770   9.441  38.153  0.00  0.00    -0.528 OA
ATOM     35  H30 <0> A   1     -13.698   9.695  38.053  0.00  0.00    +0.350 HD
ENDBRANCH  33  34
BRANCH  33  36
ATOM     36  C26 <0> A   1     -13.091  10.206  40.423  0.00  0.00    -0.103 C 
BRANCH  36  37
ATOM     37  C27 <0> A   1     -13.877  11.184  39.587  0.00  0.00    +0.490 C 
ATOM     38  O2  <0> A   1     -15.095  11.134  39.576  0.00  0.00    -0.681 OA
ATOM     39  O3  <0> A   1     -13.295  12.024  38.924  0.00  0.00    -0.714 OA
ENDBRANCH  36  37
ENDBRANCH  33  36
ENDBRANCH  32  33
ENDBRANCH  29  32
ENDBRANCH  28  29
ENDBRANCH  27  28
ENDBRANCH   2  27
TORSDOF 14
ENDMDL
MODEL 10
REMARK VINA RESULT:      -7.8      1.803      2.407
REMARK  Name = CHEMBL254036
REMARK  16 active torsions:
REMARK  status: ('A' for Active; 'I' for Inactive)
REMARK    1  A    between atoms: C1_1  and  C2_2
REMARK    2  A    between atoms: C2_2  and  C3_3
REMARK    3  A    between atoms: C2_2  and  C4_4
REMARK    4  A    between atoms: C5_5  and  C21_26
REMARK    5  A    between atoms: N2_7  and  C15_19
REMARK    6  A    between atoms: C6_8  and  C7_9
REMARK    7  A    between atoms: N3_11  and  C8_12
REMARK    8  A    between atoms: C8_12  and  C9_13
REMARK    9  A    between atoms: C21_26  and  C22_27
REMARK   10  A    between atoms: C22_27  and  C23_28
REMARK   11  A    between atoms: C23_28  and  C24_30
REMARK   12  A    between atoms: C23_28  and  O5_38
REMARK   13  A    between atoms: C24_30  and  C25_31
REMARK   14  A    between atoms: C25_31  and  C26_33
REMARK   15  A    between atoms: C25_31  and  O4_37
REMARK   16  A    between atoms: C26_33  and  C27_34
REMARK                            x       y       z     vdW  Elec       q    Type
REMARK                         _______ _______ _______ _____ _____    ______ ____
ROOT
ATOM      1  C4  <0> A   1     -14.965   6.558  45.427  0.00  0.00    -0.123 C 
ATOM      2  C5  <0> A   1     -13.870   7.412  45.274  0.00  0.00    +0.056 C 
ATOM      3  N1  <0> A   1     -13.919   8.304  46.231  0.00  0.00    -0.273 NA
ATOM      4  N2  <0> A   1     -14.939   8.110  46.988  0.00  0.00    -0.230 N 
ATOM      5  C6  <0> A   1     -15.646   7.029  46.536  0.00  0.00    -0.035 C 
ENDROOT
BRANCH   4   6
ATOM      6  C15 <0> A   1     -15.277   8.889  48.103  0.00  0.00    +0.120 A 
ATOM      7  C16 <0> A   1     -14.680   8.639  49.331  0.00  0.00    +0.057 A 
ATOM      8  C17 <0> A   1     -15.015   9.407  50.429  0.00  0.00    +0.015 A 
ATOM      9  C18 <0> A   1     -15.947  10.426  50.305  0.00  0.00    +0.109 A 
ATOM     10  C19 <0> A   1     -16.543  10.674  49.081  0.00  0.00    +0.012 A 
ATOM     11  C20 <0> A   1     -16.207   9.912  47.979  0.00  0.00    +0.080 A 
ATOM     12  F1  <0> A   1     -16.274  11.174  51.380  0.00  0.00    -0.132 F 
ENDBRANCH   4   6
BRANCH   5  13
ATOM     13  C7  <0> A   1     -16.881   6.478  47.115  0.00  0.00    +0.602 C 
ATOM     14  O1  <0> A   1     -17.932   6.578  46.512  0.00  0.00    -0.514 OA
ATOM     15  N3  <0> A   1     -16.847   5.861  48.313  0.00  0.00    -0.713 N 
ATOM     16  H10 <0> A   1     -16.025   5.846  48.828  0.00  0.00    +0.405 HD
BRANCH  15  17
ATOM     17  C8  <0> A   1     -18.051   5.215  48.838  0.00  0.00    +0.324 C 
BRANCH  17  18
ATOM     18  C9  <0> A   1     -18.807   6.188  49.705  0.00  0.00    -0.112 A 
ATOM     19  C10 <0> A   1     -18.135   7.223  50.330  0.00  0.00    +0.027 A 
ATOM     20  C11 <0> A   1     -18.828   8.116  51.125  0.00  0.00    +0.004 A 
ATOM     21  C12 <0> A   1     -20.193   7.976  51.295  0.00  0.00    +0.014 A 
ATOM     22  C13 <0> A   1     -20.864   6.941  50.670  0.00  0.00    +0.002 A 
ATOM     23  C14 <0> A   1     -20.172   6.050  49.871  0.00  0.00    +0.024 A 
ENDBRANCH  17  18
ENDBRANCH  15  17
ENDBRANCH   5  13
BRANCH   1  25
ATOM     24  C1  <0> A   1     -15.497   4.136  45.441  0.00  0.00    +0.023 C 
ATOM     25  C2  <0> A   1     -15.330   5.378  44.564  0.00  0.00    +0.066 C 
ATOM     26  C3  <0> A   1     -16.643   5.666  43.834  0.00  0.00    +0.030 C 
ENDBRANCH   1  25
BRANCH   2  27
ATOM     27  C21 <0> A   1     -12.818   7.322  44.199  0.00  0.00    +0.141 C 
BRANCH  27  28
ATOM     28  C22 <0> A   1     -13.400   7.816  42.873  0.00  0.00    -0.007 C 
BRANCH  28  29
ATOM     29  C23 <0> A   1     -12.321   7.761  41.790  0.00  0.00    +0.212 C 
BRANCH  29  30
ATOM     30  O5  <0> A   1     -11.656   6.497  41.845  0.00  0.00    -0.542 OA
ATOM     31  H31 <0> A   1     -11.027   6.415  42.574  0.00  0.00    +0.364 HD
ENDBRANCH  29  30
BRANCH  29  32
ATOM     32  C24 <0> A   1     -12.970   7.936  40.415  0.00  0.00    -0.052 C 
BRANCH  32  33
ATOM     33  C25 <0> A   1     -12.467   9.232  39.776  0.00  0.00    +0.230 C 
BRANCH  33  34
ATOM     34  O4  <0> A   1     -12.866   9.272  38.404  0.00  0.00    -0.528 OA
ATOM     35  H30 <0> A   1     -13.369  10.063  38.164  0.00  0.00    +0.350 HD
ENDBRANCH  33  34
BRANCH  33  36
ATOM     36  C26 <0> A   1     -13.063  10.431  40.516  0.00  0.00    -0.103 C 
BRANCH  36  37
ATOM     37  C27 <0> A   1     -13.876  11.261  39.557  0.00  0.00    +0.490 C 
ATOM     38  O2  <0> A   1     -13.318  12.016  38.779  0.00  0.00    -0.681 OA
ATOM     39  O3  <0> A   1     -15.092  11.177  39.558  0.00  0.00    -0.714 OA
ENDBRANCH  36  37
ENDBRANCH  33  36
ENDBRANCH  32  33
ENDBRANCH  29  32
ENDBRANCH  28  29
ENDBRANCH  27  28
ENDBRANCH   2  27
TORSDOF 14
ENDMDL
