REMARK VINA RESULT:      -8.6      0.000      0.000
REMARK  Name = CHEMBL121965
REMARK  12 active torsions:
REMARK  status: ('A' for Active; 'I' for Inactive)
REMARK    1  A    between atoms: C4_4  and  C7_7
REMARK    2  A    between atoms: C7_7  and  C8_8
REMARK    3  A    between atoms: C8_8  and  C9_9
REMARK    4  A    between atoms: N2_16  and  C23_31
REMARK    5  A    between atoms: C15_17  and  C16_18
REMARK    6  A    between atoms: C17_19  and  C18_20
REMARK    7  A    between atoms: C18_20  and  C19_22
REMARK    8  A    between atoms: C18_20  and  O4_30
REMARK    9  A    between atoms: C19_22  and  C20_23
REMARK   10  A    between atoms: C20_23  and  C21_25
REMARK   11  A    between atoms: C20_23  and  O3_29
REMARK   12  A    between atoms: C21_25  and  C22_26
REMARK                            x       y       z     vdW  Elec       q    Type
REMARK                         _______ _______ _______ _____ _____    ______ ____
ROOT
ATOM      1  C9  <0> A   1     -16.679   6.320  47.042  0.00  0.00    +0.085 C 
ATOM      2  C10 <0> A   1     -16.404   4.851  46.698  0.00  0.00    +0.028 C 
ATOM      3  C11 <0> A   1     -16.176   4.706  45.192  0.00  0.00    +0.016 C 
ATOM      4  C12 <0> A   1     -14.820   5.316  44.813  0.00  0.00    +0.104 C 
ATOM      5  C13 <0> A   1     -14.745   6.701  45.403  0.00  0.00    -0.212 C 
ATOM      6  C14 <0> A   1     -15.592   7.164  46.419  0.00  0.00    +0.096 C 
ATOM      7  N1  <0> A   1     -15.270   8.394  46.701  0.00  0.00    -0.278 NA
ATOM      8  N2  <0> A   1     -14.200   8.781  45.882  0.00  0.00    -0.329 N 
ATOM      9  C15 <0> A   1     -13.883   7.718  45.079  0.00  0.00    +0.127 C 
ENDROOT
BRANCH   8  10
ATOM     10  C23 <0> A   1     -13.569  10.032  45.883  0.00  0.00    +0.148 A 
ATOM     11  C24 <0> A   1     -14.041  11.051  45.067  0.00  0.00    +0.048 A 
ATOM     12  C25 <0> A   1     -13.417  12.282  45.070  0.00  0.00    +0.018 A 
ATOM     13  C26 <0> A   1     -12.321  12.503  45.887  0.00  0.00    +0.097 A 
ATOM     14  C27 <0> A   1     -11.848  11.487  46.701  0.00  0.00    +0.008 A 
ATOM     15  C28 <0> A   1     -12.473  10.256  46.706  0.00  0.00    +0.055 A 
ATOM     16  F1  <0> A   1     -11.712  13.708  45.888  0.00  0.00    -0.135 F 
ENDBRANCH   8  10
BRANCH   9  17
ATOM     17  C16 <0> A   1     -12.818   7.674  44.062  0.00  0.00    +0.027 C 
ATOM     18  C17 <0> A   1     -13.130   7.722  42.773  0.00  0.00    -0.027 C 
BRANCH  18  19
ATOM     19  C18 <0> A   1     -12.041   7.677  41.731  0.00  0.00    +0.254 C 
BRANCH  19  20
ATOM     20  O4  <0> A   1     -11.286   6.473  41.884  0.00  0.00    -0.536 OA
ATOM     21  H26 <0> A   1     -11.802   5.667  41.747  0.00  0.00    +0.368 HD
ENDBRANCH  19  20
BRANCH  19  22
ATOM     22  C19 <0> A   1     -12.667   7.713  40.336  0.00  0.00    -0.040 C 
BRANCH  22  23
ATOM     23  C20 <0> A   1     -12.337   9.047  39.662  0.00  0.00    +0.232 C 
BRANCH  23  24
ATOM     24  O3  <0> A   1     -12.711   8.990  38.284  0.00  0.00    -0.528 OA
ATOM     25  H25 <0> A   1     -12.227   9.610  37.721  0.00  0.00    +0.351 HD
ENDBRANCH  23  24
BRANCH  23  26
ATOM     26  C21 <0> A   1     -13.109  10.172  40.354  0.00  0.00    -0.101 C 
BRANCH  26  27
ATOM     27  C22 <0> A   1     -13.297  11.317  39.393  0.00  0.00    +0.491 C 
ATOM     28  O1  <0> A   1     -12.336  11.974  39.032  0.00  0.00    -0.681 OA
ATOM     29  O2  <0> A   1     -14.412  11.588  38.979  0.00  0.00    -0.713 OA
ENDBRANCH  26  27
ENDBRANCH  23  26
ENDBRANCH  22  23
ENDBRANCH  19  22
ENDBRANCH  18  19
ENDBRANCH   9  17
BRANCH   1  30
ATOM     30  C8  <0> A   1     -16.669   6.505  48.561  0.00  0.00    +0.034 C 
BRANCH  30  31
ATOM     31  C7  <0> A   1     -18.062   6.930  49.032  0.00  0.00    +0.075 C 
BRANCH  31  35
ATOM     32  C1  <0> A   1     -20.330   3.460  50.064  0.00  0.00    -0.011 A 
ATOM     33  C2  <0> A   1     -20.959   4.554  49.498  0.00  0.00    +0.000 A 
ATOM     34  C3  <0> A   1     -20.225   5.677  49.164  0.00  0.00    +0.003 A 
ATOM     35  C4  <0> A   1     -18.863   5.706  49.397  0.00  0.00    -0.073 A 
ATOM     36  C5  <0> A   1     -18.234   4.613  49.963  0.00  0.00    -0.001 A 
ATOM     37  C6  <0> A   1     -18.968   3.490  50.296  0.00  0.00    -0.001 A 
ENDBRANCH  31  35
ENDBRANCH  30  31
ENDBRANCH   1  30
TORSDOF 12
