REMARK VINA RESULT:      -8.3      0.000      0.000
REMARK  Name = CHEMBL262322
REMARK  16 active torsions:
REMARK  status: ('A' for Active; 'I' for Inactive)
REMARK    1  A    between atoms: C1_1  and  C2_2
REMARK    2  A    between atoms: C2_2  and  C3_3
REMARK    3  A    between atoms: C2_2  and  N1_4
REMARK    4  A    between atoms: C4_5  and  C26_31
REMARK    5  A    between atoms: C5_6  and  C20_24
REMARK    6  A    between atoms: C6_7  and  C15_18
REMARK    7  A    between atoms: C7_8  and  C8_9
REMARK    8  A    between atoms: N2_11  and  C9_12
REMARK    9  A    between atoms: C26_31  and  C27_32
REMARK   10  A    between atoms: C27_32  and  C28_33
REMARK   11  A    between atoms: C28_33  and  C29_35
REMARK   12  A    between atoms: C28_33  and  O5_43
REMARK   13  A    between atoms: C29_35  and  C30_36
REMARK   14  A    between atoms: C30_36  and  C31_38
REMARK   15  A    between atoms: C30_36  and  O4_42
REMARK   16  A    between atoms: C31_38  and  C32_39
REMARK                            x       y       z     vdW  Elec       q    Type
REMARK                         _______ _______ _______ _____ _____    ______ ____
ROOT
ATOM      1  N1  <0> A   1     -15.769   6.238  45.668  0.00  0.00    -0.394 N 
ATOM      2  C4  <0> A   1     -14.587   6.787  45.297  0.00  0.00    +0.070 C 
ATOM      3  C5  <0> A   1     -14.347   7.888  46.066  0.00  0.00    -0.097 C 
ATOM      4  C6  <0> A   1     -15.439   8.027  46.961  0.00  0.00    -0.059 C 
ATOM      5  C7  <0> A   1     -16.315   6.985  46.685  0.00  0.00    -0.028 C 
ENDROOT
BRANCH   3   6
ATOM      6  C20 <0> A   1     -13.162   8.775  45.983  0.00  0.00    +0.006 A 
ATOM      7  C21 <0> A   1     -11.999   8.457  46.682  0.00  0.00    +0.046 A 
ATOM      8  C22 <0> A   1     -10.899   9.286  46.601  0.00  0.00    -0.021 A 
ATOM      9  C23 <0> A   1     -10.949  10.434  45.825  0.00  0.00    +0.094 A 
ATOM     10  C24 <0> A   1     -12.102  10.754  45.128  0.00  0.00    -0.022 A 
ATOM     11  C25 <0> A   1     -13.205   9.927  45.199  0.00  0.00    +0.071 A 
ATOM     12  F1  <0> A   1      -9.869  11.242  45.750  0.00  0.00    -0.144 F 
ENDBRANCH   3   6
BRANCH   4  13
ATOM     13  C15 <0> A   1     -15.614   9.082  47.985  0.00  0.00    +0.202 A 
ATOM     14  C16 <0> A   1     -16.067  10.345  47.606  0.00  0.00    -0.046 A 
ATOM     15  C17 <0> A   1     -16.228  11.320  48.574  0.00  0.00    +0.063 A 
ATOM     16  C18 <0> A   1     -15.929  11.002  49.891  0.00  0.00    -0.047 A 
ATOM     17  C19 <0> A   1     -15.484   9.729  50.197  0.00  0.00    +0.263 A 
ATOM     18  N3  <0> A   1     -15.346   8.817  49.257  0.00  0.00    -0.460 NA
ENDBRANCH   4  13
BRANCH   5  19
ATOM     19  C8  <0> A   1     -17.590   6.726  47.358  0.00  0.00    +0.604 C 
ATOM     20  O1  <0> A   1     -18.633   6.796  46.734  0.00  0.00    -0.496 OA
ATOM     21  N2  <0> A   1     -17.609   6.409  48.668  0.00  0.00    -0.667 N 
ATOM     22  H10 <0> A   1     -16.792   6.452  49.189  0.00  0.00    +0.415 HD
BRANCH  21  23
ATOM     23  C9  <0> A   1     -18.806   6.017  49.276  0.00  0.00    +0.144 A 
ATOM     24  C10 <0> A   1     -19.162   4.676  49.311  0.00  0.00    +0.011 A 
ATOM     25  C11 <0> A   1     -20.345   4.292  49.912  0.00  0.00    +0.028 A 
ATOM     26  C12 <0> A   1     -21.175   5.243  50.478  0.00  0.00    -0.010 A 
ATOM     27  C13 <0> A   1     -20.823   6.580  50.444  0.00  0.00    +0.027 A 
ATOM     28  C14 <0> A   1     -19.639   6.969  49.850  0.00  0.00    -0.017 A 
ENDBRANCH  21  23
ENDBRANCH   5  19
BRANCH   1  30
ATOM     29  C1  <0> A   1     -16.950   5.390  43.702  0.00  0.00    +0.043 C 
ATOM     30  C2  <0> A   1     -16.370   5.041  45.075  0.00  0.00    +0.231 C 
ATOM     31  C3  <0> A   1     -15.301   3.958  44.916  0.00  0.00    +0.047 C 
ENDBRANCH   1  30
BRANCH   2  32
ATOM     32  C26 <0> A   1     -13.683   6.266  44.210  0.00  0.00    +0.121 C 
BRANCH  32  33
ATOM     33  C27 <0> A   1     -13.780   7.178  42.986  0.00  0.00    -0.007 C 
BRANCH  33  34
ATOM     34  C28 <0> A   1     -12.389   7.357  42.373  0.00  0.00    +0.213 C 
BRANCH  34  35
ATOM     35  O5  <0> A   1     -11.732   6.090  42.304  0.00  0.00    -0.542 OA
ATOM     36  H33 <0> A   1     -10.834   6.132  41.950  0.00  0.00    +0.363 HD
ENDBRANCH  34  35
BRANCH  34  37
ATOM     37  C29 <0> A   1     -12.524   7.939  40.965  0.00  0.00    -0.051 C 
BRANCH  37  38
ATOM     38  C30 <0> A   1     -13.013   9.386  41.055  0.00  0.00    +0.231 C 
BRANCH  38  39
ATOM     39  O4  <0> A   1     -11.897  10.253  41.268  0.00  0.00    -0.528 OA
ATOM     40  H32 <0> A   1     -11.049   9.875  41.001  0.00  0.00    +0.349 HD
ENDBRANCH  38  39
BRANCH  38  41
ATOM     41  C31 <0> A   1     -13.715   9.769  39.750  0.00  0.00    -0.103 C 
BRANCH  41  42
ATOM     42  C32 <0> A   1     -13.688  11.267  39.588  0.00  0.00    +0.490 C 
ATOM     43  O2  <0> A   1     -12.910  11.781  38.803  0.00  0.00    -0.681 OA
ATOM     44  O3  <0> A   1     -14.444  11.964  40.242  0.00  0.00    -0.713 OA
ENDBRANCH  41  42
ENDBRANCH  38  41
ENDBRANCH  37  38
ENDBRANCH  34  37
ENDBRANCH  33  34
ENDBRANCH  32  33
ENDBRANCH   2  32
TORSDOF 14
