REMARK VINA RESULT:      -7.1     16.877     20.808
REMARK  Name = CHEMBL140527
REMARK  12 active torsions:
REMARK  status: ('A' for Active; 'I' for Inactive)
REMARK    1  A    between atoms: C1_1  and  C2_2
REMARK    2  A    between atoms: C4_4  and  C21_27
REMARK    3  A    between atoms: C5_5  and  O1_15
REMARK    4  A    between atoms: C6_6  and  C8_8
REMARK    5  A    between atoms: O1_15  and  C15_16
REMARK    6  A    between atoms: C15_16  and  C16_17
REMARK    7  A    between atoms: C16_17  and  C17_18
REMARK    8  A    between atoms: C16_17  and  O5_26
REMARK    9  A    between atoms: C17_18  and  C18_19
REMARK   10  A    between atoms: C18_19  and  C19_21
REMARK   11  A    between atoms: C18_19  and  O4_25
REMARK   12  A    between atoms: C19_21  and  C20_22
REMARK                            x       y       z     vdW  Elec       q    Type
REMARK                         _______ _______ _______ _____ _____    ______ ____
ROOT
ATOM      1  C1  <0> A   1     -29.512  -4.132  53.557  0.00  0.00    +0.087 C 
ATOM      2  C2  <0> A   1     -28.513  -4.655  52.558  0.00  0.00    -0.089 A 
ATOM      3  C3  <0> A   1     -28.608  -5.957  52.103  0.00  0.00    +0.006 A 
ATOM      4  C4  <0> A   1     -27.693  -6.439  51.187  0.00  0.00    -0.095 A 
ATOM      5  C5  <0> A   1     -26.679  -5.615  50.723  0.00  0.00    +0.092 A 
ATOM      6  C6  <0> A   1     -26.586  -4.309  51.179  0.00  0.00    -0.086 A 
ATOM      7  C7  <0> A   1     -27.505  -3.830  52.091  0.00  0.00    +0.012 A 
ATOM      8  C21 <0> A   1     -27.798  -7.859  50.693  0.00  0.00    +0.096 C 
ENDROOT
BRANCH   6   9
ATOM      9  C8  <0> A   1     -25.484  -3.411  50.677  0.00  0.00    +0.039 C 
ATOM     10  C9  <0> A   1     -24.325  -3.424  51.695  0.00  0.00    +0.026 C 
ATOM     11  C10 <0> A   1     -23.071  -2.976  50.997  0.00  0.00    +0.003 C 
ATOM     12  C11 <0> A   1     -22.815  -1.465  51.156  0.00  0.00    -0.002 C 
ATOM     13  C12 <0> A   1     -24.097  -0.623  51.010  0.00  0.00    -0.002 C 
ATOM     14  C13 <0> A   1     -24.977  -1.103  49.888  0.00  0.00    +0.013 C 
ATOM     15  C14 <0> A   1     -26.024  -2.075  50.467  0.00  0.00    +0.008 C 
ENDBRANCH   6   9
BRANCH   5  16
ATOM     16  O1  <0> A   1     -25.778  -6.087  49.821  0.00  0.00    -0.318 OA
BRANCH  16  17
ATOM     17  C15 <0> A   1     -24.676  -6.837  50.336  0.00  0.00    +0.146 C 
BRANCH  17  18
ATOM     18  C16 <0> A   1     -24.344  -7.980  49.376  0.00  0.00    +0.224 C 
BRANCH  18  19
ATOM     19  O5  <0> A   1     -23.344  -7.550  48.449  0.00  0.00    -0.531 OA
ATOM     20  H28 <0> A   1     -23.292  -8.090  47.649  0.00  0.00    +0.363 HD
ENDBRANCH  18  19
BRANCH  18  21
ATOM     21  C17 <0> A   1     -23.820  -9.178  50.171  0.00  0.00    -0.043 C 
BRANCH  21  22
ATOM     22  C18 <0> A   1     -24.955 -10.180  50.391  0.00  0.00    +0.234 C 
BRANCH  22  23
ATOM     23  O4  <0> A   1     -25.698 -10.333  49.179  0.00  0.00    -0.527 OA
ATOM     24  H27 <0> A   1     -26.260 -11.119  49.159  0.00  0.00    +0.350 HD
ENDBRANCH  22  23
BRANCH  22  25
ATOM     25  C19 <0> A   1     -24.370 -11.531  50.804  0.00  0.00    -0.101 C 
BRANCH  25  26
ATOM     26  C20 <0> A   1     -24.390 -12.470  49.625  0.00  0.00    +0.491 C 
ATOM     27  O2  <0> A   1     -23.564 -12.348  48.736  0.00  0.00    -0.680 OA
ATOM     28  O3  <0> A   1     -25.231 -13.350  49.560  0.00  0.00    -0.713 OA
ENDBRANCH  25  26
ENDBRANCH  22  25
ENDBRANCH  21  22
ENDBRANCH  18  21
ENDBRANCH  17  18
ENDBRANCH  16  17
ENDBRANCH   5  16
TORSDOF 10
