REMARK VINA RESULT:      -6.9     31.676     33.299
REMARK  Name = CHEMBL121658
REMARK  8 active torsions:
REMARK  status: ('A' for Active; 'I' for Inactive)
REMARK    1  A    between atoms: C1_1  and  C2_2
REMARK    2  A    between atoms: C2_2  and  C3_3
REMARK    3  A    between atoms: C2_2  and  C4_4
REMARK    4  A    between atoms: C7_7  and  C15_21
REMARK    5  A    between atoms: N1_8  and  C8_9
REMARK    6  A    between atoms: C8_9  and  C9_10
REMARK    7  A    between atoms: C9_10  and  C10_11
REMARK    8  A    between atoms: C12_14  and  O3_20
REMARK                            x       y       z     vdW  Elec       q    Type
REMARK                         _______ _______ _______ _____ _____    ______ ____
ROOT
ATOM      1  C4  <0> A   1     -27.744  -5.107  51.966  0.00  0.00    +0.091 C 
ATOM      2  C5  <0> A   1     -28.667  -4.123  51.903  0.00  0.00    -0.142 C 
ATOM      3  C6  <0> A   1     -27.984  -2.904  51.755  0.00  0.00    -0.122 C 
ATOM      4  C7  <0> A   1     -26.650  -3.186  51.735  0.00  0.00    +0.096 C 
ATOM      5  N1  <0> A   1     -26.505  -4.544  51.871  0.00  0.00    -0.421 N 
ATOM      6 Br1  <0> A   1     -28.769  -1.190  51.612  0.00  0.00    -0.009 Br
ATOM      7 Br2  <0> A   1     -30.543  -4.346  51.992  0.00  0.00    -0.008 Br
ENDROOT
BRANCH   4   8
ATOM      8  C15 <0> A   1     -25.555  -2.203  51.595  0.00  0.00    -0.040 A 
ATOM      9  C16 <0> A   1     -24.887  -1.734  52.728  0.00  0.00    +0.052 A 
ATOM     10  C17 <0> A   1     -23.865  -0.817  52.593  0.00  0.00    -0.008 A 
ATOM     11  C18 <0> A   1     -23.502  -0.362  51.335  0.00  0.00    +0.110 A 
ATOM     12  C19 <0> A   1     -24.163  -0.823  50.208  0.00  0.00    -0.005 A 
ATOM     13  C20 <0> A   1     -25.181  -1.745  50.331  0.00  0.00    +0.082 A 
ATOM     14  F1  <0> A   1     -22.501   0.536  51.208  0.00  0.00    -0.135 F 
ENDBRANCH   4   8
BRANCH   1  16
ATOM     15  C1  <0> A   1     -28.874  -6.800  53.384  0.00  0.00    +0.041 C 
ATOM     16  C2  <0> A   1     -28.033  -6.577  52.125  0.00  0.00    +0.052 C 
ATOM     17  C3  <0> A   1     -28.803  -7.080  50.901  0.00  0.00    +0.042 C 
ENDBRANCH   1  16
BRANCH   5  18
ATOM     18  C8  <0> A   1     -25.231  -5.268  51.904  0.00  0.00    +0.303 C 
BRANCH  18  19
ATOM     19  C9  <0> A   1     -24.731  -5.484  50.475  0.00  0.00    +0.055 C 
BRANCH  19  20
ATOM     20  C10 <0> A   1     -24.894  -6.958  50.095  0.00  0.00    +0.205 C 
ATOM     21  C11 <0> A   1     -24.390  -7.839  51.242  0.00  0.00    +0.046 C 
ATOM     22  C12 <0> A   1     -24.517  -9.313  50.842  0.00  0.00    +0.187 C 
ATOM     23  C13 <0> A   1     -23.683  -9.557  49.578  0.00  0.00    +0.025 C 
ATOM     24  C14 <0> A   1     -24.080  -8.530  48.541  0.00  0.00    +0.497 C 
ATOM     25  O1  <0> A   1     -24.344  -8.860  47.409  0.00  0.00    -0.449 OA
ATOM     26  O2  <0> A   1     -24.131  -7.235  48.915  0.00  0.00    -0.371 OA
BRANCH  22  27
ATOM     27  O3  <0> A   1     -25.887  -9.622  50.581  0.00  0.00    -0.564 OA
ATOM     28  H18 <0> A   1     -26.363  -9.976  51.346  0.00  0.00    +0.388 HD
ENDBRANCH  22  27
ENDBRANCH  19  20
ENDBRANCH  18  19
ENDBRANCH   5  18
TORSDOF 6
