REMARK VINA RESULT:      -8.1     30.711     32.981
REMARK  Name = CHEMBL47301
REMARK  7 active torsions:
REMARK  status: ('A' for Active; 'I' for Inactive)
REMARK    1  A    between atoms: C4_4  and  C7_7
REMARK    2  A    between atoms: C7_7  and  C8_8
REMARK    3  A    between atoms: C8_8  and  O1_9
REMARK    4  A    between atoms: O1_9  and  C9_10
REMARK    5  A    between atoms: C14_15  and  C15_16
REMARK    6  A    between atoms: C16_17  and  C17_18
REMARK    7  A    between atoms: C19_20  and  O4_26
REMARK                            x       y       z     vdW  Elec       q    Type
REMARK                         _______ _______ _______ _____ _____    ______ ____
ROOT
ATOM      1  C9  <0> A   1     -24.070  -2.682  50.773  0.00  0.00    +0.171 A 
ATOM      2  C10 <0> A   1     -25.271  -2.105  50.392  0.00  0.00    -0.051 A 
ATOM      3  C11 <0> A   1     -25.414  -0.729  50.406  0.00  0.00    +0.017 A 
ATOM      4  C12 <0> A   1     -24.362   0.080  50.800  0.00  0.00    +0.011 A 
ATOM      5  C13 <0> A   1     -23.159  -0.479  51.183  0.00  0.00    +0.016 A 
ATOM      6  C14 <0> A   1     -23.005  -1.868  51.178  0.00  0.00    -0.078 A 
ATOM      7 Cl1  <0> A   1     -21.843   0.540  51.675  0.00  0.00    -0.037 Cl
ATOM      8 Cl2  <0> A   1     -26.922  -0.013  49.926  0.00  0.00    -0.049 Cl
ENDROOT
BRANCH   6   9
ATOM      9  C15 <0> A   1     -21.724  -2.474  51.592  0.00  0.00    +0.057 C 
ATOM     10  C16 <0> A   1     -21.501  -2.740  52.872  0.00  0.00    -0.011 C 
BRANCH  10  11
ATOM     11  C17 <0> A   1     -20.192  -3.359  53.296  0.00  0.00    +0.243 C 
ATOM     12  C18 <0> A   1     -20.466  -4.553  54.215  0.00  0.00    +0.051 C 
ATOM     13  C19 <0> A   1     -19.134  -5.153  54.676  0.00  0.00    +0.186 C 
ATOM     14  C20 <0> A   1     -18.338  -4.077  55.426  0.00  0.00    +0.023 C 
ATOM     15  C21 <0> A   1     -18.267  -2.844  54.552  0.00  0.00    +0.498 C 
ATOM     16  O2  <0> A   1     -17.215  -2.283  54.352  0.00  0.00    -0.451 OA
ATOM     17  O3  <0> A   1     -19.412  -2.388  54.002  0.00  0.00    -0.367 OA
BRANCH  13  18
ATOM     18  O4  <0> A   1     -18.390  -5.598  53.540  0.00  0.00    -0.564 OA
ATOM     19  H20 <0> A   1     -17.471  -5.299  53.531  0.00  0.00    +0.387 HD
ENDBRANCH  13  18
ENDBRANCH  10  11
ENDBRANCH   6   9
BRANCH   1  20
ATOM     20  O1  <0> A   1     -23.929  -4.033  50.759  0.00  0.00    -0.296 OA
BRANCH  20  21
ATOM     21  C8  <0> A   1     -25.127  -4.810  50.706  0.00  0.00    +0.198 C 
BRANCH  21  22
ATOM     22  C7  <0> A   1     -25.055  -5.929  51.748  0.00  0.00    +0.096 C 
BRANCH  22  26
ATOM     23  C1  <0> A   1     -23.338  -9.415  49.973  0.00  0.00    +0.005 A 
ATOM     24  C2  <0> A   1     -23.852  -8.412  49.171  0.00  0.00    +0.006 A 
ATOM     25  C3  <0> A   1     -24.408  -7.285  49.745  0.00  0.00    +0.010 A 
ATOM     26  C4  <0> A   1     -24.450  -7.159  51.121  0.00  0.00    -0.088 A 
ATOM     27  C5  <0> A   1     -23.936  -8.161  51.923  0.00  0.00    +0.011 A 
ATOM     28  C6  <0> A   1     -23.380  -9.288  51.349  0.00  0.00    +0.007 A 
ENDBRANCH  22  26
ENDBRANCH  21  22
ENDBRANCH  20  21
ENDBRANCH   1  20
TORSDOF 7
