REMARK VINA RESULT:      -7.4     19.470     22.887
REMARK  Name = CHEMBL468205
REMARK  13 active torsions:
REMARK  status: ('A' for Active; 'I' for Inactive)
REMARK    1  A    between atoms: C1_1  and  C2_2
REMARK    2  A    between atoms: C2_2  and  C3_3
REMARK    3  A    between atoms: C2_2  and  C4_4
REMARK    4  A    between atoms: C5_5  and  C18_24
REMARK    5  A    between atoms: C6_6  and  C12_17
REMARK    6  A    between atoms: N4_14  and  C11_16
REMARK    7  A    between atoms: C19_25  and  C20_26
REMARK    8  A    between atoms: C20_26  and  C21_28
REMARK    9  A    between atoms: C20_26  and  O4_36
REMARK   10  A    between atoms: C21_28  and  C22_29
REMARK   11  A    between atoms: C22_29  and  C23_31
REMARK   12  A    between atoms: C22_29  and  O3_35
REMARK   13  A    between atoms: C23_31  and  C24_32
REMARK                            x       y       z     vdW  Elec       q    Type
REMARK                         _______ _______ _______ _____ _____    ______ ____
ROOT
ATOM      1  C4  <0> A   1     -26.182  -8.293  50.229  0.00  0.00    +0.240 A 
ATOM      2  C5  <0> A   1     -27.297  -7.937  50.993  0.00  0.00    -0.186 A 
ATOM      3  C6  <0> A   1     -27.349  -6.633  51.526  0.00  0.00    +0.263 A 
ATOM      4  N1  <0> A   1     -26.342  -5.800  51.281  0.00  0.00    -0.541 NA
ATOM      5  C7  <0> A   1     -25.307  -6.185  50.550  0.00  0.00    +0.571 A 
ATOM      6  N2  <0> A   1     -25.224  -7.405  50.039  0.00  0.00    -0.551 NA
ATOM      7  N3  <0> A   1     -24.279  -5.288  50.318  0.00  0.00    -0.600 N 
ATOM      8  C8  <0> A   1     -24.343  -3.995  50.853  0.00  0.00    +0.316 C 
ATOM      9  C9  <0> A   1     -25.383  -3.480  51.644  0.00  0.00    -0.084 C 
ATOM     10  C10 <0> A   1     -25.071  -2.203  51.959  0.00  0.00    +0.234 C 
ATOM     11  N4  <0> A   1     -23.880  -1.916  51.393  0.00  0.00    -0.374 N 
ATOM     12  N5  <0> A   1     -23.439  -3.055  50.709  0.00  0.00    -0.332 NA
ATOM     13  C11 <0> A   1     -23.171  -0.636  51.482  0.00  0.00    +0.353 C 
ATOM     14  H10 <0> A   1     -23.514  -5.554  49.785  0.00  0.00    +0.428 HD
ENDROOT
BRANCH   3  15
ATOM     15  C12 <0> A   1     -28.505  -6.198  52.344  0.00  0.00    -0.072 A 
ATOM     16  C13 <0> A   1     -28.500  -6.398  53.724  0.00  0.00    +0.099 A 
ATOM     17  C14 <0> A   1     -29.578  -5.992  54.481  0.00  0.00    -0.014 A 
ATOM     18  C15 <0> A   1     -30.666  -5.385  53.873  0.00  0.00    +0.120 A 
ATOM     19  C16 <0> A   1     -30.676  -5.184  52.502  0.00  0.00    -0.024 A 
ATOM     20  C17 <0> A   1     -29.599  -5.582  51.736  0.00  0.00    +0.090 A 
ATOM     21  F1  <0> A   1     -31.720  -4.989  54.619  0.00  0.00    -0.136 F 
ENDBRANCH   3  15
BRANCH   1  23
ATOM     22  C1  <0> A   1     -25.588  -9.570  48.187  0.00  0.00    +0.043 C 
ATOM     23  C2  <0> A   1     -26.073  -9.674  49.635  0.00  0.00    +0.050 C 
ATOM     24  C3  <0> A   1     -25.077 -10.503  50.449  0.00  0.00    +0.043 C 
ENDBRANCH   1  23
BRANCH   2  25
ATOM     25  C18 <0> A   1     -28.390  -8.900  51.236  0.00  0.00    +0.014 C 
ATOM     26  C19 <0> A   1     -29.415  -8.966  50.396  0.00  0.00    -0.039 C 
BRANCH  26  27
ATOM     27  C20 <0> A   1     -30.530  -9.949  50.644  0.00  0.00    +0.252 C 
BRANCH  27  28
ATOM     28  O4  <0> A   1     -30.590 -10.884  49.565  0.00  0.00    -0.537 OA
ATOM     29  H27 <0> A   1     -29.886 -11.547  49.580  0.00  0.00    +0.366 HD
ENDBRANCH  27  28
BRANCH  27  30
ATOM     30  C21 <0> A   1     -30.269 -10.698  51.953  0.00  0.00    -0.041 C 
BRANCH  30  31
ATOM     31  C22 <0> A   1     -31.433 -10.461  52.917  0.00  0.00    +0.231 C 
BRANCH  31  32
ATOM     32  O3  <0> A   1     -31.484 -11.523  53.872  0.00  0.00    -0.528 OA
ATOM     33  H26 <0> A   1     -31.285 -12.394  53.502  0.00  0.00    +0.350 HD
ENDBRANCH  31  32
BRANCH  31  34
ATOM     34  C23 <0> A   1     -31.231  -9.130  53.644  0.00  0.00    -0.102 C 
BRANCH  34  35
ATOM     35  C24 <0> A   1     -30.854  -9.394  55.079  0.00  0.00    +0.490 C 
ATOM     36  O1  <0> A   1     -29.763  -9.871  55.345  0.00  0.00    -0.681 OA
ATOM     37  O2  <0> A   1     -31.638  -9.130  55.974  0.00  0.00    -0.713 OA
ENDBRANCH  34  35
ENDBRANCH  31  34
ENDBRANCH  30  31
ENDBRANCH  27  30
ENDBRANCH  26  27
ENDBRANCH   2  25
TORSDOF 10
