REMARK VINA RESULT:      -8.0      2.066      4.422
REMARK  Name = CHEMBL152893
REMARK  13 active torsions:
REMARK  status: ('A' for Active; 'I' for Inactive)
REMARK    1  A    between atoms: C1_1  and  C2_2
REMARK    2  A    between atoms: C2_2  and  C3_3
REMARK    3  A    between atoms: C2_2  and  C4_4
REMARK    4  A    between atoms: C5_5  and  C20_21
REMARK    5  A    between atoms: C6_6  and  C14_15
REMARK    6  A    between atoms: C7_7  and  C8_9
REMARK    7  A    between atoms: C21_22  and  C22_23
REMARK    8  A    between atoms: C22_23  and  C23_25
REMARK    9  A    between atoms: C22_23  and  O4_33
REMARK   10  A    between atoms: C23_25  and  C24_26
REMARK   11  A    between atoms: C24_26  and  C25_28
REMARK   12  A    between atoms: C24_26  and  O3_32
REMARK   13  A    between atoms: C25_28  and  C26_29
REMARK                            x       y       z     vdW  Elec       q    Type
REMARK                         _______ _______ _______ _____ _____    ______ ____
ROOT
ATOM      1  C4  <0> A   1     -13.953   9.853  46.018  0.00  0.00    -0.120 C 
ATOM      2  C5  <0> A   1     -14.041   8.522  45.701  0.00  0.00    -0.085 C 
ATOM      3  C6  <0> A   1     -15.055   7.767  46.279  0.00  0.00    -0.080 C 
ATOM      4  C7  <0> A   1     -15.921   8.380  47.138  0.00  0.00    -0.120 C 
ATOM      5  S1  <0> A   1     -15.313  10.058  47.156  0.00  0.00    +0.051 S 
ENDROOT
BRANCH   4   6
ATOM      6  C8  <0> A   1     -17.068   7.801  47.871  0.00  0.00    -0.004 A 
ATOM      7  C9  <0> A   1     -17.056   7.752  49.265  0.00  0.00    +0.012 A 
ATOM      8  C10 <0> A   1     -18.129   7.210  49.942  0.00  0.00    +0.003 A 
ATOM      9  C11 <0> A   1     -19.214   6.716  49.241  0.00  0.00    +0.006 A 
ATOM     10  C12 <0> A   1     -19.232   6.762  47.858  0.00  0.00    -0.001 A 
ATOM     11  C13 <0> A   1     -18.169   7.307  47.169  0.00  0.00    +0.047 A 
ENDBRANCH   4   6
BRANCH   3  12
ATOM     12  C14 <0> A   1     -15.195   6.301  45.964  0.00  0.00    +0.052 C 
ATOM     13  C15 <0> A   1     -13.837   5.614  46.115  0.00  0.00    +0.009 C 
ATOM     14  C16 <0> A   1     -13.980   4.125  45.796  0.00  0.00    +0.011 C 
ATOM     15  C17 <0> A   1     -14.478   3.957  44.359  0.00  0.00    -0.001 C 
ATOM     16  C18 <0> A   1     -15.837   4.644  44.208  0.00  0.00    +0.011 C 
ATOM     17  C19 <0> A   1     -15.694   6.133  44.527  0.00  0.00    +0.009 C 
ENDBRANCH   3  12
BRANCH   1  19
ATOM     18  C1  <0> A   1     -13.590  11.709  44.416  0.00  0.00    +0.035 C 
ATOM     19  C2  <0> A   1     -12.960  10.877  45.534  0.00  0.00    +0.082 C 
ATOM     20  C3  <0> A   1     -12.567  11.796  46.694  0.00  0.00    +0.034 C 
ENDBRANCH   1  19
BRANCH   2  21
ATOM     21  C20 <0> A   1     -13.079   7.903  44.765  0.00  0.00    +0.023 C 
ATOM     22  C21 <0> A   1     -13.153   8.166  43.468  0.00  0.00    -0.056 C 
BRANCH  22  23
ATOM     23  C22 <0> A   1     -12.173   7.536  42.514  0.00  0.00    +0.250 C 
BRANCH  23  24
ATOM     24  O4  <0> A   1     -12.334   6.116  42.534  0.00  0.00    -0.538 OA
ATOM     25  H33 <0> A   1     -12.368   5.712  41.655  0.00  0.00    +0.365 HD
ENDBRANCH  23  24
BRANCH  23  26
ATOM     26  C23 <0> A   1     -12.430   8.058  41.099  0.00  0.00    -0.042 C 
BRANCH  26  27
ATOM     27  C24 <0> A   1     -12.931   9.502  41.171  0.00  0.00    +0.231 C 
BRANCH  27  28
ATOM     28  O3  <0> A   1     -11.816  10.395  41.161  0.00  0.00    -0.528 OA
ATOM     29  H32 <0> A   1     -11.211  10.262  40.419  0.00  0.00    +0.350 HD
ENDBRANCH  27  28
BRANCH  27  30
ATOM     30  C25 <0> A   1     -13.826   9.793  39.964  0.00  0.00    -0.102 C 
BRANCH  30  31
ATOM     31  C26 <0> A   1     -13.918  11.282  39.754  0.00  0.00    +0.490 C 
ATOM     32  O1  <0> A   1     -13.335  11.803  38.818  0.00  0.00    -0.681 OA
ATOM     33  O2  <0> A   1     -14.576  11.966  40.519  0.00  0.00    -0.713 OA
ENDBRANCH  30  31
ENDBRANCH  27  30
ENDBRANCH  26  27
ENDBRANCH  23  26
ENDBRANCH  22  23
ENDBRANCH   2  21
TORSDOF 11
