REMARK VINA RESULT:      -8.1     16.712     20.216
REMARK  Name = CHEMBL333687
REMARK  11 active torsions:
REMARK  status: ('A' for Active; 'I' for Inactive)
REMARK    1  A    between atoms: C1_1  and  C2_2
REMARK    2  A    between atoms: C2_2  and  C3_3
REMARK    3  A    between atoms: C2_2  and  C4_4
REMARK    4  A    between atoms: C5_5  and  C27_34
REMARK    5  A    between atoms: C6_6  and  C21_28
REMARK    6  A    between atoms: C7_7  and  C15_21
REMARK    7  A    between atoms: N1_8  and  C8_9
REMARK    8  A    between atoms: C8_9  and  C9_10
REMARK    9  A    between atoms: C9_10  and  C10_11
REMARK   10  A    between atoms: C12_14  and  O3_20
REMARK   11  A    between atoms: N2_36  and  C28_37
REMARK                            x       y       z     vdW  Elec       q    Type
REMARK                         _______ _______ _______ _____ _____    ______ ____
ROOT
ATOM      1  C4  <0> A   1     -24.926  -2.547  51.572  0.00  0.00    +0.099 C 
ATOM      2  C5  <0> A   1     -26.224  -2.900  51.814  0.00  0.00    -0.208 C 
ATOM      3  C6  <0> A   1     -26.294  -4.360  51.647  0.00  0.00    -0.067 C 
ATOM      4  C7  <0> A   1     -25.015  -4.763  51.315  0.00  0.00    +0.066 C 
ATOM      5  N1  <0> A   1     -24.215  -3.651  51.273  0.00  0.00    -0.421 N 
ENDROOT
BRANCH   4   6
ATOM      6  C15 <0> A   1     -24.586  -6.151  51.049  0.00  0.00    -0.032 A 
ATOM      7  C16 <0> A   1     -24.659  -6.670  49.754  0.00  0.00    +0.049 A 
ATOM      8  C17 <0> A   1     -24.256  -7.967  49.511  0.00  0.00    -0.012 A 
ATOM      9  C18 <0> A   1     -23.780  -8.753  50.547  0.00  0.00    +0.107 A 
ATOM     10  C19 <0> A   1     -23.706  -8.244  51.834  0.00  0.00    -0.009 A 
ATOM     11  C20 <0> A   1     -24.101  -6.946  52.088  0.00  0.00    +0.078 A 
ATOM     12  F1  <0> A   1     -23.388 -10.024  50.303  0.00  0.00    -0.137 F 
ENDBRANCH   4   6
BRANCH   3  13
ATOM     13  C21 <0> A   1     -27.489  -5.220  51.803  0.00  0.00    -0.015 A 
ATOM     14  C22 <0> A   1     -28.441  -5.288  50.785  0.00  0.00    +0.018 A 
ATOM     15  C23 <0> A   1     -29.552  -6.092  50.937  0.00  0.00    +0.001 A 
ATOM     16  C24 <0> A   1     -29.724  -6.829  52.095  0.00  0.00    +0.003 A 
ATOM     17  C25 <0> A   1     -28.784  -6.766  53.108  0.00  0.00    +0.004 A 
ATOM     18  C26 <0> A   1     -27.665  -5.971  52.966  0.00  0.00    +0.022 A 
ENDBRANCH   3  13
BRANCH   2  19
ATOM     19  C27 <0> A   1     -27.331  -1.998  52.170  0.00  0.00    +0.607 C 
ATOM     20  O4  <0> A   1     -27.615  -1.815  53.338  0.00  0.00    -0.509 OA
ATOM     21  N2  <0> A   1     -28.029  -1.373  51.201  0.00  0.00    -0.668 N 
ATOM     22  H28 <0> A   1     -27.853  -1.577  50.268  0.00  0.00    +0.410 HD
BRANCH  21  23
ATOM     23  C28 <0> A   1     -29.005  -0.431  51.539  0.00  0.00    +0.149 A 
ATOM     24  C29 <0> A   1     -30.221  -0.848  52.066  0.00  0.00    -0.024 A 
ATOM     25  C30 <0> A   1     -31.183   0.084  52.399  0.00  0.00    +0.024 A 
ATOM     26  C31 <0> A   1     -30.938   1.431  52.209  0.00  0.00    -0.014 A 
ATOM     27  C32 <0> A   1     -29.729   1.851  51.683  0.00  0.00    +0.024 A 
ATOM     28  C33 <0> A   1     -28.760   0.923  51.353  0.00  0.00    +0.014 A 
ENDBRANCH  21  23
ENDBRANCH   2  19
BRANCH   1  30
ATOM     29  C1  <0> A   1     -24.921  -0.339  50.443  0.00  0.00    +0.041 C 
ATOM     30  C2  <0> A   1     -24.378  -1.144  51.626  0.00  0.00    +0.048 C 
ATOM     31  C3  <0> A   1     -24.805  -0.480  52.935  0.00  0.00    +0.038 C 
ENDBRANCH   1  30
BRANCH   5  32
ATOM     32  C8  <0> A   1     -22.786  -3.662  50.950  0.00  0.00    +0.298 C 
BRANCH  32  33
ATOM     33  C9  <0> A   1     -22.079  -2.552  51.730  0.00  0.00    +0.052 C 
BRANCH  33  34
ATOM     34  C10 <0> A   1     -21.294  -3.167  52.892  0.00  0.00    +0.204 C 
ATOM     35  C11 <0> A   1     -20.996  -2.086  53.936  0.00  0.00    +0.046 C 
ATOM     36  C12 <0> A   1     -20.175  -2.695  55.076  0.00  0.00    +0.187 C 
ATOM     37  C13 <0> A   1     -18.867  -3.255  54.503  0.00  0.00    +0.025 C 
ATOM     38  C14 <0> A   1     -19.209  -4.165  53.343  0.00  0.00    +0.497 C 
ATOM     39  O1  <0> A   1     -18.732  -5.272  53.262  0.00  0.00    -0.448 OA
ATOM     40  O2  <0> A   1     -20.061  -3.706  52.404  0.00  0.00    -0.370 OA
BRANCH  36  41
ATOM     41  O3  <0> A   1     -20.919  -3.747  55.693  0.00  0.00    -0.564 OA
ATOM     42  H18 <0> A   1     -21.482  -4.241  55.082  0.00  0.00    +0.388 HD
ENDBRANCH  36  41
ENDBRANCH  33  34
ENDBRANCH  32  33
ENDBRANCH   5  32
TORSDOF 9
