REMARK VINA RESULT:      -7.5     22.353     23.760
REMARK  Name = CHEMBL296915
REMARK  7 active torsions:
REMARK  status: ('A' for Active; 'I' for Inactive)
REMARK    1  A    between atoms: C5_5  and  C14_15
REMARK    2  A    between atoms: C6_6  and  O1_7
REMARK    3  A    between atoms: O1_7  and  C7_8
REMARK    4  A    between atoms: C7_8  and  C8_9
REMARK    5  A    between atoms: C14_15  and  C15_16
REMARK    6  A    between atoms: C15_16  and  C16_17
REMARK    7  A    between atoms: C18_19  and  O4_25
REMARK                            x       y       z     vdW  Elec       q    Type
REMARK                         _______ _______ _______ _____ _____    ______ ____
ROOT
ATOM      1  C1  <0> A   1     -15.357   6.757  48.015  0.00  0.00    -0.053 A 
ATOM      2  C2  <0> A   1     -16.406   6.016  47.502  0.00  0.00    +0.013 A 
ATOM      3  C3  <0> A   1     -16.455   5.730  46.149  0.00  0.00    +0.007 A 
ATOM      4  C4  <0> A   1     -15.454   6.183  45.307  0.00  0.00    +0.013 A 
ATOM      5  C5  <0> A   1     -14.404   6.924  45.816  0.00  0.00    -0.102 A 
ATOM      6  C6  <0> A   1     -14.353   7.212  47.173  0.00  0.00    +0.162 A 
ATOM      7 Cl1  <0> A   1     -15.519   5.822  43.610  0.00  0.00    -0.038 Cl
ATOM      8 Cl2  <0> A   1     -17.661   5.446  48.555  0.00  0.00    -0.052 Cl
ENDROOT
BRANCH   6   9
ATOM      9  O1  <0> A   1     -13.321   7.940  47.675  0.00  0.00    -0.297 OA
BRANCH   9  10
ATOM     10  C7  <0> A   1     -13.650   8.976  48.603  0.00  0.00    +0.191 C 
BRANCH  10  11
ATOM     11  C8  <0> A   1     -13.283  10.334  48.000  0.00  0.00    +0.000 C 
ATOM     12  C9  <0> A   1     -14.451  10.850  47.157  0.00  0.00    +0.017 C 
ATOM     13  C10 <0> A   1     -14.085  12.209  46.554  0.00  0.00    +0.005 C 
ATOM     14  C11 <0> A   1     -12.846  12.056  45.670  0.00  0.00    +0.001 C 
ATOM     15  C12 <0> A   1     -11.678  11.539  46.513  0.00  0.00    +0.010 C 
ATOM     16  C13 <0> A   1     -12.044  10.182  47.116  0.00  0.00    +0.018 C 
ENDBRANCH  10  11
ENDBRANCH   9  10
ENDBRANCH   6   9
BRANCH   5  17
ATOM     17  C14 <0> A   1     -13.315   7.417  44.899  0.00  0.00    +0.097 C 
BRANCH  17  18
ATOM     18  C15 <0> A   1     -13.721   8.766  44.304  0.00  0.00    +0.061 C 
BRANCH  18  19
ATOM     19  C16 <0> A   1     -13.045   8.949  42.944  0.00  0.00    +0.199 C 
ATOM     20  C17 <0> A   1     -13.679  10.134  42.212  0.00  0.00    +0.041 C 
ATOM     21  C18 <0> A   1     -13.028  10.288  40.834  0.00  0.00    +0.184 C 
ATOM     22  C19 <0> A   1     -13.244   8.995  40.036  0.00  0.00    +0.020 C 
ATOM     23  C20 <0> A   1     -12.783   7.831  40.886  0.00  0.00    +0.496 C 
ATOM     24  O2  <0> A   1     -12.044   6.987  40.436  0.00  0.00    -0.453 OA
ATOM     25  O3  <0> A   1     -13.220   7.762  42.161  0.00  0.00    -0.366 OA
BRANCH  21  26
ATOM     26  O4  <0> A   1     -11.628  10.529  40.989  0.00  0.00    -0.563 OA
ATOM     27  H26 <0> A   1     -11.085  10.171  40.274  0.00  0.00    +0.386 HD
ENDBRANCH  21  26
ENDBRANCH  18  19
ENDBRANCH  17  18
ENDBRANCH   5  17
TORSDOF 7
