REMARK VINA RESULT:      -7.9      4.259      6.215
REMARK  Name = CHEMBL488821
REMARK  16 active torsions:
REMARK  status: ('A' for Active; 'I' for Inactive)
REMARK    1  A    between atoms: C1_1  and  C2_2
REMARK    2  A    between atoms: C4_5  and  C6_8
REMARK    3  A    between atoms: C6_8  and  N3_9
REMARK    4  A    between atoms: C7_10  and  C8_12
REMARK    5  A    between atoms: C9_13  and  C26_38
REMARK    6  A    between atoms: C10_14  and  C20_31
REMARK    7  A    between atoms: C11_15  and  C13_18
REMARK    8  A    between atoms: N4_16  and  C12_17
REMARK    9  A    between atoms: C13_18  and  C14_19
REMARK   10  A    between atoms: C14_19  and  C15_20
REMARK   11  A    between atoms: C15_20  and  C16_22
REMARK   12  A    between atoms: C15_20  and  O5_30
REMARK   13  A    between atoms: C16_22  and  C17_23
REMARK   14  A    between atoms: C17_23  and  C18_25
REMARK   15  A    between atoms: C17_23  and  O4_29
REMARK   16  A    between atoms: C18_25  and  C19_26
REMARK                            x       y       z     vdW  Elec       q    Type
REMARK                         _______ _______ _______ _____ _____    ______ ____
ROOT
ATOM      1  C8  <0> A   1     -12.742  10.049  46.967  0.00  0.00    -0.035 C 
ATOM      2  C9  <0> A   1     -13.679   9.023  47.007  0.00  0.00    -0.055 C 
ATOM      3  C10 <0> A   1     -13.331   8.115  45.974  0.00  0.00    -0.121 C 
ATOM      4  C11 <0> A   1     -12.220   8.605  45.355  0.00  0.00    +0.073 C 
ATOM      5  N4  <0> A   1     -11.864   9.772  45.943  0.00  0.00    -0.411 N 
ATOM      6  C12 <0> A   1     -10.723  10.605  45.555  0.00  0.00    +0.326 C 
ENDROOT
BRANCH   3   7
ATOM      7  C20 <0> A   1     -14.045   6.861  45.632  0.00  0.00    -0.011 A 
ATOM      8  C21 <0> A   1     -14.954   6.840  44.576  0.00  0.00    +0.053 A 
ATOM      9  C22 <0> A   1     -15.616   5.671  44.262  0.00  0.00    -0.013 A 
ATOM     10  C23 <0> A   1     -15.379   4.519  44.995  0.00  0.00    +0.096 A 
ATOM     11  C24 <0> A   1     -14.476   4.535  46.045  0.00  0.00    -0.020 A 
ATOM     12  C25 <0> A   1     -13.805   5.699  46.363  0.00  0.00    +0.055 A 
ATOM     13  F1  <0> A   1     -16.030   3.376  44.684  0.00  0.00    -0.142 F 
ENDBRANCH   3   7
BRANCH   2  14
ATOM     14  C26 <0> A   1     -14.818   8.903  47.944  0.00  0.00    -0.011 A 
ATOM     15  C27 <0> A   1     -16.033   9.524  47.653  0.00  0.00    +0.028 A 
ATOM     16  C28 <0> A   1     -17.091   9.408  48.530  0.00  0.00    +0.004 A 
ATOM     17  C29 <0> A   1     -16.950   8.679  49.697  0.00  0.00    -0.001 A 
ATOM     18  C30 <0> A   1     -15.748   8.061  49.992  0.00  0.00    -0.000 A 
ATOM     19  C31 <0> A   1     -14.684   8.164  49.120  0.00  0.00    +0.007 A 
ENDBRANCH   2  14
BRANCH   1  21
ATOM     20  N3  <0> A   1     -11.814  11.261  48.865  0.00  0.00    -0.716 N 
ATOM     21  C7  <0> A   1     -12.699  11.217  47.850  0.00  0.00    +0.602 C 
ATOM     22  O1  <0> A   1     -13.462  12.147  47.665  0.00  0.00    -0.514 OA
ATOM     23  H10 <0> A   1     -11.260  10.490  49.060  0.00  0.00    +0.404 HD
BRANCH  20  24
ATOM     24  C6  <0> A   1     -11.691  12.475  49.676  0.00  0.00    +0.363 C 
BRANCH  24  29
ATOM     25  C1  <0> A   1      -7.473  11.764  53.426  0.00  0.00    +0.146 C 
ATOM     26  C2  <0> A   1      -8.588  11.939  52.427  0.00  0.00    +0.088 A 
ATOM     27  C3  <0> A   1      -9.363  13.085  52.449  0.00  0.00    +0.226 A 
ATOM     28  N1  <0> A   1     -10.340  13.240  51.573  0.00  0.00    -0.418 NA
ATOM     29  C4  <0> A   1     -10.576  12.300  50.676  0.00  0.00    +0.046 A 
ATOM     30  C5  <0> A   1      -9.801  11.154  50.652  0.00  0.00    +0.252 A 
ATOM     31  N2  <0> A   1      -8.821  11.002  51.526  0.00  0.00    -0.438 NA
ENDBRANCH  24  29
ENDBRANCH  20  24
ENDBRANCH   1  21
BRANCH   4  32
ATOM     32  C13 <0> A   1     -11.507   7.957  44.197  0.00  0.00    +0.120 C 
BRANCH  32  33
ATOM     33  C14 <0> A   1     -12.040   8.532  42.883  0.00  0.00    -0.009 C 
BRANCH  33  34
ATOM     34  C15 <0> A   1     -11.782   7.537  41.750  0.00  0.00    +0.213 C 
BRANCH  34  35
ATOM     35  O5  <0> A   1     -11.788   6.207  42.272  0.00  0.00    -0.542 OA
ATOM     36  H23 <0> A   1     -10.911   5.871  42.501  0.00  0.00    +0.363 HD
ENDBRANCH  34  35
BRANCH  34  37
ATOM     37  C16 <0> A   1     -12.877   7.675  40.691  0.00  0.00    -0.051 C 
BRANCH  37  38
ATOM     38  C17 <0> A   1     -12.600   8.907  39.827  0.00  0.00    +0.230 C 
BRANCH  38  39
ATOM     39  O4  <0> A   1     -12.311   8.494  38.489  0.00  0.00    -0.528 OA
ATOM     40  H22 <0> A   1     -13.090   8.427  37.921  0.00  0.00    +0.349 HD
ENDBRANCH  38  39
BRANCH  38  41
ATOM     41  C18 <0> A   1     -13.830   9.817  39.825  0.00  0.00    -0.103 C 
BRANCH  41  42
ATOM     42  C19 <0> A   1     -13.391  11.255  39.741  0.00  0.00    +0.490 C 
ATOM     43  O2  <0> A   1     -12.664  11.722  40.602  0.00  0.00    -0.681 OA
ATOM     44  O3  <0> A   1     -13.764  11.953  38.814  0.00  0.00    -0.713 OA
ENDBRANCH  41  42
ENDBRANCH  38  41
ENDBRANCH  37  38
ENDBRANCH  34  37
ENDBRANCH  33  34
ENDBRANCH  32  33
ENDBRANCH   4  32
TORSDOF 14
