REMARK VINA RESULT:      -7.6     15.694     18.646
REMARK  Name = CHEMBL66368
REMARK  12 active torsions:
REMARK  status: ('A' for Active; 'I' for Inactive)
REMARK    1  A    between atoms: C1_1  and  C2_2
REMARK    2  A    between atoms: C2_2  and  C3_3
REMARK    3  A    between atoms: C2_2  and  C4_4
REMARK    4  A    between atoms: C5_5  and  C20_25
REMARK    5  A    between atoms: C6_6  and  C14_18
REMARK    6  A    between atoms: C21_26  and  C22_27
REMARK    7  A    between atoms: C22_27  and  C23_28
REMARK    8  A    between atoms: C22_27  and  O4_36
REMARK    9  A    between atoms: C23_28  and  C24_29
REMARK   10  A    between atoms: C24_29  and  C25_31
REMARK   11  A    between atoms: C24_29  and  O3_35
REMARK   12  A    between atoms: C25_31  and  C26_32
REMARK                            x       y       z     vdW  Elec       q    Type
REMARK                         _______ _______ _______ _____ _____    ______ ____
ROOT
ATOM      1  C4  <0> A   1     -25.752  -2.671  50.775  0.00  0.00    +0.131 C 
ATOM      2  C5  <0> A   1     -24.810  -3.717  50.846  0.00  0.00    -0.154 C 
ATOM      3  C6  <0> A   1     -25.503  -4.908  50.667  0.00  0.00    +0.154 C 
ATOM      4  N1  <0> A   1     -26.820  -4.580  50.495  0.00  0.00    -0.294 N 
ATOM      5  N2  <0> A   1     -26.934  -3.187  50.572  0.00  0.00    -0.268 NA
ATOM      6  C7  <0> A   1     -27.862  -5.474  50.283  0.00  0.00    +0.390 C 
ATOM      7  N3  <0> A   1     -27.821  -6.783  50.209  0.00  0.00    -0.522 NA
ATOM      8  C8  <0> A   1     -28.924  -7.533  49.998  0.00  0.00    +0.100 A 
ATOM      9  C9  <0> A   1     -29.016  -8.941  49.898  0.00  0.00    +0.073 A 
ATOM     10  C10 <0> A   1     -30.224  -9.550  49.679  0.00  0.00    +0.030 A 
ATOM     11  C11 <0> A   1     -31.393  -8.814  49.546  0.00  0.00    +0.044 A 
ATOM     12  C12 <0> A   1     -31.340  -7.435  49.638  0.00  0.00    +0.074 A 
ATOM     13  C13 <0> A   1     -30.134  -6.816  49.858  0.00  0.00    -0.157 A 
ATOM     14  S1  <0> A   1     -29.601  -5.133  50.049  0.00  0.00    +0.069 S 
ENDROOT
BRANCH   3  15
ATOM     15  C14 <0> A   1     -24.929  -6.268  50.665  0.00  0.00    -0.061 A 
ATOM     16  C15 <0> A   1     -24.692  -6.930  51.871  0.00  0.00    +0.095 A 
ATOM     17  C16 <0> A   1     -24.155  -8.201  51.864  0.00  0.00    -0.018 A 
ATOM     18  C17 <0> A   1     -23.853  -8.820  50.661  0.00  0.00    +0.120 A 
ATOM     19  C18 <0> A   1     -24.086  -8.168  49.461  0.00  0.00    -0.025 A 
ATOM     20  C19 <0> A   1     -24.628  -6.900  49.456  0.00  0.00    +0.109 A 
ATOM     21  F1  <0> A   1     -23.327 -10.065  50.659  0.00  0.00    -0.137 F 
ENDBRANCH   3  15
BRANCH   1  23
ATOM     22  C1  <0> A   1     -26.452  -0.392  50.091  0.00  0.00    +0.042 C 
ATOM     23  C2  <0> A   1     -25.447  -1.202  50.914  0.00  0.00    +0.084 C 
ATOM     24  C3  <0> A   1     -25.549  -0.797  52.387  0.00  0.00    +0.042 C 
ENDBRANCH   1  23
BRANCH   2  25
ATOM     25  C20 <0> A   1     -23.358  -3.574  51.069  0.00  0.00    +0.039 C 
ATOM     26  C21 <0> A   1     -22.852  -3.751  52.282  0.00  0.00    -0.044 C 
BRANCH  26  27
ATOM     27  C22 <0> A   1     -21.370  -3.605  52.509  0.00  0.00    +0.252 C 
BRANCH  27  28
ATOM     28  O4  <0> A   1     -20.720  -3.340  51.264  0.00  0.00    -0.538 OA
ATOM     29  H25 <0> A   1     -21.138  -3.767  50.504  0.00  0.00    +0.366 HD
ENDBRANCH  27  28
BRANCH  27  30
ATOM     30  C23 <0> A   1     -21.114  -2.445  53.475  0.00  0.00    -0.041 C 
BRANCH  30  31
ATOM     31  C24 <0> A   1     -20.123  -2.889  54.554  0.00  0.00    +0.231 C 
BRANCH  31  32
ATOM     32  O3  <0> A   1     -20.552  -4.132  55.111  0.00  0.00    -0.528 OA
ATOM     33  H24 <0> A   1     -21.477  -4.138  55.393  0.00  0.00    +0.350 HD
ENDBRANCH  31  32
BRANCH  31  34
ATOM     34  C25 <0> A   1     -18.736  -3.061  53.933  0.00  0.00    -0.102 C 
BRANCH  34  35
ATOM     35  C26 <0> A   1     -18.244  -4.463  54.181  0.00  0.00    +0.490 C 
ATOM     36  O1  <0> A   1     -17.630  -4.722  55.202  0.00  0.00    -0.681 OA
ATOM     37  O2  <0> A   1     -18.460  -5.339  53.361  0.00  0.00    -0.713 OA
ENDBRANCH  34  35
ENDBRANCH  31  34
ENDBRANCH  30  31
ENDBRANCH  27  30
ENDBRANCH  26  27
ENDBRANCH   2  25
TORSDOF 10
