REMARK VINA RESULT:      -8.0     17.506     20.772
REMARK  Name = CHEMBL468862
REMARK  13 active torsions:
REMARK  status: ('A' for Active; 'I' for Inactive)
REMARK    1  A    between atoms: C1_1  and  C2_2
REMARK    2  A    between atoms: C2_2  and  C3_3
REMARK    3  A    between atoms: C2_2  and  C4_4
REMARK    4  A    between atoms: C5_5  and  C22_29
REMARK    5  A    between atoms: C6_6  and  C16_22
REMARK    6  A    between atoms: C9_13  and  C10_16
REMARK    7  A    between atoms: C23_30  and  C24_31
REMARK    8  A    between atoms: C24_31  and  C25_33
REMARK    9  A    between atoms: C24_31  and  O4_41
REMARK   10  A    between atoms: C25_33  and  C26_34
REMARK   11  A    between atoms: C26_34  and  C27_36
REMARK   12  A    between atoms: C26_34  and  O3_40
REMARK   13  A    between atoms: C27_36  and  C28_37
REMARK                            x       y       z     vdW  Elec       q    Type
REMARK                         _______ _______ _______ _____ _____    ______ ____
ROOT
ATOM      1  C4  <0> A   1     -28.363  -4.972  52.436  0.00  0.00    +0.232 A 
ATOM      2  C5  <0> A   1     -27.543  -6.001  51.964  0.00  0.00    -0.176 A 
ATOM      3  C6  <0> A   1     -26.223  -5.680  51.588  0.00  0.00    +0.261 A 
ATOM      4  N1  <0> A   1     -25.814  -4.419  51.698  0.00  0.00    -0.504 NA
ATOM      5  C7  <0> A   1     -26.628  -3.480  52.152  0.00  0.00    +0.553 A 
ATOM      6  N2  <0> A   1     -27.877  -3.746  52.508  0.00  0.00    -0.545 NA
ATOM      7  N3  <0> A   1     -26.163  -2.179  52.250  0.00  0.00    -0.590 N 
ATOM      8  C8  <0> A   1     -24.853  -1.875  51.875  0.00  0.00    +0.489 C 
ATOM      9  N4  <0> A   1     -24.391  -0.647  51.966  0.00  0.00    -0.546 NA
ATOM     10  C9  <0> A   1     -23.138  -0.433  51.592  0.00  0.00    +0.116 C 
ATOM     11  S1  <0> A   1     -22.631  -1.964  51.117  0.00  0.00    +0.290 S 
ATOM     12  N5  <0> A   1     -24.044  -2.811  51.424  0.00  0.00    -0.436 NA
ATOM     13  H10 <0> A   1     -26.749  -1.480  52.582  0.00  0.00    +0.438 HD
ENDROOT
BRANCH   3  14
ATOM     14  C16 <0> A   1     -25.308  -6.729  51.081  0.00  0.00    -0.071 A 
ATOM     15  C17 <0> A   1     -25.215  -6.974  49.711  0.00  0.00    +0.096 A 
ATOM     16  C18 <0> A   1     -24.361  -7.950  49.244  0.00  0.00    -0.016 A 
ATOM     17  C19 <0> A   1     -23.595  -8.688  50.133  0.00  0.00    +0.120 A 
ATOM     18  C20 <0> A   1     -23.685  -8.448  51.495  0.00  0.00    -0.027 A 
ATOM     19  C21 <0> A   1     -24.532  -7.470  51.972  0.00  0.00    +0.099 A 
ATOM     20  F1  <0> A   1     -22.759  -9.643  49.671  0.00  0.00    -0.136 F 
ENDBRANCH   3  14
BRANCH  10  21
ATOM     21  C10 <0> A   1     -22.378   0.835  51.592  0.00  0.00    -0.031 A 
ATOM     22  C11 <0> A   1     -22.780   1.894  50.778  0.00  0.00    +0.073 A 
ATOM     23  C12 <0> A   1     -22.066   3.075  50.784  0.00  0.00    +0.008 A 
ATOM     24  C13 <0> A   1     -20.953   3.209  51.594  0.00  0.00    +0.036 A 
ATOM     25  C14 <0> A   1     -20.548   2.164  52.403  0.00  0.00    +0.015 A 
ATOM     26  C15 <0> A   1     -21.257   0.980  52.411  0.00  0.00    +0.047 A 
ENDBRANCH  10  21
BRANCH   1  28
ATOM     27  C1  <0> A   1     -29.901  -5.143  54.374  0.00  0.00    +0.043 C 
ATOM     28  C2  <0> A   1     -29.783  -5.257  52.853  0.00  0.00    +0.052 C 
ATOM     29  C3  <0> A   1     -30.721  -4.245  52.191  0.00  0.00    +0.044 C 
ENDBRANCH   1  28
BRANCH   2  30
ATOM     30  C22 <0> A   1     -28.046  -7.386  51.862  0.00  0.00    +0.012 C 
ATOM     31  C23 <0> A   1     -28.772  -7.751  50.813  0.00  0.00    -0.035 C 
BRANCH  31  32
ATOM     32  C24 <0> A   1     -29.285  -9.164  50.708  0.00  0.00    +0.253 C 
BRANCH  32  33
ATOM     33  O4  <0> A   1     -28.184 -10.075  50.740  0.00  0.00    -0.537 OA
ATOM     34  H27 <0> A   1     -28.209 -10.748  50.045  0.00  0.00    +0.366 HD
ENDBRANCH  32  33
BRANCH  32  35
ATOM     35  C25 <0> A   1     -30.221  -9.455  51.882  0.00  0.00    -0.041 C 
BRANCH  35  36
ATOM     36  C26 <0> A   1     -31.003 -10.740  51.605  0.00  0.00    +0.232 C 
BRANCH  36  37
ATOM     37  O3  <0> A   1     -30.559 -11.313  50.374  0.00  0.00    -0.528 OA
ATOM     38  H26 <0> A   1     -31.218 -11.873  49.941  0.00  0.00    +0.350 HD
ENDBRANCH  36  37
BRANCH  36  39
ATOM     39  C27 <0> A   1     -30.769 -11.736  52.744  0.00  0.00    -0.102 C 
BRANCH  39  40
ATOM     40  C28 <0> A   1     -29.889 -12.858  52.257  0.00  0.00    +0.490 C 
ATOM     41  O1  <0> A   1     -28.687 -12.686  52.147  0.00  0.00    -0.681 OA
ATOM     42  O2  <0> A   1     -30.378 -13.938  51.974  0.00  0.00    -0.713 OA
ENDBRANCH  39  40
ENDBRANCH  36  39
ENDBRANCH  35  36
ENDBRANCH  32  35
ENDBRANCH  31  32
ENDBRANCH   2  30
TORSDOF 11
