REMARK VINA RESULT:      -7.7     14.639     18.573
REMARK  Name = CHEMBL398906
REMARK  18 active torsions:
REMARK  status: ('A' for Active; 'I' for Inactive)
REMARK    1  A    between atoms: C1_1  and  C2_2
REMARK    2  A    between atoms: C2_2  and  C3_4
REMARK    3  A    between atoms: C2_2  and  N1_10
REMARK    4  A    between atoms: N1_10  and  C9_11
REMARK    5  A    between atoms: C10_12  and  C11_14
REMARK    6  A    between atoms: C12_15  and  C27_39
REMARK    7  A    between atoms: C13_16  and  C20_26
REMARK    8  A    between atoms: N2_17  and  C14_19
REMARK    9  A    between atoms: C20_26  and  C21_27
REMARK   10  A    between atoms: C21_27  and  C22_28
REMARK   11  A    between atoms: C22_28  and  C23_30
REMARK   12  A    between atoms: C22_28  and  O5_38
REMARK   13  A    between atoms: C23_30  and  C24_31
REMARK   14  A    between atoms: C24_31  and  C25_33
REMARK   15  A    between atoms: C24_31  and  O4_37
REMARK   16  A    between atoms: C25_33  and  C26_34
REMARK   17  A    between atoms: C27_39  and  C28_40
REMARK   18  A    between atoms: C27_39  and  C29_41
REMARK                            x       y       z     vdW  Elec       q    Type
REMARK                         _______ _______ _______ _____ _____    ______ ____
ROOT
ATOM      1  C11 <0> A   1     -25.870  -2.590  50.860  0.00  0.00    +0.011 C 
ATOM      2  C12 <0> A   1     -24.856  -3.510  51.217  0.00  0.00    -0.147 C 
ATOM      3  C13 <0> A   1     -25.442  -4.729  51.177  0.00  0.00    +0.037 C 
ATOM      4  N2  <0> A   1     -26.737  -4.540  50.814  0.00  0.00    -0.241 N 
ATOM      5  N3  <0> A   1     -26.967  -3.287  50.640  0.00  0.00    -0.258 NA
ENDROOT
BRANCH   4   6
ATOM      6  C14 <0> A   1     -27.685  -5.559  50.658  0.00  0.00    +0.121 A 
ATOM      7  C15 <0> A   1     -28.010  -6.018  49.387  0.00  0.00    +0.067 A 
ATOM      8  C16 <0> A   1     -28.945  -7.023  49.236  0.00  0.00    +0.020 A 
ATOM      9  C17 <0> A   1     -29.559  -7.573  50.349  0.00  0.00    +0.111 A 
ATOM     10  C18 <0> A   1     -29.236  -7.117  51.616  0.00  0.00    +0.008 A 
ATOM     11  C19 <0> A   1     -28.298  -6.116  51.773  0.00  0.00    +0.071 A 
ATOM     12  F1  <0> A   1     -30.474  -8.555  50.198  0.00  0.00    -0.131 F 
ENDBRANCH   4   6
BRANCH   1  15
ATOM     13  N1  <0> A   1     -26.079  -0.339  51.797  0.00  0.00    -0.596 N 
ATOM     14  C9  <0> A   1     -26.701  -0.931  52.984  0.00  0.00    +0.285 C 
ATOM     15  C10 <0> A   1     -25.728  -1.124  50.759  0.00  0.00    +0.618 C 
ATOM     16  O1  <0> A   1     -25.293  -0.623  49.739  0.00  0.00    -0.518 OA
BRANCH  13  18
ATOM     17  C1  <0> A   1     -24.907   1.515  52.880  0.00  0.00    +0.044 C 
ATOM     18  C2  <0> A   1     -25.839   1.105  51.738  0.00  0.00    +0.288 C 
BRANCH  18  19
ATOM     19  C3  <0> A   1     -27.150   1.838  51.871  0.00  0.00    -0.095 A 
ATOM     20  C4  <0> A   1     -27.269   2.882  52.769  0.00  0.00    +0.013 A 
ATOM     21  C5  <0> A   1     -28.471   3.554  52.893  0.00  0.00    -0.000 A 
ATOM     22  C6  <0> A   1     -29.552   3.184  52.117  0.00  0.00    +0.002 A 
ATOM     23  C7  <0> A   1     -29.433   2.140  51.218  0.00  0.00    +0.003 A 
ATOM     24  C8  <0> A   1     -28.231   1.470  51.092  0.00  0.00    +0.020 A 
ENDBRANCH  18  19
ENDBRANCH  13  18
ENDBRANCH   1  15
BRANCH   2  25
ATOM     25  C27 <0> A   1     -23.424  -3.198  51.569  0.00  0.00    +0.061 C 
ATOM     26  C28 <0> A   1     -22.748  -2.507  50.384  0.00  0.00    +0.029 C 
ATOM     27  C29 <0> A   1     -23.388  -2.273  52.787  0.00  0.00    +0.025 C 
ENDBRANCH   2  25
BRANCH   3  28
ATOM     28  C20 <0> A   1     -24.781  -6.051  51.478  0.00  0.00    +0.126 C 
BRANCH  28  29
ATOM     29  C21 <0> A   1     -24.457  -6.769  50.167  0.00  0.00    -0.006 C 
BRANCH  29  30
ATOM     30  C22 <0> A   1     -23.816  -8.124  50.473  0.00  0.00    +0.214 C 
BRANCH  30  31
ATOM     31  O5  <0> A   1     -24.747  -8.942  51.184  0.00  0.00    -0.541 OA
ATOM     32  H28 <0> A   1     -24.348  -9.713  51.612  0.00  0.00    +0.364 HD
ENDBRANCH  30  31
BRANCH  30  33
ATOM     33  C23 <0> A   1     -23.430  -8.813  49.162  0.00  0.00    -0.051 C 
BRANCH  33  34
ATOM     34  C24 <0> A   1     -24.510  -8.552  48.111  0.00  0.00    +0.231 C 
BRANCH  34  35
ATOM     35  O4  <0> A   1     -23.907  -8.018  46.930  0.00  0.00    -0.528 OA
ATOM     36  H27 <0> A   1     -22.990  -7.738  47.049  0.00  0.00    +0.350 HD
ENDBRANCH  34  35
BRANCH  34  37
ATOM     37  C25 <0> A   1     -25.219  -9.865  47.772  0.00  0.00    -0.103 C 
BRANCH  37  38
ATOM     38  C26 <0> A   1     -26.637  -9.817  48.283  0.00  0.00    +0.491 C 
ATOM     39  O2  <0> A   1     -26.851  -9.777  49.483  0.00  0.00    -0.681 OA
ATOM     40  O3  <0> A   1     -27.568  -9.818  47.497  0.00  0.00    -0.713 OA
ENDBRANCH  37  38
ENDBRANCH  34  37
ENDBRANCH  33  34
ENDBRANCH  30  33
ENDBRANCH  29  30
ENDBRANCH  28  29
ENDBRANCH   3  28
TORSDOF 14
