MODEL 1
REMARK VINA RESULT:      -8.5      0.000      0.000
REMARK  Name = CHEMBL249273
REMARK  18 active torsions:
REMARK  status: ('A' for Active; 'I' for Inactive)
REMARK    1  A    between atoms: C1_1  and  C2_2
REMARK    2  A    between atoms: C4_5  and  C5_8
REMARK    3  A    between atoms: C5_8  and  N3_9
REMARK    4  A    between atoms: C6_10  and  C7_12
REMARK    5  A    between atoms: C8_13  and  C27_40
REMARK    6  A    between atoms: C9_14  and  C21_33
REMARK    7  A    between atoms: C10_15  and  C14_20
REMARK    8  A    between atoms: N4_16  and  C11_17
REMARK    9  A    between atoms: C11_17  and  C12_18
REMARK   10  A    between atoms: C11_17  and  C13_19
REMARK   11  A    between atoms: C14_20  and  C15_21
REMARK   12  A    between atoms: C15_21  and  C16_22
REMARK   13  A    between atoms: C16_22  and  C17_24
REMARK   14  A    between atoms: C16_22  and  O5_32
REMARK   15  A    between atoms: C17_24  and  C18_25
REMARK   16  A    between atoms: C18_25  and  C19_27
REMARK   17  A    between atoms: C18_25  and  O4_31
REMARK   18  A    between atoms: C19_27  and  C20_28
REMARK                            x       y       z     vdW  Elec       q    Type
REMARK                         _______ _______ _______ _____ _____    ______ ____
ROOT
ATOM      1  C7  <0> A   1     -16.418   7.079  46.419  0.00  0.00    -0.057 C 
ATOM      2  C8  <0> A   1     -15.532   8.109  46.705  0.00  0.00    -0.041 C 
ATOM      3  C9  <0> A   1     -14.381   7.888  45.906  0.00  0.00    -0.116 C 
ATOM      4  C10 <0> A   1     -14.600   6.757  45.176  0.00  0.00    +0.087 C 
ATOM      5  N4  <0> A   1     -15.822   6.262  45.485  0.00  0.00    -0.404 N 
ENDROOT
BRANCH   3   6
ATOM      6  C21 <0> A   1     -13.162   8.734  45.869  0.00  0.00    -0.022 A 
ATOM      7  C22 <0> A   1     -12.101   8.468  46.731  0.00  0.00    +0.056 A 
ATOM      8  C23 <0> A   1     -10.969   9.257  46.692  0.00  0.00    -0.009 A 
ATOM      9  C24 <0> A   1     -10.888  10.313  45.798  0.00  0.00    +0.102 A 
ATOM     10  C25 <0> A   1     -11.942  10.581  44.939  0.00  0.00    -0.019 A 
ATOM     11  C26 <0> A   1     -13.074   9.793  44.967  0.00  0.00    +0.053 A 
ATOM     12  F1  <0> A   1      -9.779  11.083  45.764  0.00  0.00    -0.138 F 
ENDBRANCH   3   6
BRANCH   2  13
ATOM     13  C27 <0> A   1     -15.747   9.221  47.658  0.00  0.00    -0.017 A 
ATOM     14  C28 <0> A   1     -16.211  10.455  47.202  0.00  0.00    +0.034 A 
ATOM     15  C29 <0> A   1     -16.409  11.488  48.096  0.00  0.00    +0.014 A 
ATOM     16  C30 <0> A   1     -16.148  11.301  49.442  0.00  0.00    +0.006 A 
ATOM     17  C31 <0> A   1     -15.687  10.081  49.900  0.00  0.00    -0.004 A 
ATOM     18  C32 <0> A   1     -15.490   9.039  49.017  0.00  0.00    -0.005 A 
ENDBRANCH   2  13
BRANCH   1  20
ATOM     19  N3  <0> A   1     -17.863   6.426  48.268  0.00  0.00    -0.742 N 
ATOM     20  C6  <0> A   1     -17.746   6.892  47.008  0.00  0.00    +0.622 C 
ATOM     21  O1  <0> A   1     -18.742   7.158  46.362  0.00  0.00    -0.488 OA
ATOM     22  H10 <0> A   1     -17.074   6.146  48.757  0.00  0.00    +0.400 HD
BRANCH  19  23
ATOM     23  C5  <0> A   1     -19.185   6.341  48.897  0.00  0.00    +0.439 C 
BRANCH  23  28
ATOM     24  C1  <0> A   1     -21.244   2.247  51.052  0.00  0.00    +0.208 C 
ATOM     25  C2  <0> A   1     -20.257   3.207  50.440  0.00  0.00    +0.074 C 
ATOM     26  C3  <0> A   1     -18.942   2.992  50.249  0.00  0.00    +0.233 C 
ATOM     27  N1  <0> A   1     -18.420   4.089  49.678  0.00  0.00    -0.470 N 
ATOM     28  C4  <0> A   1     -19.363   4.975  49.508  0.00  0.00    +0.311 C 
ATOM     29  N2  <0> A   1     -20.526   4.462  49.963  0.00  0.00    -0.499 N 
ATOM     30  H1  <0> A   1     -21.390   4.902  49.958  0.00  0.00    +0.466 HD
ATOM     31  H37 <0> A   1     -17.489   4.205  49.431  0.00  0.00    +0.461 HD
ENDBRANCH  23  28
ENDBRANCH  19  23
ENDBRANCH   1  20
BRANCH   5  32
ATOM     32  C11 <0> A   1     -16.416   5.052  44.914  0.00  0.00    +0.233 C 
ATOM     33  C12 <0> A   1     -17.044   5.383  43.559  0.00  0.00    +0.036 C 
ATOM     34  C13 <0> A   1     -15.331   3.989  44.727  0.00  0.00    +0.048 C 
ENDBRANCH   5  32
BRANCH   4  35
ATOM     35  C14 <0> A   1     -13.634   6.153  44.190  0.00  0.00    +0.120 C 
BRANCH  35  36
ATOM     36  C15 <0> A   1     -13.786   6.849  42.836  0.00  0.00    -0.009 C 
BRANCH  36  37
ATOM     37  C16 <0> A   1     -12.408   7.279  42.326  0.00  0.00    +0.214 C 
BRANCH  37  38
ATOM     38  O5  <0> A   1     -11.568   6.129  42.200  0.00  0.00    -0.541 OA
ATOM     39  H27 <0> A   1     -10.623   6.331  42.190  0.00  0.00    +0.362 HD
ENDBRANCH  37  38
BRANCH  37  40
ATOM     40  C17 <0> A   1     -12.557   7.955  40.963  0.00  0.00    -0.051 C 
BRANCH  40  41
ATOM     41  C18 <0> A   1     -13.059   9.387  41.155  0.00  0.00    +0.231 C 
BRANCH  41  42
ATOM     42  O4  <0> A   1     -11.943  10.274  41.255  0.00  0.00    -0.528 OA
ATOM     43  H26 <0> A   1     -12.150  11.193  41.038  0.00  0.00    +0.349 HD
ENDBRANCH  41  42
BRANCH  41  44
ATOM     44  C19 <0> A   1     -13.924   9.790  39.959  0.00  0.00    -0.103 C 
BRANCH  44  45
ATOM     45  C20 <0> A   1     -13.920  11.291  39.819  0.00  0.00    +0.490 C 
ATOM     46  O2  <0> A   1     -13.259  11.819  38.941  0.00  0.00    -0.681 OA
ATOM     47  O3  <0> A   1     -14.577  11.976  40.583  0.00  0.00    -0.711 OA
ENDBRANCH  44  45
ENDBRANCH  41  44
ENDBRANCH  40  41
ENDBRANCH  37  40
ENDBRANCH  36  37
ENDBRANCH  35  36
ENDBRANCH   4  35
TORSDOF 15
ENDMDL
MODEL 2
REMARK VINA RESULT:      -8.4      1.322      2.218
REMARK  Name = CHEMBL249273
REMARK  18 active torsions:
REMARK  status: ('A' for Active; 'I' for Inactive)
REMARK    1  A    between atoms: C1_1  and  C2_2
REMARK    2  A    between atoms: C4_5  and  C5_8
REMARK    3  A    between atoms: C5_8  and  N3_9
REMARK    4  A    between atoms: C6_10  and  C7_12
REMARK    5  A    between atoms: C8_13  and  C27_40
REMARK    6  A    between atoms: C9_14  and  C21_33
REMARK    7  A    between atoms: C10_15  and  C14_20
REMARK    8  A    between atoms: N4_16  and  C11_17
REMARK    9  A    between atoms: C11_17  and  C12_18
REMARK   10  A    between atoms: C11_17  and  C13_19
REMARK   11  A    between atoms: C14_20  and  C15_21
REMARK   12  A    between atoms: C15_21  and  C16_22
REMARK   13  A    between atoms: C16_22  and  C17_24
REMARK   14  A    between atoms: C16_22  and  O5_32
REMARK   15  A    between atoms: C17_24  and  C18_25
REMARK   16  A    between atoms: C18_25  and  C19_27
REMARK   17  A    between atoms: C18_25  and  O4_31
REMARK   18  A    between atoms: C19_27  and  C20_28
REMARK                            x       y       z     vdW  Elec       q    Type
REMARK                         _______ _______ _______ _____ _____    ______ ____
ROOT
ATOM      1  C7  <0> A   1     -16.341   6.976  46.597  0.00  0.00    -0.057 C 
ATOM      2  C8  <0> A   1     -15.454   8.004  46.890  0.00  0.00    -0.041 C 
ATOM      3  C9  <0> A   1     -14.350   7.851  46.012  0.00  0.00    -0.116 C 
ATOM      4  C10 <0> A   1     -14.597   6.761  45.231  0.00  0.00    +0.087 C 
ATOM      5  N4  <0> A   1     -15.790   6.226  45.583  0.00  0.00    -0.404 N 
ENDROOT
BRANCH   3   6
ATOM      6  C21 <0> A   1     -13.149   8.720  45.953  0.00  0.00    -0.022 A 
ATOM      7  C22 <0> A   1     -11.991   8.358  46.638  0.00  0.00    +0.056 A 
ATOM      8  C23 <0> A   1     -10.876   9.169  46.579  0.00  0.00    -0.009 A 
ATOM      9  C24 <0> A   1     -10.907  10.342  45.841  0.00  0.00    +0.102 A 
ATOM     10  C25 <0> A   1     -12.057  10.705  45.159  0.00  0.00    -0.019 A 
ATOM     11  C26 <0> A   1     -13.174   9.897  45.207  0.00  0.00    +0.053 A 
ATOM     12  F1  <0> A   1      -9.814  11.133  45.787  0.00  0.00    -0.138 F 
ENDBRANCH   3   6
BRANCH   2  13
ATOM     13  C27 <0> A   1     -15.627   9.054  47.919  0.00  0.00    -0.017 A 
ATOM     14  C28 <0> A   1     -15.103   8.874  49.199  0.00  0.00    +0.034 A 
ATOM     15  C29 <0> A   1     -15.268   9.858  50.154  0.00  0.00    +0.014 A 
ATOM     16  C30 <0> A   1     -15.951  11.020  49.843  0.00  0.00    +0.006 A 
ATOM     17  C31 <0> A   1     -16.473  11.205  48.575  0.00  0.00    -0.004 A 
ATOM     18  C32 <0> A   1     -16.310  10.231  47.611  0.00  0.00    -0.005 A 
ENDBRANCH   2  13
BRANCH   1  20
ATOM     19  N3  <0> A   1     -17.660   6.244  48.510  0.00  0.00    -0.742 N 
ATOM     20  C6  <0> A   1     -17.627   6.731  47.253  0.00  0.00    +0.622 C 
ATOM     21  O1  <0> A   1     -18.665   6.966  46.664  0.00  0.00    -0.488 OA
ATOM     22  H10 <0> A   1     -16.836   5.988  48.953  0.00  0.00    +0.400 HD
BRANCH  19  23
ATOM     23  C5  <0> A   1     -18.942   6.100  49.206  0.00  0.00    +0.439 C 
BRANCH  23  28
ATOM     24  C1  <0> A   1     -21.625  10.051  50.891  0.00  0.00    +0.208 C 
ATOM     25  C2  <0> A   1     -20.485   9.122  50.562  0.00  0.00    +0.074 C 
ATOM     26  C3  <0> A   1     -19.182   9.322  50.837  0.00  0.00    +0.233 C 
ATOM     27  N1  <0> A   1     -18.494   8.264  50.382  0.00  0.00    -0.470 N 
ATOM     28  C4  <0> A   1     -19.321   7.416  49.835  0.00  0.00    +0.311 C 
ATOM     29  N2  <0> A   1     -20.574   7.910  49.933  0.00  0.00    -0.499 N 
ATOM     30  H1  <0> A   1     -21.386   7.486  49.612  0.00  0.00    +0.466 HD
ATOM     31  H37 <0> A   1     -17.533   8.148  50.449  0.00  0.00    +0.461 HD
ENDBRANCH  23  28
ENDBRANCH  19  23
ENDBRANCH   1  20
BRANCH   5  32
ATOM     32  C11 <0> A   1     -16.400   5.040  44.977  0.00  0.00    +0.233 C 
ATOM     33  C12 <0> A   1     -16.984   5.409  43.612  0.00  0.00    +0.036 C 
ATOM     34  C13 <0> A   1     -15.337   3.954  44.800  0.00  0.00    +0.048 C 
ENDBRANCH   5  32
BRANCH   4  35
ATOM     35  C14 <0> A   1     -13.683   6.233  44.156  0.00  0.00    +0.120 C 
BRANCH  35  36
ATOM     36  C15 <0> A   1     -13.807   7.109  42.907  0.00  0.00    -0.009 C 
BRANCH  36  37
ATOM     37  C16 <0> A   1     -12.412   7.390  42.342  0.00  0.00    +0.214 C 
BRANCH  37  38
ATOM     38  O5  <0> A   1     -11.673   6.169  42.270  0.00  0.00    -0.541 OA
ATOM     39  H27 <0> A   1     -11.146   6.075  41.466  0.00  0.00    +0.362 HD
ENDBRANCH  37  38
BRANCH  37  40
ATOM     40  C17 <0> A   1     -12.541   7.992  40.942  0.00  0.00    -0.051 C 
BRANCH  40  41
ATOM     41  C18 <0> A   1     -13.019   9.441  41.051  0.00  0.00    +0.231 C 
BRANCH  41  42
ATOM     42  O4  <0> A   1     -11.888  10.309  41.155  0.00  0.00    -0.528 OA
ATOM     43  H26 <0> A   1     -12.116  11.248  41.204  0.00  0.00    +0.349 HD
ENDBRANCH  41  42
BRANCH  41  44
ATOM     44  C19 <0> A   1     -13.829   9.807  39.806  0.00  0.00    -0.103 C 
BRANCH  44  45
ATOM     45  C20 <0> A   1     -13.910  11.306  39.681  0.00  0.00    +0.490 C 
ATOM     46  O2  <0> A   1     -14.558  11.951  40.488  0.00  0.00    -0.681 OA
ATOM     47  O3  <0> A   1     -13.328  11.874  38.773  0.00  0.00    -0.711 OA
ENDBRANCH  44  45
ENDBRANCH  41  44
ENDBRANCH  40  41
ENDBRANCH  37  40
ENDBRANCH  36  37
ENDBRANCH  35  36
ENDBRANCH   4  35
TORSDOF 15
ENDMDL
MODEL 3
REMARK VINA RESULT:      -8.1      1.704      2.371
REMARK  Name = CHEMBL249273
REMARK  18 active torsions:
REMARK  status: ('A' for Active; 'I' for Inactive)
REMARK    1  A    between atoms: C1_1  and  C2_2
REMARK    2  A    between atoms: C4_5  and  C5_8
REMARK    3  A    between atoms: C5_8  and  N3_9
REMARK    4  A    between atoms: C6_10  and  C7_12
REMARK    5  A    between atoms: C8_13  and  C27_40
REMARK    6  A    between atoms: C9_14  and  C21_33
REMARK    7  A    between atoms: C10_15  and  C14_20
REMARK    8  A    between atoms: N4_16  and  C11_17
REMARK    9  A    between atoms: C11_17  and  C12_18
REMARK   10  A    between atoms: C11_17  and  C13_19
REMARK   11  A    between atoms: C14_20  and  C15_21
REMARK   12  A    between atoms: C15_21  and  C16_22
REMARK   13  A    between atoms: C16_22  and  C17_24
REMARK   14  A    between atoms: C16_22  and  O5_32
REMARK   15  A    between atoms: C17_24  and  C18_25
REMARK   16  A    between atoms: C18_25  and  C19_27
REMARK   17  A    between atoms: C18_25  and  O4_31
REMARK   18  A    between atoms: C19_27  and  C20_28
REMARK                            x       y       z     vdW  Elec       q    Type
REMARK                         _______ _______ _______ _____ _____    ______ ____
ROOT
ATOM      1  C7  <0> A   1     -15.497   7.199  46.333  0.00  0.00    -0.057 C 
ATOM      2  C8  <0> A   1     -15.184   8.509  46.670  0.00  0.00    -0.041 C 
ATOM      3  C9  <0> A   1     -14.054   8.871  45.893  0.00  0.00    -0.116 C 
ATOM      4  C10 <0> A   1     -13.724   7.794  45.126  0.00  0.00    +0.087 C 
ATOM      5  N4  <0> A   1     -14.585   6.782  45.391  0.00  0.00    -0.404 N 
ENDROOT
BRANCH   3   6
ATOM      6  C21 <0> A   1     -13.359  10.182  45.911  0.00  0.00    -0.022 A 
ATOM      7  C22 <0> A   1     -13.724  11.179  45.008  0.00  0.00    +0.056 A 
ATOM      8  C23 <0> A   1     -13.075  12.396  45.029  0.00  0.00    -0.009 A 
ATOM      9  C24 <0> A   1     -12.062  12.628  45.946  0.00  0.00    +0.102 A 
ATOM     10  C25 <0> A   1     -11.696  11.640  46.846  0.00  0.00    -0.019 A 
ATOM     11  C26 <0> A   1     -12.344  10.422  46.836  0.00  0.00    +0.053 A 
ATOM     12  F1  <0> A   1     -11.428  13.821  45.962  0.00  0.00    -0.138 F 
ENDBRANCH   3   6
BRANCH   2  13
ATOM     13  C27 <0> A   1     -15.893   9.363  47.650  0.00  0.00    -0.017 A 
ATOM     14  C28 <0> A   1     -16.079   8.921  48.960  0.00  0.00    +0.034 A 
ATOM     15  C29 <0> A   1     -16.741   9.721  49.869  0.00  0.00    +0.014 A 
ATOM     16  C30 <0> A   1     -17.220  10.961  49.483  0.00  0.00    +0.006 A 
ATOM     17  C31 <0> A   1     -17.039  11.405  48.186  0.00  0.00    -0.004 A 
ATOM     18  C32 <0> A   1     -16.374  10.616  47.269  0.00  0.00    -0.005 A 
ENDBRANCH   2  13
BRANCH   1  20
ATOM     19  N3  <0> A   1     -16.425   5.732  48.042  0.00  0.00    -0.742 N 
ATOM     20  C6  <0> A   1     -16.595   6.403  46.884  0.00  0.00    +0.622 C 
ATOM     21  O1  <0> A   1     -17.660   6.346  46.299  0.00  0.00    -0.488 OA
ATOM     22  H10 <0> A   1     -15.556   5.718  48.471  0.00  0.00    +0.400 HD
BRANCH  19  23
ATOM     23  C5  <0> A   1     -17.556   5.024  48.651  0.00  0.00    +0.439 C 
BRANCH  23  28
ATOM     24  C1  <0> A   1     -20.807   8.545  50.284  0.00  0.00    +0.208 C 
ATOM     25  C2  <0> A   1     -19.729   7.494  50.240  0.00  0.00    +0.074 C 
ATOM     26  C3  <0> A   1     -19.007   7.040  51.282  0.00  0.00    +0.233 C 
ATOM     27  N1  <0> A   1     -18.155   6.110  50.825  0.00  0.00    -0.470 N 
ATOM     28  C4  <0> A   1     -18.321   5.970  49.538  0.00  0.00    +0.311 C 
ATOM     29  N2  <0> A   1     -19.298   6.811  49.134  0.00  0.00    -0.499 N 
ATOM     30  H1  <0> A   1     -19.631   6.914  48.229  0.00  0.00    +0.466 HD
ATOM     31  H37 <0> A   1     -17.516   5.619  51.365  0.00  0.00    +0.461 HD
ENDBRANCH  23  28
ENDBRANCH  19  23
ENDBRANCH   1  20
BRANCH   5  32
ATOM     32  C11 <0> A   1     -14.552   5.456  44.769  0.00  0.00    +0.233 C 
ATOM     33  C12 <0> A   1     -14.449   4.385  45.857  0.00  0.00    +0.036 C 
ATOM     34  C13 <0> A   1     -15.832   5.240  43.960  0.00  0.00    +0.048 C 
ENDBRANCH   5  32
BRANCH   4  35
ATOM     35  C14 <0> A   1     -12.580   7.736  44.147  0.00  0.00    +0.120 C 
BRANCH  35  36
ATOM     36  C15 <0> A   1     -13.092   8.078  42.745  0.00  0.00    -0.009 C 
BRANCH  36  37
ATOM     37  C16 <0> A   1     -12.089   7.582  41.701  0.00  0.00    +0.214 C 
BRANCH  37  38
ATOM     38  O5  <0> A   1     -11.671   6.256  42.034  0.00  0.00    -0.541 OA
ATOM     39  H27 <0> A   1     -11.000   5.894  41.441  0.00  0.00    +0.362 HD
ENDBRANCH  37  38
BRANCH  37  40
ATOM     40  C17 <0> A   1     -12.748   7.579  40.322  0.00  0.00    -0.051 C 
BRANCH  40  41
ATOM     41  C18 <0> A   1     -12.524   8.933  39.645  0.00  0.00    +0.231 C 
BRANCH  41  42
ATOM     42  O4  <0> A   1     -12.258   8.733  38.255  0.00  0.00    -0.528 OA
ATOM     43  H26 <0> A   1     -12.637   7.918  37.896  0.00  0.00    +0.349 HD
ENDBRANCH  41  42
BRANCH  41  44
ATOM     44  C19 <0> A   1     -13.777   9.796  39.805  0.00  0.00    -0.103 C 
BRANCH  44  45
ATOM     45  C20 <0> A   1     -13.386  11.251  39.824  0.00  0.00    +0.490 C 
ATOM     46  O2  <0> A   1     -13.570  11.945  38.837  0.00  0.00    -0.681 OA
ATOM     47  O3  <0> A   1     -12.885  11.735  40.825  0.00  0.00    -0.711 OA
ENDBRANCH  44  45
ENDBRANCH  41  44
ENDBRANCH  40  41
ENDBRANCH  37  40
ENDBRANCH  36  37
ENDBRANCH  35  36
ENDBRANCH   4  35
TORSDOF 15
ENDMDL
MODEL 4
REMARK VINA RESULT:      -7.9      1.739      2.366
REMARK  Name = CHEMBL249273
REMARK  18 active torsions:
REMARK  status: ('A' for Active; 'I' for Inactive)
REMARK    1  A    between atoms: C1_1  and  C2_2
REMARK    2  A    between atoms: C4_5  and  C5_8
REMARK    3  A    between atoms: C5_8  and  N3_9
REMARK    4  A    between atoms: C6_10  and  C7_12
REMARK    5  A    between atoms: C8_13  and  C27_40
REMARK    6  A    between atoms: C9_14  and  C21_33
REMARK    7  A    between atoms: C10_15  and  C14_20
REMARK    8  A    between atoms: N4_16  and  C11_17
REMARK    9  A    between atoms: C11_17  and  C12_18
REMARK   10  A    between atoms: C11_17  and  C13_19
REMARK   11  A    between atoms: C14_20  and  C15_21
REMARK   12  A    between atoms: C15_21  and  C16_22
REMARK   13  A    between atoms: C16_22  and  C17_24
REMARK   14  A    between atoms: C16_22  and  O5_32
REMARK   15  A    between atoms: C17_24  and  C18_25
REMARK   16  A    between atoms: C18_25  and  C19_27
REMARK   17  A    between atoms: C18_25  and  O4_31
REMARK   18  A    between atoms: C19_27  and  C20_28
REMARK                            x       y       z     vdW  Elec       q    Type
REMARK                         _______ _______ _______ _____ _____    ______ ____
ROOT
ATOM      1  C7  <0> A   1     -15.946   6.951  47.275  0.00  0.00    -0.057 C 
ATOM      2  C8  <0> A   1     -15.392   8.201  47.520  0.00  0.00    -0.041 C 
ATOM      3  C9  <0> A   1     -14.626   8.538  46.374  0.00  0.00    -0.116 C 
ATOM      4  C10 <0> A   1     -14.737   7.506  45.490  0.00  0.00    +0.087 C 
ATOM      5  N4  <0> A   1     -15.526   6.545  46.029  0.00  0.00    -0.404 N 
ENDROOT
BRANCH   3   6
ATOM      6  C21 <0> A   1     -13.847   9.785  46.174  0.00  0.00    -0.022 A 
ATOM      7  C22 <0> A   1     -14.365  10.814  45.392  0.00  0.00    +0.056 A 
ATOM      8  C23 <0> A   1     -13.638  11.972  45.209  0.00  0.00    -0.009 A 
ATOM      9  C24 <0> A   1     -12.393  12.112  45.803  0.00  0.00    +0.102 A 
ATOM     10  C25 <0> A   1     -11.874  11.091  46.582  0.00  0.00    -0.019 A 
ATOM     11  C26 <0> A   1     -12.598   9.932  46.775  0.00  0.00    +0.053 A 
ATOM     12  F1  <0> A   1     -11.683  13.247  45.621  0.00  0.00    -0.138 F 
ENDBRANCH   3   6
BRANCH   2  13
ATOM     13  C27 <0> A   1     -15.567   9.022  48.739  0.00  0.00    -0.017 A 
ATOM     14  C28 <0> A   1     -16.585   9.974  48.803  0.00  0.00    +0.034 A 
ATOM     15  C29 <0> A   1     -16.742  10.736  49.943  0.00  0.00    +0.014 A 
ATOM     16  C30 <0> A   1     -15.893  10.557  51.021  0.00  0.00    +0.006 A 
ATOM     17  C31 <0> A   1     -14.882   9.615  50.963  0.00  0.00    -0.004 A 
ATOM     18  C32 <0> A   1     -14.718   8.844  49.831  0.00  0.00    -0.005 A 
ENDBRANCH   2  13
BRANCH   1  20
ATOM     19  N3  <0> A   1     -18.144   6.143  47.948  0.00  0.00    -0.742 N 
ATOM     20  C6  <0> A   1     -16.817   6.199  48.180  0.00  0.00    +0.622 C 
ATOM     21  O1  <0> A   1     -16.343   5.623  49.142  0.00  0.00    -0.488 OA
ATOM     22  H10 <0> A   1     -18.531   6.660  47.224  0.00  0.00    +0.400 HD
BRANCH  19  23
ATOM     23  C5  <0> A   1     -19.001   5.303  48.789  0.00  0.00    +0.439 C 
BRANCH  23  28
ATOM     24  C1  <0> A   1     -21.301   9.338  50.807  0.00  0.00    +0.208 C 
ATOM     25  C2  <0> A   1     -20.845   7.926  50.540  0.00  0.00    +0.074 C 
ATOM     26  C3  <0> A   1     -21.199   6.825  51.228  0.00  0.00    +0.233 C 
ATOM     27  N1  <0> A   1     -20.578   5.772  50.675  0.00  0.00    -0.470 N 
ATOM     28  C4  <0> A   1     -19.852   6.179  49.671  0.00  0.00    +0.311 C 
ATOM     29  N2  <0> A   1     -19.996   7.517  49.548  0.00  0.00    -0.499 N 
ATOM     30  H1  <0> A   1     -19.572   8.082  48.883  0.00  0.00    +0.466 HD
ATOM     31  H37 <0> A   1     -20.657   4.853  50.975  0.00  0.00    +0.461 HD
ENDBRANCH  23  28
ENDBRANCH  19  23
ENDBRANCH   1  20
BRANCH   5  32
ATOM     32  C11 <0> A   1     -15.878   5.278  45.385  0.00  0.00    +0.233 C 
ATOM     33  C12 <0> A   1     -16.488   5.555  44.011  0.00  0.00    +0.036 C 
ATOM     34  C13 <0> A   1     -14.620   4.421  45.222  0.00  0.00    +0.048 C 
ENDBRANCH   5  32
BRANCH   4  35
ATOM     35  C14 <0> A   1     -14.082   7.442  44.135  0.00  0.00    +0.120 C 
BRANCH  35  36
ATOM     36  C15 <0> A   1     -12.566   7.583  44.295  0.00  0.00    -0.009 C 
BRANCH  36  37
ATOM     37  C16 <0> A   1     -12.013   8.454  43.165  0.00  0.00    +0.214 C 
BRANCH  37  38
ATOM     38  O5  <0> A   1     -11.177   7.660  42.319  0.00  0.00    -0.541 OA
ATOM     39  H27 <0> A   1     -10.919   6.812  42.704  0.00  0.00    +0.362 HD
ENDBRANCH  37  38
BRANCH  37  40
ATOM     40  C17 <0> A   1     -13.172   9.024  42.346  0.00  0.00    -0.051 C 
BRANCH  40  41
ATOM     41  C18 <0> A   1     -12.799  10.417  41.834  0.00  0.00    +0.231 C 
BRANCH  41  42
ATOM     42  O4  <0> A   1     -11.437  10.416  41.401  0.00  0.00    -0.528 OA
ATOM     43  H26 <0> A   1     -10.817  10.058  42.052  0.00  0.00    +0.349 HD
ENDBRANCH  41  42
BRANCH  41  44
ATOM     44  C19 <0> A   1     -13.706  10.790  40.661  0.00  0.00    -0.103 C 
BRANCH  44  45
ATOM     45  C20 <0> A   1     -12.888  10.870  39.398  0.00  0.00    +0.490 C 
ATOM     46  O2  <0> A   1     -12.596   9.850  38.795  0.00  0.00    -0.681 OA
ATOM     47  O3  <0> A   1     -12.517  11.953  38.980  0.00  0.00    -0.711 OA
ENDBRANCH  44  45
ENDBRANCH  41  44
ENDBRANCH  40  41
ENDBRANCH  37  40
ENDBRANCH  36  37
ENDBRANCH  35  36
ENDBRANCH   4  35
TORSDOF 15
ENDMDL
MODEL 5
REMARK VINA RESULT:      -7.9      2.834      8.926
REMARK  Name = CHEMBL249273
REMARK  18 active torsions:
REMARK  status: ('A' for Active; 'I' for Inactive)
REMARK    1  A    between atoms: C1_1  and  C2_2
REMARK    2  A    between atoms: C4_5  and  C5_8
REMARK    3  A    between atoms: C5_8  and  N3_9
REMARK    4  A    between atoms: C6_10  and  C7_12
REMARK    5  A    between atoms: C8_13  and  C27_40
REMARK    6  A    between atoms: C9_14  and  C21_33
REMARK    7  A    between atoms: C10_15  and  C14_20
REMARK    8  A    between atoms: N4_16  and  C11_17
REMARK    9  A    between atoms: C11_17  and  C12_18
REMARK   10  A    between atoms: C11_17  and  C13_19
REMARK   11  A    between atoms: C14_20  and  C15_21
REMARK   12  A    between atoms: C15_21  and  C16_22
REMARK   13  A    between atoms: C16_22  and  C17_24
REMARK   14  A    between atoms: C16_22  and  O5_32
REMARK   15  A    between atoms: C17_24  and  C18_25
REMARK   16  A    between atoms: C18_25  and  C19_27
REMARK   17  A    between atoms: C18_25  and  O4_31
REMARK   18  A    between atoms: C19_27  and  C20_28
REMARK                            x       y       z     vdW  Elec       q    Type
REMARK                         _______ _______ _______ _____ _____    ______ ____
ROOT
ATOM      1  C7  <0> A   1     -14.114   7.624  45.104  0.00  0.00    -0.057 C 
ATOM      2  C8  <0> A   1     -14.137   8.600  46.092  0.00  0.00    -0.041 C 
ATOM      3  C9  <0> A   1     -15.119   8.202  47.034  0.00  0.00    -0.116 C 
ATOM      4  C10 <0> A   1     -15.649   7.024  46.599  0.00  0.00    +0.087 C 
ATOM      5  N4  <0> A   1     -15.053   6.674  45.435  0.00  0.00    -0.404 N 
ENDROOT
BRANCH   3   6
ATOM      6  C21 <0> A   1     -15.500   8.933  48.268  0.00  0.00    -0.022 A 
ATOM      7  C22 <0> A   1     -15.018   8.514  49.506  0.00  0.00    +0.056 A 
ATOM      8  C23 <0> A   1     -15.375   9.197  50.650  0.00  0.00    -0.009 A 
ATOM      9  C24 <0> A   1     -16.211  10.299  50.570  0.00  0.00    +0.102 A 
ATOM     10  C25 <0> A   1     -16.693  10.720  49.341  0.00  0.00    -0.019 A 
ATOM     11  C26 <0> A   1     -16.337  10.046  48.191  0.00  0.00    +0.053 A 
ATOM     12  F1  <0> A   1     -16.559  10.964  51.693  0.00  0.00    -0.138 F 
ENDBRANCH   3   6
BRANCH   2  13
ATOM     13  C27 <0> A   1     -13.299   9.819  46.150  0.00  0.00    -0.017 A 
ATOM     14  C28 <0> A   1     -13.711  10.985  45.504  0.00  0.00    +0.034 A 
ATOM     15  C29 <0> A   1     -12.925  12.118  45.562  0.00  0.00    +0.014 A 
ATOM     16  C30 <0> A   1     -11.730  12.099  46.260  0.00  0.00    +0.006 A 
ATOM     17  C31 <0> A   1     -11.316  10.947  46.903  0.00  0.00    -0.004 A 
ATOM     18  C32 <0> A   1     -12.096   9.809  46.856  0.00  0.00    -0.005 A 
ENDBRANCH   2  13
BRANCH   1  20
ATOM     19  N3  <0> A   1     -13.790   7.736  42.692  0.00  0.00    -0.742 N 
ATOM     20  C6  <0> A   1     -13.250   7.611  43.922  0.00  0.00    +0.622 C 
ATOM     21  O1  <0> A   1     -12.046   7.489  44.048  0.00  0.00    -0.488 OA
ATOM     22  H10 <0> A   1     -14.754   7.761  42.586  0.00  0.00    +0.400 HD
BRANCH  19  23
ATOM     23  C5  <0> A   1     -12.920   7.832  41.517  0.00  0.00    +0.439 C 
BRANCH  23  28
ATOM     24  C1  <0> A   1     -12.425  11.810  38.423  0.00  0.00    +0.208 C 
ATOM     25  C2  <0> A   1     -12.814  10.930  39.583  0.00  0.00    +0.074 C 
ATOM     26  C3  <0> A   1     -13.558  11.287  40.646  0.00  0.00    +0.233 C 
ATOM     27  N1  <0> A   1     -13.674  10.218  41.449  0.00  0.00    -0.470 N 
ATOM     28  C4  <0> A   1     -13.030   9.213  40.923  0.00  0.00    +0.311 C 
ATOM     29  N2  <0> A   1     -12.485   9.613  39.754  0.00  0.00    -0.499 N 
ATOM     30  H1  <0> A   1     -11.955   9.069  39.151  0.00  0.00    +0.466 HD
ATOM     31  H37 <0> A   1     -14.160  10.196  42.289  0.00  0.00    +0.461 HD
ENDBRANCH  23  28
ENDBRANCH  19  23
ENDBRANCH   1  20
BRANCH   5  32
ATOM     32  C11 <0> A   1     -15.356   5.473  44.654  0.00  0.00    +0.233 C 
ATOM     33  C12 <0> A   1     -15.213   4.236  45.543  0.00  0.00    +0.036 C 
ATOM     34  C13 <0> A   1     -16.788   5.556  44.123  0.00  0.00    +0.048 C 
ENDBRANCH   5  32
BRANCH   4  35
ATOM     35  C14 <0> A   1     -16.731   6.241  47.298  0.00  0.00    +0.120 C 
BRANCH  35  36
ATOM     36  C15 <0> A   1     -18.069   6.966  47.137  0.00  0.00    -0.009 C 
BRANCH  36  37
ATOM     37  C16 <0> A   1     -19.032   6.508  48.235  0.00  0.00    +0.214 C 
BRANCH  37  38
ATOM     38  O5  <0> A   1     -20.286   6.151  47.649  0.00  0.00    -0.541 OA
ATOM     39  H27 <0> A   1     -20.503   6.649  46.849  0.00  0.00    +0.362 HD
ENDBRANCH  37  38
BRANCH  37  40
ATOM     40  C17 <0> A   1     -18.443   5.296  48.957  0.00  0.00    -0.051 C 
BRANCH  40  41
ATOM     41  C18 <0> A   1     -19.228   5.038  50.245  0.00  0.00    +0.231 C 
BRANCH  41  42
ATOM     42  O4  <0> A   1     -20.273   6.005  50.368  0.00  0.00    -0.528 OA
ATOM     43  H26 <0> A   1     -20.227   6.533  51.177  0.00  0.00    +0.349 HD
ENDBRANCH  41  42
BRANCH  41  44
ATOM     44  C19 <0> A   1     -19.837   3.635  50.199  0.00  0.00    -0.103 C 
BRANCH  44  45
ATOM     45  C20 <0> A   1     -21.317   3.737  49.939  0.00  0.00    +0.490 C 
ATOM     46  O2  <0> A   1     -21.724   3.951  48.809  0.00  0.00    -0.681 OA
ATOM     47  O3  <0> A   1     -22.108   3.605  50.857  0.00  0.00    -0.711 OA
ENDBRANCH  44  45
ENDBRANCH  41  44
ENDBRANCH  40  41
ENDBRANCH  37  40
ENDBRANCH  36  37
ENDBRANCH  35  36
ENDBRANCH   4  35
TORSDOF 15
ENDMDL
MODEL 6
REMARK VINA RESULT:      -7.9      2.839      8.988
REMARK  Name = CHEMBL249273
REMARK  18 active torsions:
REMARK  status: ('A' for Active; 'I' for Inactive)
REMARK    1  A    between atoms: C1_1  and  C2_2
REMARK    2  A    between atoms: C4_5  and  C5_8
REMARK    3  A    between atoms: C5_8  and  N3_9
REMARK    4  A    between atoms: C6_10  and  C7_12
REMARK    5  A    between atoms: C8_13  and  C27_40
REMARK    6  A    between atoms: C9_14  and  C21_33
REMARK    7  A    between atoms: C10_15  and  C14_20
REMARK    8  A    between atoms: N4_16  and  C11_17
REMARK    9  A    between atoms: C11_17  and  C12_18
REMARK   10  A    between atoms: C11_17  and  C13_19
REMARK   11  A    between atoms: C14_20  and  C15_21
REMARK   12  A    between atoms: C15_21  and  C16_22
REMARK   13  A    between atoms: C16_22  and  C17_24
REMARK   14  A    between atoms: C16_22  and  O5_32
REMARK   15  A    between atoms: C17_24  and  C18_25
REMARK   16  A    between atoms: C18_25  and  C19_27
REMARK   17  A    between atoms: C18_25  and  O4_31
REMARK   18  A    between atoms: C19_27  and  C20_28
REMARK                            x       y       z     vdW  Elec       q    Type
REMARK                         _______ _______ _______ _____ _____    ______ ____
ROOT
ATOM      1  C7  <0> A   1     -14.074   7.662  45.068  0.00  0.00    -0.057 C 
ATOM      2  C8  <0> A   1     -14.105   8.635  46.059  0.00  0.00    -0.041 C 
ATOM      3  C9  <0> A   1     -15.089   8.230  46.997  0.00  0.00    -0.116 C 
ATOM      4  C10 <0> A   1     -15.612   7.050  46.556  0.00  0.00    +0.087 C 
ATOM      5  N4  <0> A   1     -15.009   6.706  45.393  0.00  0.00    -0.404 N 
ENDROOT
BRANCH   3   6
ATOM      6  C21 <0> A   1     -15.477   8.955  48.232  0.00  0.00    -0.022 A 
ATOM      7  C22 <0> A   1     -16.332  10.052  48.158  0.00  0.00    +0.056 A 
ATOM      8  C23 <0> A   1     -16.690  10.723  49.309  0.00  0.00    -0.009 A 
ATOM      9  C24 <0> A   1     -16.201  10.307  50.537  0.00  0.00    +0.102 A 
ATOM     10  C25 <0> A   1     -15.351   9.216  50.615  0.00  0.00    -0.019 A 
ATOM     11  C26 <0> A   1     -14.992   8.536  49.470  0.00  0.00    +0.053 A 
ATOM     12  F1  <0> A   1     -16.554  10.967  51.662  0.00  0.00    -0.138 F 
ENDBRANCH   3   6
BRANCH   2  13
ATOM     13  C27 <0> A   1     -13.273   9.858  46.124  0.00  0.00    -0.017 A 
ATOM     14  C28 <0> A   1     -12.064   9.846  46.820  0.00  0.00    +0.034 A 
ATOM     15  C29 <0> A   1     -11.293  10.990  46.877  0.00  0.00    +0.014 A 
ATOM     16  C30 <0> A   1     -11.716  12.146  46.245  0.00  0.00    +0.006 A 
ATOM     17  C31 <0> A   1     -12.914  12.163  45.553  0.00  0.00    -0.004 A 
ATOM     18  C32 <0> A   1     -13.691  11.025  45.485  0.00  0.00    -0.005 A 
ENDBRANCH   2  13
BRANCH   1  20
ATOM     19  N3  <0> A   1     -13.736   7.839  42.662  0.00  0.00    -0.742 N 
ATOM     20  C6  <0> A   1     -13.206   7.657  43.889  0.00  0.00    +0.622 C 
ATOM     21  O1  <0> A   1     -12.008   7.488  44.015  0.00  0.00    -0.488 OA
ATOM     22  H10 <0> A   1     -14.698   7.902  42.554  0.00  0.00    +0.400 HD
BRANCH  19  23
ATOM     23  C5  <0> A   1     -12.858   7.943  41.493  0.00  0.00    +0.439 C 
BRANCH  23  28
ATOM     24  C1  <0> A   1     -12.388  11.906  38.376  0.00  0.00    +0.208 C 
ATOM     25  C2  <0> A   1     -12.815  11.013  39.512  0.00  0.00    +0.074 C 
ATOM     26  C3  <0> A   1     -13.684  11.322  40.493  0.00  0.00    +0.233 C 
ATOM     27  N1  <0> A   1     -13.791  10.258  41.304  0.00  0.00    -0.470 N 
ATOM     28  C4  <0> A   1     -13.021   9.301  40.862  0.00  0.00    +0.311 C 
ATOM     29  N2  <0> A   1     -12.399   9.729  39.742  0.00  0.00    -0.499 N 
ATOM     30  H1  <0> A   1     -11.772   9.222  39.204  0.00  0.00    +0.466 HD
ATOM     31  H37 <0> A   1     -14.352  10.208  42.094  0.00  0.00    +0.461 HD
ENDBRANCH  23  28
ENDBRANCH  19  23
ENDBRANCH   1  20
BRANCH   5  32
ATOM     32  C11 <0> A   1     -15.304   5.506  44.607  0.00  0.00    +0.233 C 
ATOM     33  C12 <0> A   1     -15.114   4.265  45.481  0.00  0.00    +0.036 C 
ATOM     34  C13 <0> A   1     -16.750   5.563  44.110  0.00  0.00    +0.048 C 
ENDBRANCH   5  32
BRANCH   4  35
ATOM     35  C14 <0> A   1     -16.692   6.260  47.249  0.00  0.00    +0.120 C 
BRANCH  35  36
ATOM     36  C15 <0> A   1     -18.037   6.966  47.064  0.00  0.00    -0.009 C 
BRANCH  36  37
ATOM     37  C16 <0> A   1     -18.995   6.539  48.179  0.00  0.00    +0.214 C 
BRANCH  37  38
ATOM     38  O5  <0> A   1     -20.263   6.199  47.612  0.00  0.00    -0.541 OA
ATOM     39  H27 <0> A   1     -20.480   6.691  46.809  0.00  0.00    +0.362 HD
ENDBRANCH  37  38
BRANCH  37  40
ATOM     40  C17 <0> A   1     -18.419   5.324  48.908  0.00  0.00    -0.051 C 
BRANCH  40  41
ATOM     41  C18 <0> A   1     -19.191   5.096  50.209  0.00  0.00    +0.231 C 
BRANCH  41  42
ATOM     42  O4  <0> A   1     -20.232   6.069  50.322  0.00  0.00    -0.528 OA
ATOM     43  H26 <0> A   1     -20.176   6.615  51.119  0.00  0.00    +0.349 HD
ENDBRANCH  41  42
BRANCH  41  44
ATOM     44  C19 <0> A   1     -19.803   3.694  50.201  0.00  0.00    -0.103 C 
BRANCH  44  45
ATOM     45  C20 <0> A   1     -21.279   3.792  49.914  0.00  0.00    +0.490 C 
ATOM     46  O2  <0> A   1     -21.665   4.037  48.783  0.00  0.00    -0.681 OA
ATOM     47  O3  <0> A   1     -22.087   3.626  50.812  0.00  0.00    -0.711 OA
ENDBRANCH  44  45
ENDBRANCH  41  44
ENDBRANCH  40  41
ENDBRANCH  37  40
ENDBRANCH  36  37
ENDBRANCH  35  36
ENDBRANCH   4  35
TORSDOF 15
ENDMDL
MODEL 7
REMARK VINA RESULT:      -7.8      1.037      1.398
REMARK  Name = CHEMBL249273
REMARK  18 active torsions:
REMARK  status: ('A' for Active; 'I' for Inactive)
REMARK    1  A    between atoms: C1_1  and  C2_2
REMARK    2  A    between atoms: C4_5  and  C5_8
REMARK    3  A    between atoms: C5_8  and  N3_9
REMARK    4  A    between atoms: C6_10  and  C7_12
REMARK    5  A    between atoms: C8_13  and  C27_40
REMARK    6  A    between atoms: C9_14  and  C21_33
REMARK    7  A    between atoms: C10_15  and  C14_20
REMARK    8  A    between atoms: N4_16  and  C11_17
REMARK    9  A    between atoms: C11_17  and  C12_18
REMARK   10  A    between atoms: C11_17  and  C13_19
REMARK   11  A    between atoms: C14_20  and  C15_21
REMARK   12  A    between atoms: C15_21  and  C16_22
REMARK   13  A    between atoms: C16_22  and  C17_24
REMARK   14  A    between atoms: C16_22  and  O5_32
REMARK   15  A    between atoms: C17_24  and  C18_25
REMARK   16  A    between atoms: C18_25  and  C19_27
REMARK   17  A    between atoms: C18_25  and  O4_31
REMARK   18  A    between atoms: C19_27  and  C20_28
REMARK                            x       y       z     vdW  Elec       q    Type
REMARK                         _______ _______ _______ _____ _____    ______ ____
ROOT
ATOM      1  C7  <0> A   1     -16.376   6.878  46.645  0.00  0.00    -0.057 C 
ATOM      2  C8  <0> A   1     -15.533   7.938  46.953  0.00  0.00    -0.041 C 
ATOM      3  C9  <0> A   1     -14.437   7.859  46.057  0.00  0.00    -0.116 C 
ATOM      4  C10 <0> A   1     -14.645   6.779  45.251  0.00  0.00    +0.087 C 
ATOM      5  N4  <0> A   1     -15.807   6.181  45.604  0.00  0.00    -0.404 N 
ENDROOT
BRANCH   3   6
ATOM      6  C21 <0> A   1     -13.278   8.783  46.004  0.00  0.00    -0.022 A 
ATOM      7  C22 <0> A   1     -13.348   9.952  45.249  0.00  0.00    +0.056 A 
ATOM      8  C23 <0> A   1     -12.268  10.808  45.204  0.00  0.00    -0.009 A 
ATOM      9  C24 <0> A   1     -11.113  10.507  45.909  0.00  0.00    +0.102 A 
ATOM     10  C25 <0> A   1     -11.038   9.347  46.661  0.00  0.00    -0.019 A 
ATOM     11  C26 <0> A   1     -12.116   8.487  46.716  0.00  0.00    +0.053 A 
ATOM     12  F1  <0> A   1     -10.056  11.348  45.860  0.00  0.00    -0.138 F 
ENDBRANCH   3   6
BRANCH   2  13
ATOM     13  C27 <0> A   1     -15.739   8.952  48.012  0.00  0.00    -0.017 A 
ATOM     14  C28 <0> A   1     -16.323  10.181  47.701  0.00  0.00    +0.034 A 
ATOM     15  C29 <0> A   1     -16.512  11.122  48.692  0.00  0.00    +0.014 A 
ATOM     16  C30 <0> A   1     -16.123  10.850  49.992  0.00  0.00    +0.006 A 
ATOM     17  C31 <0> A   1     -15.544   9.634  50.306  0.00  0.00    -0.004 A 
ATOM     18  C32 <0> A   1     -15.354   8.683  49.325  0.00  0.00    -0.005 A 
ENDBRANCH   2  13
BRANCH   1  20
ATOM     19  N3  <0> A   1     -17.635   5.869  48.471  0.00  0.00    -0.742 N 
ATOM     20  C6  <0> A   1     -17.640   6.557  47.311  0.00  0.00    +0.622 C 
ATOM     21  O1  <0> A   1     -18.695   6.911  46.819  0.00  0.00    -0.488 OA
ATOM     22  H10 <0> A   1     -16.800   5.525  48.827  0.00  0.00    +0.400 HD
BRANCH  19  23
ATOM     23  C5  <0> A   1     -18.889   5.641  49.194  0.00  0.00    +0.439 C 
BRANCH  23  28
ATOM     24  C1  <0> A   1     -17.924   1.851  52.410  0.00  0.00    +0.208 C 
ATOM     25  C2  <0> A   1     -18.191   3.220  51.840  0.00  0.00    +0.074 C 
ATOM     26  C3  <0> A   1     -18.257   4.377  52.526  0.00  0.00    +0.233 C 
ATOM     27  N1  <0> A   1     -18.513   5.363  51.653  0.00  0.00    -0.470 N 
ATOM     28  C4  <0> A   1     -18.609   4.862  50.453  0.00  0.00    +0.311 C 
ATOM     29  N2  <0> A   1     -18.408   3.528  50.524  0.00  0.00    -0.499 N 
ATOM     30  H1  <0> A   1     -18.419   2.904  49.781  0.00  0.00    +0.466 HD
ATOM     31  H37 <0> A   1     -18.612   6.301  51.880  0.00  0.00    +0.461 HD
ENDBRANCH  23  28
ENDBRANCH  19  23
ENDBRANCH   1  20
BRANCH   5  32
ATOM     32  C11 <0> A   1     -16.371   4.984  44.976  0.00  0.00    +0.233 C 
ATOM     33  C12 <0> A   1     -17.010   5.364  43.639  0.00  0.00    +0.036 C 
ATOM     34  C13 <0> A   1     -15.258   3.961  44.736  0.00  0.00    +0.048 C 
ENDBRANCH   5  32
BRANCH   4  35
ATOM     35  C14 <0> A   1     -13.724   6.321  44.149  0.00  0.00    +0.120 C 
BRANCH  35  36
ATOM     36  C15 <0> A   1     -14.017   7.119  42.877  0.00  0.00    -0.009 C 
BRANCH  36  37
ATOM     37  C16 <0> A   1     -12.706   7.401  42.139  0.00  0.00    +0.214 C 
BRANCH  37  38
ATOM     38  O5  <0> A   1     -11.850   6.260  42.237  0.00  0.00    -0.541 OA
ATOM     39  H27 <0> A   1     -11.151   6.348  42.899  0.00  0.00    +0.362 HD
ENDBRANCH  37  38
BRANCH  37  40
ATOM     40  C17 <0> A   1     -13.001   7.691  40.667  0.00  0.00    -0.051 C 
BRANCH  40  41
ATOM     41  C18 <0> A   1     -12.336   9.009  40.263  0.00  0.00    +0.231 C 
BRANCH  41  42
ATOM     42  O4  <0> A   1     -12.227   9.070  38.839  0.00  0.00    -0.528 OA
ATOM     43  H26 <0> A   1     -12.074   8.211  38.419  0.00  0.00    +0.349 HD
ENDBRANCH  41  42
BRANCH  41  44
ATOM     44  C19 <0> A   1     -13.183  10.182  40.759  0.00  0.00    -0.103 C 
BRANCH  44  45
ATOM     45  C20 <0> A   1     -13.316  11.206  39.662  0.00  0.00    +0.490 C 
ATOM     46  O2  <0> A   1     -12.368  11.916  39.373  0.00  0.00    -0.681 OA
ATOM     47  O3  <0> A   1     -14.371  11.324  39.063  0.00  0.00    -0.711 OA
ENDBRANCH  44  45
ENDBRANCH  41  44
ENDBRANCH  40  41
ENDBRANCH  37  40
ENDBRANCH  36  37
ENDBRANCH  35  36
ENDBRANCH   4  35
TORSDOF 15
ENDMDL
MODEL 8
REMARK VINA RESULT:      -7.8      3.438      8.114
REMARK  Name = CHEMBL249273
REMARK  18 active torsions:
REMARK  status: ('A' for Active; 'I' for Inactive)
REMARK    1  A    between atoms: C1_1  and  C2_2
REMARK    2  A    between atoms: C4_5  and  C5_8
REMARK    3  A    between atoms: C5_8  and  N3_9
REMARK    4  A    between atoms: C6_10  and  C7_12
REMARK    5  A    between atoms: C8_13  and  C27_40
REMARK    6  A    between atoms: C9_14  and  C21_33
REMARK    7  A    between atoms: C10_15  and  C14_20
REMARK    8  A    between atoms: N4_16  and  C11_17
REMARK    9  A    between atoms: C11_17  and  C12_18
REMARK   10  A    between atoms: C11_17  and  C13_19
REMARK   11  A    between atoms: C14_20  and  C15_21
REMARK   12  A    between atoms: C15_21  and  C16_22
REMARK   13  A    between atoms: C16_22  and  C17_24
REMARK   14  A    between atoms: C16_22  and  O5_32
REMARK   15  A    between atoms: C17_24  and  C18_25
REMARK   16  A    between atoms: C18_25  and  C19_27
REMARK   17  A    between atoms: C18_25  and  O4_31
REMARK   18  A    between atoms: C19_27  and  C20_28
REMARK                            x       y       z     vdW  Elec       q    Type
REMARK                         _______ _______ _______ _____ _____    ______ ____
ROOT
ATOM      1  C7  <0> A   1     -13.575   9.417  45.324  0.00  0.00    -0.057 C 
ATOM      2  C8  <0> A   1     -14.108   9.691  46.577  0.00  0.00    -0.041 C 
ATOM      3  C9  <0> A   1     -14.228   8.447  47.248  0.00  0.00    -0.116 C 
ATOM      4  C10 <0> A   1     -13.773   7.480  46.402  0.00  0.00    +0.087 C 
ATOM      5  N4  <0> A   1     -13.385   8.057  45.239  0.00  0.00    -0.404 N 
ENDROOT
BRANCH   3   6
ATOM      6  C21 <0> A   1     -14.750   8.237  48.621  0.00  0.00    -0.022 A 
ATOM      7  C22 <0> A   1     -13.965   7.598  49.578  0.00  0.00    +0.056 A 
ATOM      8  C23 <0> A   1     -14.455   7.405  50.853  0.00  0.00    -0.009 A 
ATOM      9  C24 <0> A   1     -15.727   7.847  51.183  0.00  0.00    +0.102 A 
ATOM     10  C25 <0> A   1     -16.511   8.484  50.235  0.00  0.00    -0.019 A 
ATOM     11  C26 <0> A   1     -16.027   8.685  48.959  0.00  0.00    +0.053 A 
ATOM     12  F1  <0> A   1     -16.204   7.655  52.432  0.00  0.00    -0.138 F 
ENDBRANCH   3   6
BRANCH   2  13
ATOM     13  C27 <0> A   1     -14.480  11.022  47.108  0.00  0.00    -0.017 A 
ATOM     14  C28 <0> A   1     -15.784  11.495  46.963  0.00  0.00    +0.034 A 
ATOM     15  C29 <0> A   1     -16.124  12.737  47.461  0.00  0.00    +0.014 A 
ATOM     16  C30 <0> A   1     -15.174  13.512  48.102  0.00  0.00    +0.006 A 
ATOM     17  C31 <0> A   1     -13.879  13.048  48.249  0.00  0.00    -0.004 A 
ATOM     18  C32 <0> A   1     -13.528  11.807  47.760  0.00  0.00    -0.005 A 
ENDBRANCH   2  13
BRANCH   1  20
ATOM     19  N3  <0> A   1     -14.151  10.604  43.276  0.00  0.00    -0.742 N 
ATOM     20  C6  <0> A   1     -13.274  10.398  44.279  0.00  0.00    +0.622 C 
ATOM     21  O1  <0> A   1     -12.234  11.028  44.317  0.00  0.00    -0.488 OA
ATOM     22  H10 <0> A   1     -14.946  10.052  43.206  0.00  0.00    +0.400 HD
BRANCH  19  23
ATOM     23  C5  <0> A   1     -13.903  11.661  42.291  0.00  0.00    +0.439 C 
BRANCH  23  28
ATOM     24  C1  <0> A   1     -12.444   8.294  38.802  0.00  0.00    +0.208 C 
ATOM     25  C2  <0> A   1     -12.800   9.584  39.495  0.00  0.00    +0.074 C 
ATOM     26  C3  <0> A   1     -12.761  10.819  38.962  0.00  0.00    +0.233 C 
ATOM     27  N1  <0> A   1     -13.151  11.691  39.904  0.00  0.00    -0.470 N 
ATOM     28  C4  <0> A   1     -13.430  11.042  41.001  0.00  0.00    +0.311 C 
ATOM     29  N2  <0> A   1     -13.230   9.724  40.787  0.00  0.00    -0.499 N 
ATOM     30  H1  <0> A   1     -13.363   9.010  41.430  0.00  0.00    +0.466 HD
ATOM     31  H37 <0> A   1     -13.216  12.652  39.787  0.00  0.00    +0.461 HD
ENDBRANCH  23  28
ENDBRANCH  19  23
ENDBRANCH   1  20
BRANCH   5  32
ATOM     32  C11 <0> A   1     -12.844   7.346  44.079  0.00  0.00    +0.233 C 
ATOM     33  C12 <0> A   1     -13.884   7.336  42.957  0.00  0.00    +0.036 C 
ATOM     34  C13 <0> A   1     -11.576   8.051  43.593  0.00  0.00    +0.048 C 
ENDBRANCH   5  32
BRANCH   4  35
ATOM     35  C14 <0> A   1     -13.719   6.006  46.708  0.00  0.00    +0.120 C 
BRANCH  35  36
ATOM     36  C15 <0> A   1     -14.684   5.258  45.785  0.00  0.00    -0.009 C 
BRANCH  36  37
ATOM     37  C16 <0> A   1     -16.085   5.860  45.918  0.00  0.00    +0.214 C 
BRANCH  37  38
ATOM     38  O5  <0> A   1     -16.885   5.454  44.804  0.00  0.00    -0.541 OA
ATOM     39  H27 <0> A   1     -17.623   6.048  44.613  0.00  0.00    +0.362 HD
ENDBRANCH  37  38
BRANCH  37  40
ATOM     40  C17 <0> A   1     -16.730   5.368  47.215  0.00  0.00    -0.051 C 
BRANCH  40  41
ATOM     41  C18 <0> A   1     -17.812   6.357  47.654  0.00  0.00    +0.231 C 
BRANCH  41  42
ATOM     42  O4  <0> A   1     -18.655   6.664  46.542  0.00  0.00    -0.528 OA
ATOM     43  H26 <0> A   1     -18.242   7.237  45.881  0.00  0.00    +0.349 HD
ENDBRANCH  41  42
BRANCH  41  44
ATOM     44  C19 <0> A   1     -18.650   5.734  48.772  0.00  0.00    -0.103 C 
BRANCH  44  45
ATOM     45  C20 <0> A   1     -20.085   6.169  48.627  0.00  0.00    +0.490 C 
ATOM     46  O2  <0> A   1     -20.434   7.264  49.034  0.00  0.00    -0.681 OA
ATOM     47  O3  <0> A   1     -20.896   5.426  48.101  0.00  0.00    -0.711 OA
ENDBRANCH  44  45
ENDBRANCH  41  44
ENDBRANCH  40  41
ENDBRANCH  37  40
ENDBRANCH  36  37
ENDBRANCH  35  36
ENDBRANCH   4  35
TORSDOF 15
ENDMDL
MODEL 9
REMARK VINA RESULT:      -7.6     14.333     18.853
REMARK  Name = CHEMBL249273
REMARK  18 active torsions:
REMARK  status: ('A' for Active; 'I' for Inactive)
REMARK    1  A    between atoms: C1_1  and  C2_2
REMARK    2  A    between atoms: C4_5  and  C5_8
REMARK    3  A    between atoms: C5_8  and  N3_9
REMARK    4  A    between atoms: C6_10  and  C7_12
REMARK    5  A    between atoms: C8_13  and  C27_40
REMARK    6  A    between atoms: C9_14  and  C21_33
REMARK    7  A    between atoms: C10_15  and  C14_20
REMARK    8  A    between atoms: N4_16  and  C11_17
REMARK    9  A    between atoms: C11_17  and  C12_18
REMARK   10  A    between atoms: C11_17  and  C13_19
REMARK   11  A    between atoms: C14_20  and  C15_21
REMARK   12  A    between atoms: C15_21  and  C16_22
REMARK   13  A    between atoms: C16_22  and  C17_24
REMARK   14  A    between atoms: C16_22  and  O5_32
REMARK   15  A    between atoms: C17_24  and  C18_25
REMARK   16  A    between atoms: C18_25  and  C19_27
REMARK   17  A    between atoms: C18_25  and  O4_31
REMARK   18  A    between atoms: C19_27  and  C20_28
REMARK                            x       y       z     vdW  Elec       q    Type
REMARK                         _______ _______ _______ _____ _____    ______ ____
ROOT
ATOM      1  C7  <0> A   1     -25.089  -2.511  51.959  0.00  0.00    -0.057 C 
ATOM      2  C8  <0> A   1     -26.391  -2.976  52.095  0.00  0.00    -0.041 C 
ATOM      3  C9  <0> A   1     -26.340  -4.383  51.924  0.00  0.00    -0.116 C 
ATOM      4  C10 <0> A   1     -25.039  -4.721  51.695  0.00  0.00    +0.087 C 
ATOM      5  N4  <0> A   1     -24.282  -3.598  51.709  0.00  0.00    -0.404 N 
ENDROOT
BRANCH   3   6
ATOM      6  C21 <0> A   1     -27.491  -5.318  51.984  0.00  0.00    -0.022 A 
ATOM      7  C22 <0> A   1     -27.805  -5.964  53.177  0.00  0.00    +0.056 A 
ATOM      8  C23 <0> A   1     -28.877  -6.831  53.228  0.00  0.00    -0.009 A 
ATOM      9  C24 <0> A   1     -29.641  -7.060  52.094  0.00  0.00    +0.102 A 
ATOM     10  C25 <0> A   1     -29.332  -6.419  50.905  0.00  0.00    -0.019 A 
ATOM     11  C26 <0> A   1     -28.266  -5.546  50.847  0.00  0.00    +0.053 A 
ATOM     12  F1  <0> A   1     -30.689  -7.911  52.148  0.00  0.00    -0.138 F 
ENDBRANCH   3   6
BRANCH   2  13
ATOM     13  C27 <0> A   1     -27.597  -2.162  52.366  0.00  0.00    -0.017 A 
ATOM     14  C28 <0> A   1     -28.471  -1.837  51.328  0.00  0.00    +0.034 A 
ATOM     15  C29 <0> A   1     -29.593  -1.077  51.587  0.00  0.00    +0.014 A 
ATOM     16  C30 <0> A   1     -29.853  -0.637  52.874  0.00  0.00    +0.006 A 
ATOM     17  C31 <0> A   1     -28.990  -0.956  53.906  0.00  0.00    -0.004 A 
ATOM     18  C32 <0> A   1     -27.867  -1.719  53.661  0.00  0.00    -0.005 A 
ENDBRANCH   2  13
BRANCH   1  20
ATOM     19  N3  <0> A   1     -24.816  -0.285  51.009  0.00  0.00    -0.742 N 
ATOM     20  C6  <0> A   1     -24.655  -1.117  52.058  0.00  0.00    +0.622 C 
ATOM     21  O1  <0> A   1     -24.148  -0.708  53.086  0.00  0.00    -0.488 OA
ATOM     22  H10 <0> A   1     -25.153  -0.627  50.167  0.00  0.00    +0.400 HD
BRANCH  19  23
ATOM     23  C5  <0> A   1     -24.482   1.136  51.144  0.00  0.00    +0.439 C 
BRANCH  23  28
ATOM     24  C1  <0> A   1     -29.270   2.692  51.691  0.00  0.00    +0.208 C 
ATOM     25  C2  <0> A   1     -27.774   2.568  51.825  0.00  0.00    +0.074 C 
ATOM     26  C3  <0> A   1     -26.971   3.327  52.594  0.00  0.00    +0.233 C 
ATOM     27  N1  <0> A   1     -25.711   2.896  52.431  0.00  0.00    -0.470 N 
ATOM     28  C4  <0> A   1     -25.703   1.898  51.591  0.00  0.00    +0.311 C 
ATOM     29  N2  <0> A   1     -26.971   1.657  51.194  0.00  0.00    -0.499 N 
ATOM     30  H1  <0> A   1     -27.258   0.969  50.573  0.00  0.00    +0.466 HD
ATOM     31  H37 <0> A   1     -24.930   3.268  52.869  0.00  0.00    +0.461 HD
ENDBRANCH  23  28
ENDBRANCH  19  23
ENDBRANCH   1  20
BRANCH   5  32
ATOM     32  C11 <0> A   1     -22.834  -3.548  51.496  0.00  0.00    +0.233 C 
ATOM     33  C12 <0> A   1     -22.508  -2.475  50.455  0.00  0.00    +0.036 C 
ATOM     34  C13 <0> A   1     -22.135  -3.210  52.814  0.00  0.00    +0.048 C 
ENDBRANCH   5  32
BRANCH   4  35
ATOM     35  C14 <0> A   1     -24.527  -6.118  51.458  0.00  0.00    +0.120 C 
BRANCH  35  36
ATOM     36  C15 <0> A   1     -24.734  -6.493  49.989  0.00  0.00    -0.009 C 
BRANCH  36  37
ATOM     37  C16 <0> A   1     -25.022  -7.993  49.881  0.00  0.00    +0.214 C 
BRANCH  37  38
ATOM     38  O5  <0> A   1     -25.613  -8.274  48.610  0.00  0.00    -0.541 OA
ATOM     39  H27 <0> A   1     -26.504  -7.915  48.502  0.00  0.00    +0.362 HD
ENDBRANCH  37  38
BRANCH  37  40
ATOM     40  C17 <0> A   1     -23.715  -8.774  50.020  0.00  0.00    -0.051 C 
BRANCH  40  41
ATOM     41  C18 <0> A   1     -24.023 -10.216  50.428  0.00  0.00    +0.231 C 
BRANCH  41  42
ATOM     42  O4  <0> A   1     -25.430 -10.364  50.627  0.00  0.00    -0.528 OA
ATOM     43  H26 <0> A   1     -25.667 -11.063  51.253  0.00  0.00    +0.349 HD
ENDBRANCH  41  42
BRANCH  41  44
ATOM     44  C19 <0> A   1     -23.561 -11.169  49.324  0.00  0.00    -0.103 C 
BRANCH  44  45
ATOM     45  C20 <0> A   1     -24.757 -11.870  48.733  0.00  0.00    +0.490 C 
ATOM     46  O2  <0> A   1     -25.025 -13.011  49.073  0.00  0.00    -0.681 OA
ATOM     47  O3  <0> A   1     -25.457 -11.297  47.916  0.00  0.00    -0.711 OA
ENDBRANCH  44  45
ENDBRANCH  41  44
ENDBRANCH  40  41
ENDBRANCH  37  40
ENDBRANCH  36  37
ENDBRANCH  35  36
ENDBRANCH   4  35
TORSDOF 15
ENDMDL
MODEL 10
REMARK VINA RESULT:      -7.5      3.469      6.057
REMARK  Name = CHEMBL249273
REMARK  18 active torsions:
REMARK  status: ('A' for Active; 'I' for Inactive)
REMARK    1  A    between atoms: C1_1  and  C2_2
REMARK    2  A    between atoms: C4_5  and  C5_8
REMARK    3  A    between atoms: C5_8  and  N3_9
REMARK    4  A    between atoms: C6_10  and  C7_12
REMARK    5  A    between atoms: C8_13  and  C27_40
REMARK    6  A    between atoms: C9_14  and  C21_33
REMARK    7  A    between atoms: C10_15  and  C14_20
REMARK    8  A    between atoms: N4_16  and  C11_17
REMARK    9  A    between atoms: C11_17  and  C12_18
REMARK   10  A    between atoms: C11_17  and  C13_19
REMARK   11  A    between atoms: C14_20  and  C15_21
REMARK   12  A    between atoms: C15_21  and  C16_22
REMARK   13  A    between atoms: C16_22  and  C17_24
REMARK   14  A    between atoms: C16_22  and  O5_32
REMARK   15  A    between atoms: C17_24  and  C18_25
REMARK   16  A    between atoms: C18_25  and  C19_27
REMARK   17  A    between atoms: C18_25  and  O4_31
REMARK   18  A    between atoms: C19_27  and  C20_28
REMARK                            x       y       z     vdW  Elec       q    Type
REMARK                         _______ _______ _______ _____ _____    ______ ____
ROOT
ATOM      1  C7  <0> A   1     -16.999   8.316  49.943  0.00  0.00    -0.057 C 
ATOM      2  C8  <0> A   1     -17.226   7.225  49.113  0.00  0.00    -0.041 C 
ATOM      3  C9  <0> A   1     -16.303   7.330  48.042  0.00  0.00    -0.116 C 
ATOM      4  C10 <0> A   1     -15.561   8.455  48.250  0.00  0.00    +0.087 C 
ATOM      5  N4  <0> A   1     -15.980   9.056  49.389  0.00  0.00    -0.404 N 
ENDROOT
BRANCH   3   6
ATOM      6  C21 <0> A   1     -16.168   6.387  46.904  0.00  0.00    -0.022 A 
ATOM      7  C22 <0> A   1     -16.875   6.610  45.724  0.00  0.00    +0.056 A 
ATOM      8  C23 <0> A   1     -16.745   5.731  44.669  0.00  0.00    -0.009 A 
ATOM      9  C24 <0> A   1     -15.913   4.628  44.781  0.00  0.00    +0.102 A 
ATOM     10  C25 <0> A   1     -15.208   4.403  45.952  0.00  0.00    -0.019 A 
ATOM     11  C26 <0> A   1     -15.327   5.280  47.010  0.00  0.00    +0.053 A 
ATOM     12  F1  <0> A   1     -15.790   3.769  43.745  0.00  0.00    -0.138 F 
ENDBRANCH   3   6
BRANCH   2  13
ATOM     13  C27 <0> A   1     -18.235   6.160  49.310  0.00  0.00    -0.017 A 
ATOM     14  C28 <0> A   1     -17.894   4.987  49.984  0.00  0.00    +0.034 A 
ATOM     15  C29 <0> A   1     -18.840   3.998  50.164  0.00  0.00    +0.014 A 
ATOM     16  C30 <0> A   1     -20.124   4.168  49.677  0.00  0.00    +0.006 A 
ATOM     17  C31 <0> A   1     -20.468   5.328  49.008  0.00  0.00    -0.004 A 
ATOM     18  C32 <0> A   1     -19.533   6.326  48.826  0.00  0.00    -0.005 A 
ENDBRANCH   2  13
BRANCH   1  20
ATOM     19  N3  <0> A   1     -18.833   9.384  51.140  0.00  0.00    -0.742 N 
ATOM     20  C6  <0> A   1     -17.718   8.625  51.180  0.00  0.00    +0.622 C 
ATOM     21  O1  <0> A   1     -17.312   8.198  52.244  0.00  0.00    -0.488 OA
ATOM     22  H10 <0> A   1     -19.117   9.784  50.303  0.00  0.00    +0.400 HD
BRANCH  19  23
ATOM     23  C5  <0> A   1     -19.614   9.604  52.360  0.00  0.00    +0.439 C 
BRANCH  23  28
ATOM     24  C1  <0> A   1     -23.725  10.968  49.737  0.00  0.00    +0.208 C 
ATOM     25  C2  <0> A   1     -22.743  10.744  50.859  0.00  0.00    +0.074 C 
ATOM     26  C3  <0> A   1     -22.909  11.086  52.151  0.00  0.00    +0.233 C 
ATOM     27  N1  <0> A   1     -21.809  10.715  52.823  0.00  0.00    -0.470 N 
ATOM     28  C4  <0> A   1     -20.968  10.156  51.997  0.00  0.00    +0.311 C 
ATOM     29  N2  <0> A   1     -21.515  10.148  50.762  0.00  0.00    -0.499 N 
ATOM     30  H1  <0> A   1     -21.111   9.790  49.956  0.00  0.00    +0.466 HD
ATOM     31  H37 <0> A   1     -21.661  10.842  53.773  0.00  0.00    +0.461 HD
ENDBRANCH  23  28
ENDBRANCH  19  23
ENDBRANCH   1  20
BRANCH   5  32
ATOM     32  C11 <0> A   1     -15.431  10.295  49.945  0.00  0.00    +0.233 C 
ATOM     33  C12 <0> A   1     -14.057  10.015  50.555  0.00  0.00    +0.036 C 
ATOM     34  C13 <0> A   1     -15.294  11.337  48.833  0.00  0.00    +0.048 C 
ENDBRANCH   5  32
BRANCH   4  35
ATOM     35  C14 <0> A   1     -14.458   8.953  47.352  0.00  0.00    +0.120 C 
BRANCH  35  36
ATOM     36  C15 <0> A   1     -13.168   8.189  47.659  0.00  0.00    -0.009 C 
BRANCH  36  37
ATOM     37  C16 <0> A   1     -12.462   7.832  46.349  0.00  0.00    +0.214 C 
BRANCH  37  38
ATOM     38  O5  <0> A   1     -12.107   6.448  46.362  0.00  0.00    -0.541 OA
ATOM     39  H27 <0> A   1     -11.262   6.254  45.934  0.00  0.00    +0.362 HD
ENDBRANCH  37  38
BRANCH  37  40
ATOM     40  C17 <0> A   1     -13.401   8.107  45.173  0.00  0.00    -0.051 C 
BRANCH  40  41
ATOM     41  C18 <0> A   1     -12.577   8.337  43.905  0.00  0.00    +0.231 C 
BRANCH  41  42
ATOM     42  O4  <0> A   1     -11.763   7.190  43.650  0.00  0.00    -0.528 OA
ATOM     43  H26 <0> A   1     -11.963   6.743  42.816  0.00  0.00    +0.349 HD
ENDBRANCH  41  42
BRANCH  41  44
ATOM     44  C19 <0> A   1     -13.517   8.568  42.720  0.00  0.00    -0.103 C 
BRANCH  44  45
ATOM     45  C20 <0> A   1     -13.559   7.329  41.863  0.00  0.00    +0.490 C 
ATOM     46  O2  <0> A   1     -14.317   6.417  42.148  0.00  0.00    -0.681 OA
ATOM     47  O3  <0> A   1     -12.836   7.239  40.886  0.00  0.00    -0.711 OA
ENDBRANCH  44  45
ENDBRANCH  41  44
ENDBRANCH  40  41
ENDBRANCH  37  40
ENDBRANCH  36  37
ENDBRANCH  35  36
ENDBRANCH   4  35
TORSDOF 15
ENDMDL
