REMARK VINA RESULT:      -6.9     23.020     24.405
REMARK  Name = CHEMBL143143
REMARK  13 active torsions:
REMARK  status: ('A' for Active; 'I' for Inactive)
REMARK    1  A    between atoms: C1_1  and  C2_2
REMARK    2  A    between atoms: C2_2  and  C3_3
REMARK    3  A    between atoms: C2_2  and  C4_4
REMARK    4  A    between atoms: C7_7  and  C15_21
REMARK    5  A    between atoms: N1_8  and  C8_9
REMARK    6  A    between atoms: C8_9  and  C9_10
REMARK    7  A    between atoms: C9_10  and  C10_11
REMARK    8  A    between atoms: C10_11  and  C11_12
REMARK    9  A    between atoms: C10_11  and  O4_20
REMARK   10  A    between atoms: C11_12  and  C12_13
REMARK   11  A    between atoms: C12_13  and  C13_15
REMARK   12  A    between atoms: C12_13  and  O3_19
REMARK   13  A    between atoms: C13_15  and  C14_16
REMARK                            x       y       z     vdW  Elec       q    Type
REMARK                         _______ _______ _______ _____ _____    ______ ____
ROOT
ATOM      1  C4  <0> A   1       3.881  22.108  32.962  0.00  0.00    +0.089 C 
ATOM      2  C5  <0> A   1       3.212  22.790  33.916  0.00  0.00    -0.144 C 
ATOM      3  C6  <0> A   1       3.650  22.320  35.166  0.00  0.00    -0.126 C 
ATOM      4  C7  <0> A   1       4.584  21.355  34.931  0.00  0.00    +0.099 C 
ATOM      5  N1  <0> A   1       4.720  21.222  33.572  0.00  0.00    -0.417 N 
ATOM      6 Br1  <0> A   1       3.056  22.915  36.860  0.00  0.00    -0.015 Br
ATOM      7 Br2  <0> A   1       1.917  24.137  33.624  0.00  0.00    -0.013 Br
ENDROOT
BRANCH   4   8
ATOM      8  C15 <0> A   1       5.316  20.584  35.959  0.00  0.00    -0.041 A 
ATOM      9  C16 <0> A   1       4.768  19.408  36.473  0.00  0.00    +0.056 A 
ATOM     10  C17 <0> A   1       5.456  18.692  37.431  0.00  0.00    -0.007 A 
ATOM     11  C18 <0> A   1       6.688  19.139  37.883  0.00  0.00    +0.110 A 
ATOM     12  C19 <0> A   1       7.235  20.306  37.375  0.00  0.00    -0.007 A 
ATOM     13  C20 <0> A   1       6.559  21.027  36.412  0.00  0.00    +0.080 A 
ATOM     14  F1  <0> A   1       7.357  18.435  38.821  0.00  0.00    -0.136 F 
ENDBRANCH   4   8
BRANCH   1  16
ATOM     15  C1  <0> A   1       5.100  22.486  30.836  0.00  0.00    +0.040 C 
ATOM     16  C2  <0> A   1       3.723  22.290  31.474  0.00  0.00    +0.053 C 
ATOM     17  C3  <0> A   1       3.056  21.050  30.878  0.00  0.00    +0.041 C 
ENDBRANCH   1  16
BRANCH   5  18
ATOM     18  C8  <0> A   1       5.619  20.288  32.891  0.00  0.00    +0.302 C 
BRANCH  18  19
ATOM     19  C9  <0> A   1       4.933  18.927  32.752  0.00  0.00    -0.014 C 
BRANCH  19  20
ATOM     20  C10 <0> A   1       5.199  18.361  31.357  0.00  0.00    +0.218 C 
BRANCH  20  21
ATOM     21  O4  <0> A   1       6.473  17.713  31.341  0.00  0.00    -0.541 OA
ATOM     22  H19 <0> A   1       7.219  18.316  31.229  0.00  0.00    +0.367 HD
ENDBRANCH  20  21
BRANCH  20  23
ATOM     23  C11 <0> A   1       4.107  17.349  31.000  0.00  0.00    -0.047 C 
BRANCH  23  24
ATOM     24  C12 <0> A   1       3.972  17.261  29.478  0.00  0.00    +0.231 C 
BRANCH  24  25
ATOM     25  O3  <0> A   1       4.707  18.325  28.872  0.00  0.00    -0.528 OA
ATOM     26  H18 <0> A   1       4.250  19.177  28.885  0.00  0.00    +0.350 HD
ENDBRANCH  24  25
BRANCH  24  27
ATOM     27  C13 <0> A   1       4.526  15.919  28.995  0.00  0.00    -0.102 C 
BRANCH  27  28
ATOM     28  C14 <0> A   1       5.640  16.161  28.010  0.00  0.00    +0.491 C 
ATOM     29  O1  <0> A   1       6.747  16.482  28.408  0.00  0.00    -0.681 OA
ATOM     30  O2  <0> A   1       5.435  16.034  26.814  0.00  0.00    -0.712 OA
ENDBRANCH  27  28
ENDBRANCH  24  27
ENDBRANCH  23  24
ENDBRANCH  20  23
ENDBRANCH  19  20
ENDBRANCH  18  19
ENDBRANCH   5  18
TORSDOF 11
