REMARK VINA RESULT:      -8.6     14.921     18.710
REMARK  Name = CHEMBL228528
REMARK  14 active torsions:
REMARK  status: ('A' for Active; 'I' for Inactive)
REMARK    1  A    between atoms: C1_1  and  C2_2
REMARK    2  A    between atoms: C2_2  and  C3_3
REMARK    3  A    between atoms: C2_2  and  N1_4
REMARK    4  A    between atoms: C4_5  and  C27_32
REMARK    5  A    between atoms: C5_6  and  C21_25
REMARK    6  A    between atoms: N2_11  and  C15_18
REMARK    7  A    between atoms: C27_32  and  C28_33
REMARK    8  A    between atoms: C28_33  and  C29_34
REMARK    9  A    between atoms: C29_34  and  C30_36
REMARK   10  A    between atoms: C29_34  and  O5_44
REMARK   11  A    between atoms: C30_36  and  C31_37
REMARK   12  A    between atoms: C31_37  and  C32_39
REMARK   13  A    between atoms: C31_37  and  O4_43
REMARK   14  A    between atoms: C32_39  and  C33_40
REMARK                            x       y       z     vdW  Elec       q    Type
REMARK                         _______ _______ _______ _____ _____    ______ ____
ROOT
ATOM      1  N1  <0> A   1     -25.111  -1.901  51.748  0.00  0.00    -0.391 N 
ATOM      2  C4  <0> A   1     -26.132  -1.112  52.167  0.00  0.00    +0.111 C 
ATOM      3  C5  <0> A   1     -27.228  -1.883  52.416  0.00  0.00    -0.129 C 
ATOM      4  C6  <0> A   1     -26.844  -3.259  52.124  0.00  0.00    -0.042 C 
ATOM      5  C7  <0> A   1     -25.514  -3.216  51.704  0.00  0.00    -0.046 C 
ATOM      6  C8  <0> A   1     -24.863  -4.417  51.344  0.00  0.00    +0.582 C 
ATOM      7  O1  <0> A   1     -23.701  -4.378  50.980  0.00  0.00    -0.519 OA
ATOM      8  N2  <0> A   1     -25.497  -5.601  51.391  0.00  0.00    -0.482 N 
ATOM      9  C9  <0> A   1     -26.817  -5.709  51.795  0.00  0.00    +0.159 A 
ATOM     10  C10 <0> A   1     -27.529  -4.559  52.177  0.00  0.00    -0.049 A 
ATOM     11  C11 <0> A   1     -28.857  -4.665  52.582  0.00  0.00    +0.066 A 
ATOM     12  C12 <0> A   1     -29.464  -5.902  52.619  0.00  0.00    -0.009 A 
ATOM     13  C13 <0> A   1     -28.758  -7.038  52.256  0.00  0.00    +0.047 A 
ATOM     14  C14 <0> A   1     -27.448  -6.947  51.835  0.00  0.00    -0.019 A 
ENDROOT
BRANCH   8  15
ATOM     15  C15 <0> A   1     -24.803  -6.758  51.022  0.00  0.00    +0.157 A 
ATOM     16  C16 <0> A   1     -24.209  -7.554  51.994  0.00  0.00    +0.025 A 
ATOM     17  C17 <0> A   1     -23.525  -8.697  51.627  0.00  0.00    +0.063 A 
ATOM     18  C18 <0> A   1     -23.431  -9.051  50.294  0.00  0.00    +0.001 A 
ATOM     19  C19 <0> A   1     -24.022  -8.261  49.322  0.00  0.00    +0.110 A 
ATOM     20  C20 <0> A   1     -24.713  -7.119  49.684  0.00  0.00    +0.003 A 
ATOM     21  F1  <0> A   1     -23.930  -8.610  48.020  0.00  0.00    -0.133 F 
ENDBRANCH   8  15
BRANCH   3  22
ATOM     22  C21 <0> A   1     -28.552  -1.414  52.892  0.00  0.00    -0.013 A 
ATOM     23  C22 <0> A   1     -29.580  -1.180  51.981  0.00  0.00    +0.054 A 
ATOM     24  C23 <0> A   1     -30.811  -0.744  52.427  0.00  0.00    -0.012 A 
ATOM     25  C24 <0> A   1     -31.025  -0.538  53.780  0.00  0.00    +0.098 A 
ATOM     26  C25 <0> A   1     -30.006  -0.767  54.690  0.00  0.00    -0.014 A 
ATOM     27  C26 <0> A   1     -28.775  -1.210  54.253  0.00  0.00    +0.054 A 
ATOM     28  F2  <0> A   1     -32.231  -0.110  54.213  0.00  0.00    -0.140 F 
ENDBRANCH   3  22
BRANCH   1  30
ATOM     29  C1  <0> A   1     -23.856  -0.621  50.085  0.00  0.00    +0.045 C 
ATOM     30  C2  <0> A   1     -23.775  -1.422  51.386  0.00  0.00    +0.229 C 
ATOM     31  C3  <0> A   1     -23.233  -0.527  52.502  0.00  0.00    +0.046 C 
ENDBRANCH   1  30
BRANCH   2  32
ATOM     32  C27 <0> A   1     -26.063   0.384  52.333  0.00  0.00    +0.122 C 
BRANCH  32  33
ATOM     33  C28 <0> A   1     -26.642   1.062  51.089  0.00  0.00    -0.005 C 
BRANCH  33  34
ATOM     34  C29 <0> A   1     -27.635   2.146  51.516  0.00  0.00    +0.214 C 
BRANCH  34  35
ATOM     35  O5  <0> A   1     -28.903   1.897  50.907  0.00  0.00    -0.542 OA
ATOM     36  H31 <0> A   1     -28.860   1.328  50.126  0.00  0.00    +0.364 HD
ENDBRANCH  34  35
BRANCH  34  37
ATOM     37  C30 <0> A   1     -27.787   2.127  53.038  0.00  0.00    -0.051 C 
BRANCH  37  38
ATOM     38  C31 <0> A   1     -28.526   3.387  53.492  0.00  0.00    +0.231 C 
BRANCH  38  39
ATOM     39  O4  <0> A   1     -28.807   4.209  52.357  0.00  0.00    -0.528 OA
ATOM     40  H30 <0> A   1     -28.272   5.014  52.312  0.00  0.00    +0.349 HD
ENDBRANCH  38  39
BRANCH  38  41
ATOM     41  C32 <0> A   1     -29.838   2.992  54.172  0.00  0.00    -0.103 C 
BRANCH  41  42
ATOM     42  C33 <0> A   1     -30.998   3.387  53.295  0.00  0.00    +0.490 C 
ATOM     43  O2  <0> A   1     -31.683   4.352  53.589  0.00  0.00    -0.681 OA
ATOM     44  O3  <0> A   1     -31.252   2.742  52.292  0.00  0.00    -0.713 OA
ENDBRANCH  41  42
ENDBRANCH  38  41
ENDBRANCH  37  38
ENDBRANCH  34  37
ENDBRANCH  33  34
ENDBRANCH  32  33
ENDBRANCH   2  32
TORSDOF 12
