REMARK VINA RESULT:      -8.4     17.023     20.791
REMARK  Name = CHEMBL122674
REMARK  12 active torsions:
REMARK  status: ('A' for Active; 'I' for Inactive)
REMARK    1  A    between atoms: C4_4  and  C7_7
REMARK    2  A    between atoms: C10_10  and  C13_13
REMARK    3  A    between atoms: C13_13  and  C14_14
REMARK    4  A    between atoms: N2_21  and  C28_36
REMARK    5  A    between atoms: C20_22  and  C21_23
REMARK    6  A    between atoms: C22_24  and  C23_25
REMARK    7  A    between atoms: C23_25  and  C24_27
REMARK    8  A    between atoms: C23_25  and  O4_35
REMARK    9  A    between atoms: C24_27  and  C25_28
REMARK   10  A    between atoms: C25_28  and  C26_30
REMARK   11  A    between atoms: C25_28  and  O3_34
REMARK   12  A    between atoms: C26_30  and  C27_31
REMARK                            x       y       z     vdW  Elec       q    Type
REMARK                         _______ _______ _______ _____ _____    ______ ____
ROOT
ATOM      1  C14 <0> A   1     -25.308  -3.625  50.837  0.00  0.00    +0.092 C 
ATOM      2  C15 <0> A   1     -26.192  -3.041  51.944  0.00  0.00    +0.029 C 
ATOM      3  C16 <0> A   1     -27.649  -3.446  51.712  0.00  0.00    +0.016 C 
ATOM      4  C17 <0> A   1     -27.823  -4.941  52.009  0.00  0.00    +0.104 C 
ATOM      5  C18 <0> A   1     -26.756  -5.699  51.258  0.00  0.00    -0.211 C 
ATOM      6  C19 <0> A   1     -25.609  -5.101  50.721  0.00  0.00    +0.089 C 
ATOM      7  N1  <0> A   1     -24.894  -6.022  50.136  0.00  0.00    -0.263 NA
ATOM      8  N2  <0> A   1     -25.548  -7.254  50.272  0.00  0.00    -0.330 N 
ATOM      9  C20 <0> A   1     -26.705  -7.039  50.973  0.00  0.00    +0.124 C 
ENDROOT
BRANCH   8  10
ATOM     10  C28 <0> A   1     -25.100  -8.486  49.779  0.00  0.00    +0.150 A 
ATOM     11  C29 <0> A   1     -24.275  -9.288  50.556  0.00  0.00    +0.047 A 
ATOM     12  C30 <0> A   1     -23.833 -10.503  50.068  0.00  0.00    +0.017 A 
ATOM     13  C31 <0> A   1     -24.214 -10.921  48.803  0.00  0.00    +0.097 A 
ATOM     14  C32 <0> A   1     -25.035 -10.121  48.026  0.00  0.00    +0.007 A 
ATOM     15  C33 <0> A   1     -25.483  -8.910  48.513  0.00  0.00    +0.056 A 
ATOM     16  F1  <0> A   1     -23.780 -12.108  48.327  0.00  0.00    -0.135 F 
ENDBRANCH   8  10
BRANCH   9  17
ATOM     17  C21 <0> A   1     -27.705  -8.053  51.349  0.00  0.00    +0.027 C 
ATOM     18  C22 <0> A   1     -28.776  -8.244  50.584  0.00  0.00    -0.028 C 
BRANCH  18  19
ATOM     19  C23 <0> A   1     -29.799  -9.282  50.968  0.00  0.00    +0.254 C 
BRANCH  19  20
ATOM     20  O4  <0> A   1     -29.347 -10.573  50.555  0.00  0.00    -0.536 OA
ATOM     21  H28 <0> A   1     -28.991 -10.596  49.656  0.00  0.00    +0.368 HD
ENDBRANCH  19  20
BRANCH  19  22
ATOM     22  C24 <0> A   1     -29.992  -9.270  52.486  0.00  0.00    -0.040 C 
BRANCH  22  23
ATOM     23  C25 <0> A   1     -31.274 -10.028  52.841  0.00  0.00    +0.232 C 
BRANCH  23  24
ATOM     24  O3  <0> A   1     -31.859 -10.560  51.652  0.00  0.00    -0.528 OA
ATOM     25  H27 <0> A   1     -32.140  -9.887  51.017  0.00  0.00    +0.351 HD
ENDBRANCH  23  24
BRANCH  23  26
ATOM     26  C26 <0> A   1     -30.939 -11.172  53.801  0.00  0.00    -0.102 C 
BRANCH  26  27
ATOM     27  C27 <0> A   1     -30.955 -12.479  53.052  0.00  0.00    +0.491 C 
ATOM     28  O1  <0> A   1     -30.010 -12.787  52.344  0.00  0.00    -0.681 OA
ATOM     29  O2  <0> A   1     -31.912 -13.228  53.151  0.00  0.00    -0.712 OA
ENDBRANCH  26  27
ENDBRANCH  23  26
ENDBRANCH  22  23
ENDBRANCH  19  22
ENDBRANCH  18  19
ENDBRANCH   9  17
BRANCH   1  30
ATOM     30  C13 <0> A   1     -23.833  -3.425  51.193  0.00  0.00    +0.081 C 
BRANCH  30  34
ATOM     31  C7  <0> A   1     -22.951   0.755  51.323  0.00  0.00    -0.050 A 
ATOM     32  C8  <0> A   1     -23.922   0.273  50.448  0.00  0.00    +0.002 A 
ATOM     33  C9  <0> A   1     -24.203  -1.078  50.410  0.00  0.00    +0.007 A 
ATOM     34  C10 <0> A   1     -23.523  -1.952  51.239  0.00  0.00    -0.083 A 
ATOM     35  C11 <0> A   1     -22.558  -1.478  52.110  0.00  0.00    +0.063 A 
ATOM     36  C12 <0> A   1     -22.265  -0.130  52.152  0.00  0.00    +0.005 A 
BRANCH  31  40
ATOM     37  C1  <0> A   1     -22.074   4.915  51.454  0.00  0.00    -0.002 A 
ATOM     38  C2  <0> A   1     -21.452   4.108  50.517  0.00  0.00    +0.004 A 
ATOM     39  C3  <0> A   1     -21.733   2.758  50.470  0.00  0.00    +0.010 A 
ATOM     40  C4  <0> A   1     -22.645   2.207  51.368  0.00  0.00    -0.039 A 
ATOM     41  C5  <0> A   1     -23.268   3.024  52.309  0.00  0.00    +0.011 A 
ATOM     42  C6  <0> A   1     -22.980   4.373  52.347  0.00  0.00    +0.006 A 
ENDBRANCH  31  40
ENDBRANCH  30  34
ENDBRANCH   1  30
TORSDOF 12
