REMARK VINA RESULT:      -7.9     26.123     28.526
REMARK  Name = CHEMBL298174
REMARK  6 active torsions:
REMARK  status: ('A' for Active; 'I' for Inactive)
REMARK    1  A    between atoms: C4_4  and  C7_7
REMARK    2  A    between atoms: C7_7  and  C8_8
REMARK    3  A    between atoms: C8_8  and  C9_9
REMARK    4  A    between atoms: C14_14  and  C15_15
REMARK    5  A    between atoms: C16_16  and  C17_17
REMARK    6  A    between atoms: C19_19  and  O3_25
REMARK                            x       y       z     vdW  Elec       q    Type
REMARK                         _______ _______ _______ _____ _____    ______ ____
ROOT
ATOM      1  C9  <0> A   1     -27.510  -0.261  50.572  0.00  0.00    -0.045 A 
ATOM      2  C10 <0> A   1     -28.152   0.890  50.979  0.00  0.00    +0.041 A 
ATOM      3  C11 <0> A   1     -29.358   0.812  51.654  0.00  0.00    -0.021 A 
ATOM      4  C12 <0> A   1     -29.927  -0.421  51.926  0.00  0.00    +0.041 A 
ATOM      5  C13 <0> A   1     -29.293  -1.579  51.525  0.00  0.00    -0.018 A 
ATOM      6  C14 <0> A   1     -28.080  -1.506  50.838  0.00  0.00    -0.040 A 
ATOM      7 Cl1  <0> A   1     -30.007  -3.124  51.868  0.00  0.00    -0.048 Cl
ATOM      8 Cl2  <0> A   1     -30.160   2.265  52.162  0.00  0.00    -0.054 Cl
ENDROOT
BRANCH   6   9
ATOM      9  C15 <0> A   1     -27.399  -2.742  50.399  0.00  0.00    +0.039 C 
ATOM     10  C16 <0> A   1     -26.689  -3.452  51.266  0.00  0.00    -0.000 C 
BRANCH  10  11
ATOM     11  C17 <0> A   1     -25.996  -4.712  50.819  0.00  0.00    +0.243 C 
ATOM     12  C18 <0> A   1     -27.022  -5.674  50.215  0.00  0.00    +0.051 C 
ATOM     13  C19 <0> A   1     -26.320  -6.970  49.799  0.00  0.00    +0.186 C 
ATOM     14  C20 <0> A   1     -25.667  -7.600  51.037  0.00  0.00    +0.023 C 
ATOM     15  C21 <0> A   1     -24.815  -6.546  51.711  0.00  0.00    +0.497 C 
ATOM     16  O1  <0> A   1     -23.675  -6.781  52.032  0.00  0.00    -0.449 OA
ATOM     17  O2  <0> A   1     -25.368  -5.337  51.944  0.00  0.00    -0.369 OA
BRANCH  13  18
ATOM     18  O3  <0> A   1     -25.320  -6.681  48.822  0.00  0.00    -0.564 OA
ATOM     19  H20 <0> A   1     -25.085  -7.435  48.264  0.00  0.00    +0.387 HD
ENDBRANCH  13  18
ENDBRANCH  10  11
ENDBRANCH   6   9
BRANCH   1  20
ATOM     20  C8  <0> A   1     -26.196  -0.173  49.837  0.00  0.00    +0.091 C 
BRANCH  20  21
ATOM     21  C7  <0> A   1     -25.117   0.356  50.785  0.00  0.00    +0.076 C 
BRANCH  21  25
ATOM     22  C1  <0> A   1     -22.741  -2.901  52.198  0.00  0.00    -0.003 A 
ATOM     23  C2  <0> A   1     -22.861  -2.671  50.840  0.00  0.00    +0.002 A 
ATOM     24  C3  <0> A   1     -23.631  -1.618  50.383  0.00  0.00    +0.007 A 
ATOM     25  C4  <0> A   1     -24.279  -0.794  51.283  0.00  0.00    -0.083 A 
ATOM     26  C5  <0> A   1     -24.159  -1.023  52.642  0.00  0.00    +0.005 A 
ATOM     27  C6  <0> A   1     -23.389  -2.076  53.098  0.00  0.00    +0.003 A 
ENDBRANCH  21  25
ENDBRANCH  20  21
ENDBRANCH   1  20
TORSDOF 6
