REMARK VINA RESULT:      -7.8      0.000      0.000
REMARK  Name = CHEMBL100721
REMARK  12 active torsions:
REMARK  status: ('A' for Active; 'I' for Inactive)
REMARK    1  A    between atoms: C6_6  and  C7_7
REMARK    2  A    between atoms: C7_7  and  C8_8
REMARK    3  A    between atoms: C7_7  and  C14_15
REMARK    4  A    between atoms: C19_20  and  O1_21
REMARK    5  A    between atoms: O1_21  and  C20_22
REMARK    6  A    between atoms: C20_22  and  C21_23
REMARK    7  A    between atoms: C21_23  and  C22_24
REMARK    8  A    between atoms: C21_23  and  O5_32
REMARK    9  A    between atoms: C22_24  and  C23_25
REMARK   10  A    between atoms: C23_25  and  C24_27
REMARK   11  A    between atoms: C23_25  and  O4_31
REMARK   12  A    between atoms: C24_27  and  C25_28
REMARK                            x       y       z     vdW  Elec       q    Type
REMARK                         _______ _______ _______ _____ _____    ______ ____
ROOT
ATOM      1  C14 <0> A   1     -13.558   8.015  45.516  0.00  0.00    -0.071 A 
ATOM      2  C15 <0> A   1     -14.241   8.399  46.654  0.00  0.00    +0.059 A 
ATOM      3  C16 <0> A   1     -15.435   7.785  46.986  0.00  0.00    -0.030 A 
ATOM      4  C17 <0> A   1     -15.948   6.784  46.180  0.00  0.00    +0.058 A 
ATOM      5  C18 <0> A   1     -15.268   6.396  45.041  0.00  0.00    -0.045 A 
ATOM      6  C19 <0> A   1     -14.073   7.017  44.703  0.00  0.00    +0.124 A 
ATOM      7 Cl1  <0> A   1     -15.912   5.140  44.031  0.00  0.00    -0.036 Cl
ATOM      8 Cl2  <0> A   1     -16.291   8.269  48.417  0.00  0.00    -0.053 Cl
ENDROOT
BRANCH   1   9
ATOM      9  C7  <0> A   1     -12.257   8.685  45.156  0.00  0.00    +0.157 C 
BRANCH   9  15
ATOM     10  C1  <0> A   1     -12.832  11.121  45.196  0.00  0.00    +0.049 A 
ATOM     11  C2  <0> A   1     -12.781  12.371  45.782  0.00  0.00    -0.018 A 
ATOM     12  C3  <0> A   1     -12.096  12.548  46.972  0.00  0.00    +0.100 A 
ATOM     13  C4  <0> A   1     -11.463  11.474  47.573  0.00  0.00    -0.011 A 
ATOM     14  C5  <0> A   1     -11.516  10.225  46.985  0.00  0.00    +0.071 A 
ATOM     15  C6  <0> A   1     -12.200  10.048  45.797  0.00  0.00    -0.086 A 
ATOM     16  F2  <0> A   1     -12.045  13.772  47.546  0.00  0.00    -0.140 F 
ENDBRANCH   9  15
BRANCH   9  17
ATOM     17  C8  <0> A   1     -11.107   7.848  45.651  0.00  0.00    -0.090 A 
ATOM     18  C9  <0> A   1      -9.888   7.892  44.999  0.00  0.00    +0.045 A 
ATOM     19  C10 <0> A   1      -8.832   7.125  45.454  0.00  0.00    -0.013 A 
ATOM     20  C11 <0> A   1      -8.995   6.312  46.562  0.00  0.00    +0.099 A 
ATOM     21  C12 <0> A   1     -10.215   6.268  47.214  0.00  0.00    -0.012 A 
ATOM     22  C13 <0> A   1     -11.268   7.039  46.761  0.00  0.00    +0.061 A 
ATOM     23  F1  <0> A   1      -7.963   5.561  47.006  0.00  0.00    -0.140 F 
ENDBRANCH   9  17
ENDBRANCH   1   9
BRANCH   6  24
ATOM     24  O1  <0> A   1     -13.405   6.641  43.581  0.00  0.00    -0.309 OA
BRANCH  24  25
ATOM     25  C20 <0> A   1     -13.781   7.275  42.357  0.00  0.00    +0.155 C 
BRANCH  25  26
ATOM     26  C21 <0> A   1     -12.525   7.662  41.575  0.00  0.00    +0.229 C 
BRANCH  26  27
ATOM     27  O5  <0> A   1     -11.546   6.630  41.706  0.00  0.00    -0.530 OA
ATOM     28  H21 <0> A   1     -11.877   5.745  41.499  0.00  0.00    +0.363 HD
ENDBRANCH  26  27
BRANCH  26  29
ATOM     29  C22 <0> A   1     -12.880   7.844  40.098  0.00  0.00    -0.041 C 
BRANCH  29  30
ATOM     30  C23 <0> A   1     -12.434   9.232  39.633  0.00  0.00    +0.235 C 
BRANCH  30  31
ATOM     31  O4  <0> A   1     -12.782   9.408  38.258  0.00  0.00    -0.526 OA
ATOM     32  H20 <0> A   1     -12.257  10.079  37.802  0.00  0.00    +0.350 HD
ENDBRANCH  30  31
BRANCH  30  33
ATOM     33  C24 <0> A   1     -13.132  10.301  40.475  0.00  0.00    -0.101 C 
BRANCH  33  34
ATOM     34  C25 <0> A   1     -13.909  11.224  39.573  0.00  0.00    +0.490 C 
ATOM     35  O2  <0> A   1     -13.319  12.025  38.868  0.00  0.00    -0.680 OA
ATOM     36  O3  <0> A   1     -15.127  11.172  39.549  0.00  0.00    -0.712 OA
ENDBRANCH  33  34
ENDBRANCH  30  33
ENDBRANCH  29  30
ENDBRANCH  26  29
ENDBRANCH  25  26
ENDBRANCH  24  25
ENDBRANCH   6  24
TORSDOF 12
