REMARK VINA RESULT:      -8.2      1.181      1.738
REMARK  Name = CHEMBL124769
REMARK  12 active torsions:
REMARK  status: ('A' for Active; 'I' for Inactive)
REMARK    1  A    between atoms: C4_4  and  C7_7
REMARK    2  A    between atoms: C8_8  and  C9_9
REMARK    3  A    between atoms: C9_9  and  C10_10
REMARK    4  A    between atoms: N2_17  and  C24_32
REMARK    5  A    between atoms: C16_18  and  C17_19
REMARK    6  A    between atoms: C18_20  and  C19_21
REMARK    7  A    between atoms: C19_21  and  C20_23
REMARK    8  A    between atoms: C19_21  and  O4_31
REMARK    9  A    between atoms: C20_23  and  C21_24
REMARK   10  A    between atoms: C21_24  and  C22_26
REMARK   11  A    between atoms: C21_24  and  O3_30
REMARK   12  A    between atoms: C22_26  and  C23_27
REMARK                            x       y       z     vdW  Elec       q    Type
REMARK                         _______ _______ _______ _____ _____    ______ ____
ROOT
ATOM      1  C10 <0> A   1     -25.245  -1.647  50.839  0.00  0.00    +0.091 C 
ATOM      2  C11 <0> A   1     -23.770  -1.524  50.438  0.00  0.00    +0.030 C 
ATOM      3  C12 <0> A   1     -22.891  -2.204  51.489  0.00  0.00    +0.017 C 
ATOM      4  C13 <0> A   1     -23.054  -3.727  51.393  0.00  0.00    +0.105 C 
ATOM      5  C14 <0> A   1     -24.529  -4.043  51.401  0.00  0.00    -0.212 C 
ATOM      6  C15 <0> A   1     -25.530  -3.097  51.150  0.00  0.00    +0.096 C 
ATOM      7  N1  <0> A   1     -26.691  -3.686  51.236  0.00  0.00    -0.279 NA
ATOM      8  N2  <0> A   1     -26.488  -5.038  51.542  0.00  0.00    -0.328 N 
ATOM      9  C16 <0> A   1     -25.138  -5.248  51.642  0.00  0.00    +0.127 C 
ENDROOT
BRANCH   8  10
ATOM     10  C24 <0> A   1     -27.488  -6.004  51.717  0.00  0.00    +0.148 A 
ATOM     11  C25 <0> A   1     -28.042  -6.213  52.973  0.00  0.00    +0.049 A 
ATOM     12  C26 <0> A   1     -29.026  -7.166  53.143  0.00  0.00    +0.018 A 
ATOM     13  C27 <0> A   1     -29.461  -7.914  52.063  0.00  0.00    +0.098 A 
ATOM     14  C28 <0> A   1     -28.910  -7.709  50.809  0.00  0.00    +0.008 A 
ATOM     15  C29 <0> A   1     -27.929  -6.754  50.633  0.00  0.00    +0.054 A 
ATOM     16  F1  <0> A   1     -30.425  -8.846  52.231  0.00  0.00    -0.134 F 
ENDBRANCH   8  10
BRANCH   9  17
ATOM     17  C17 <0> A   1     -24.469  -6.523  51.950  0.00  0.00    +0.027 C 
ATOM     18  C18 <0> A   1     -24.266  -7.416  50.988  0.00  0.00    -0.027 C 
BRANCH  18  19
ATOM     19  C19 <0> A   1     -23.580  -8.720  51.304  0.00  0.00    +0.255 C 
BRANCH  19  20
ATOM     20  O4  <0> A   1     -22.855  -8.593  52.529  0.00  0.00    -0.536 OA
ATOM     21  H26 <0> A   1     -22.721  -9.430  52.995  0.00  0.00    +0.368 HD
ENDBRANCH  19  20
BRANCH  19  22
ATOM     22  C20 <0> A   1     -24.629  -9.826  51.444  0.00  0.00    -0.040 C 
BRANCH  22  23
ATOM     23  C21 <0> A   1     -24.247 -11.008  50.549  0.00  0.00    +0.232 C 
BRANCH  23  24
ATOM     24  O3  <0> A   1     -25.349 -11.913  50.459  0.00  0.00    -0.528 OA
ATOM     25  H25 <0> A   1     -26.204 -11.480  50.329  0.00  0.00    +0.351 HD
ENDBRANCH  23  24
BRANCH  23  26
ATOM     26  C22 <0> A   1     -23.892 -10.496  49.153  0.00  0.00    -0.101 C 
BRANCH  26  27
ATOM     27  C23 <0> A   1     -25.103 -10.592  48.259  0.00  0.00    +0.491 C 
ATOM     28  O1  <0> A   1     -25.871  -9.649  48.172  0.00  0.00    -0.681 OA
ATOM     29  O2  <0> A   1     -25.313 -11.610  47.625  0.00  0.00    -0.712 OA
ENDBRANCH  26  27
ENDBRANCH  23  26
ENDBRANCH  22  23
ENDBRANCH  19  22
ENDBRANCH  18  19
ENDBRANCH   9  17
BRANCH   1  30
ATOM     30  C9  <0> A   1     -26.134  -1.183  49.684  0.00  0.00    +0.069 C 
BRANCH  30  32
ATOM     31  C7  <0> A   1     -27.782  -0.036  51.095  0.00  0.00    -0.024 C 
ATOM     32  C8  <0> A   1     -26.907   0.041  50.103  0.00  0.00    +0.004 C 
BRANCH  31  36
ATOM     33  C1  <0> A   1     -29.964   3.412  52.277  0.00  0.00    -0.006 A 
ATOM     34  C2  <0> A   1     -28.593   3.489  52.104  0.00  0.00    +0.001 A 
ATOM     35  C3  <0> A   1     -27.879   2.373  51.721  0.00  0.00    +0.006 A 
ATOM     36  C4  <0> A   1     -28.541   1.164  51.507  0.00  0.00    -0.048 A 
ATOM     37  C5  <0> A   1     -29.924   1.092  51.682  0.00  0.00    +0.010 A 
ATOM     38  C6  <0> A   1     -30.627   2.216  52.066  0.00  0.00    +0.004 A 
ENDBRANCH  31  36
ENDBRANCH  30  32
ENDBRANCH   1  30
TORSDOF 12
