REMARK VINA RESULT:      -7.9     16.703     21.163
REMARK  Name = CHEMBL317142
REMARK  15 active torsions:
REMARK  status: ('A' for Active; 'I' for Inactive)
REMARK    1  A    between atoms: C1_1  and  C2_2
REMARK    2  A    between atoms: C2_2  and  C3_3
REMARK    3  A    between atoms: C2_2  and  C4_4
REMARK    4  A    between atoms: C12_12  and  C20_26
REMARK    5  A    between atoms: C13_13  and  O1_14
REMARK    6  A    between atoms: O1_14  and  C14_15
REMARK    7  A    between atoms: C14_15  and  C15_16
REMARK    8  A    between atoms: C15_16  and  C16_17
REMARK    9  A    between atoms: C15_16  and  O5_25
REMARK   10  A    between atoms: C16_17  and  C17_18
REMARK   11  A    between atoms: C17_18  and  C18_20
REMARK   12  A    between atoms: C17_18  and  O4_24
REMARK   13  A    between atoms: C18_20  and  C19_21
REMARK   14  A    between atoms: C20_26  and  C21_27
REMARK   15  A    between atoms: C20_26  and  C27_34
REMARK                            x       y       z     vdW  Elec       q    Type
REMARK                         _______ _______ _______ _____ _____    ______ ____
ROOT
ATOM      1  C4  <0> A   1     -24.226  -3.065  51.923  0.00  0.00    -0.077 A 
ATOM      2  C5  <0> A   1     -24.654  -1.983  52.710  0.00  0.00    -0.031 A 
ATOM      3  C6  <0> A   1     -23.769  -0.953  53.076  0.00  0.00    +0.028 A 
ATOM      4  C7  <0> A   1     -24.219   0.080  53.839  0.00  0.00    +0.004 A 
ATOM      5  C8  <0> A   1     -25.545   0.133  54.265  0.00  0.00    +0.004 A 
ATOM      6  C9  <0> A   1     -26.429  -0.846  53.930  0.00  0.00    +0.022 A 
ATOM      7  C10 <0> A   1     -26.001  -1.928  53.143  0.00  0.00    -0.053 A 
ATOM      8  C11 <0> A   1     -26.887  -2.957  52.778  0.00  0.00    +0.040 A 
ATOM      9  C12 <0> A   1     -26.441  -3.992  52.015  0.00  0.00    -0.082 A 
ATOM     10  C13 <0> A   1     -25.113  -4.045  51.582  0.00  0.00    +0.109 A 
ENDROOT
BRANCH   1  12
ATOM     11  C1  <0> A   1     -22.459  -1.888  50.641  0.00  0.00    +0.029 C 
ATOM     12  C2  <0> A   1     -22.796  -3.140  51.452  0.00  0.00    +0.037 C 
ATOM     13  C3  <0> A   1     -21.864  -3.229  52.663  0.00  0.00    +0.024 C 
ENDBRANCH   1  12
BRANCH  10  14
ATOM     14  O1  <0> A   1     -24.698  -5.087  50.815  0.00  0.00    -0.317 OA
BRANCH  14  15
ATOM     15  C14 <0> A   1     -24.311  -6.281  51.499  0.00  0.00    +0.147 C 
BRANCH  15  16
ATOM     16  C15 <0> A   1     -24.509  -7.485  50.575  0.00  0.00    +0.225 C 
BRANCH  16  17
ATOM     17  O5  <0> A   1     -24.054  -7.156  49.261  0.00  0.00    -0.530 OA
ATOM     18  H22 <0> A   1     -23.464  -6.391  49.229  0.00  0.00    +0.363 HD
ENDBRANCH  16  17
BRANCH  16  19
ATOM     19  C16 <0> A   1     -23.709  -8.675  51.110  0.00  0.00    -0.043 C 
BRANCH  19  20
ATOM     20  C17 <0> A   1     -24.434  -9.975  50.759  0.00  0.00    +0.235 C 
BRANCH  20  21
ATOM     21  O4  <0> A   1     -25.785  -9.685  50.395  0.00  0.00    -0.527 OA
ATOM     22  H21 <0> A   1     -26.221 -10.395  49.903  0.00  0.00    +0.350 HD
ENDBRANCH  20  21
BRANCH  20  23
ATOM     23  C18 <0> A   1     -23.724 -10.655  49.585  0.00  0.00    -0.101 C 
BRANCH  23  24
ATOM     24  C19 <0> A   1     -24.613 -10.614  48.369  0.00  0.00    +0.491 C 
ATOM     25  O2  <0> A   1     -25.317 -11.570  48.097  0.00  0.00    -0.680 OA
ATOM     26  O3  <0> A   1     -24.628  -9.624  47.658  0.00  0.00    -0.712 OA
ENDBRANCH  23  24
ENDBRANCH  20  23
ENDBRANCH  19  20
ENDBRANCH  16  19
ENDBRANCH  15  16
ENDBRANCH  14  15
ENDBRANCH  10  14
BRANCH   9  27
ATOM     27  C20 <0> A   1     -27.395  -5.092  51.625  0.00  0.00    +0.144 C 
BRANCH  27  28
ATOM     28  C21 <0> A   1     -28.484  -5.202  52.662  0.00  0.00    -0.087 A 
ATOM     29  C22 <0> A   1     -29.420  -4.193  52.788  0.00  0.00    +0.057 A 
ATOM     30  C23 <0> A   1     -30.419  -4.293  53.738  0.00  0.00    -0.014 A 
ATOM     31  C24 <0> A   1     -30.481  -5.404  54.562  0.00  0.00    +0.097 A 
ATOM     32  C25 <0> A   1     -29.543  -6.414  54.434  0.00  0.00    -0.016 A 
ATOM     33  C26 <0> A   1     -28.548  -6.314  53.480  0.00  0.00    +0.050 A 
ATOM     34  F1  <0> A   1     -31.458  -5.502  55.492  0.00  0.00    -0.141 F 
ENDBRANCH  27  28
BRANCH  27  35
ATOM     35  C27 <0> A   1     -28.007  -4.777  50.285  0.00  0.00    -0.080 A 
ATOM     36  C28 <0> A   1     -27.727  -3.574  49.663  0.00  0.00    +0.050 A 
ATOM     37  C29 <0> A   1     -28.287  -3.285  48.434  0.00  0.00    -0.019 A 
ATOM     38  C30 <0> A   1     -29.128  -4.199  47.824  0.00  0.00    +0.097 A 
ATOM     39  C31 <0> A   1     -29.408  -5.404  48.447  0.00  0.00    -0.012 A 
ATOM     40  C32 <0> A   1     -28.842  -5.694  49.674  0.00  0.00    +0.063 A 
ATOM     41  F2  <0> A   1     -29.675  -3.917  46.621  0.00  0.00    -0.141 F 
ENDBRANCH  27  35
ENDBRANCH   9  27
TORSDOF 13
