REMARK VINA RESULT:      -8.8     15.082     19.013
REMARK  Name = CHEMBL331900
REMARK  11 active torsions:
REMARK  status: ('A' for Active; 'I' for Inactive)
REMARK    1  A    between atoms: C10_10  and  C11_11
REMARK    2  A    between atoms: C11_11  and  C12_12
REMARK    3  A    between atoms: N2_19  and  C26_34
REMARK    4  A    between atoms: C18_20  and  C19_21
REMARK    5  A    between atoms: C20_22  and  C21_23
REMARK    6  A    between atoms: C21_23  and  C22_25
REMARK    7  A    between atoms: C21_23  and  O4_33
REMARK    8  A    between atoms: C22_25  and  C23_26
REMARK    9  A    between atoms: C23_26  and  C24_28
REMARK   10  A    between atoms: C23_26  and  O3_32
REMARK   11  A    between atoms: C24_28  and  C25_29
REMARK                            x       y       z     vdW  Elec       q    Type
REMARK                         _______ _______ _______ _____ _____    ______ ____
ROOT
ATOM      1  C12 <0> A   1     -24.363  -1.232  51.277  0.00  0.00    +0.092 C 
ATOM      2  C13 <0> A   1     -22.974  -1.667  50.792  0.00  0.00    +0.029 C 
ATOM      3  C14 <0> A   1     -22.528  -2.917  51.554  0.00  0.00    +0.017 C 
ATOM      4  C15 <0> A   1     -23.350  -4.126  51.087  0.00  0.00    +0.104 C 
ATOM      5  C16 <0> A   1     -24.809  -3.753  51.145  0.00  0.00    -0.211 C 
ATOM      6  C17 <0> A   1     -25.275  -2.436  51.233  0.00  0.00    +0.090 C 
ATOM      7  N1  <0> A   1     -26.579  -2.455  51.268  0.00  0.00    -0.262 NA
ATOM      8  N2  <0> A   1     -27.012  -3.786  51.201  0.00  0.00    -0.330 N 
ATOM      9  C18 <0> A   1     -25.900  -4.585  51.125  0.00  0.00    +0.123 C 
ENDROOT
BRANCH   8  10
ATOM     10  C26 <0> A   1     -28.343  -4.225  51.211  0.00  0.00    +0.150 A 
ATOM     11  C27 <0> A   1     -29.015  -4.433  50.015  0.00  0.00    +0.047 A 
ATOM     12  C28 <0> A   1     -30.327  -4.865  50.028  0.00  0.00    +0.017 A 
ATOM     13  C29 <0> A   1     -30.971  -5.090  51.232  0.00  0.00    +0.097 A 
ATOM     14  C30 <0> A   1     -30.302  -4.882  52.427  0.00  0.00    +0.007 A 
ATOM     15  C31 <0> A   1     -28.989  -4.455  52.418  0.00  0.00    +0.056 A 
ATOM     16  F1  <0> A   1     -32.254  -5.513  51.243  0.00  0.00    -0.135 F 
ENDBRANCH   8  10
BRANCH   9  17
ATOM     17  C19 <0> A   1     -25.881  -6.054  51.037  0.00  0.00    +0.027 C 
ATOM     18  C20 <0> A   1     -25.914  -6.650  49.849  0.00  0.00    -0.028 C 
BRANCH  18  19
ATOM     19  C21 <0> A   1     -25.893  -8.154  49.760  0.00  0.00    +0.254 C 
BRANCH  19  20
ATOM     20  O4  <0> A   1     -25.952  -8.550  48.388  0.00  0.00    -0.537 OA
ATOM     21  H26 <0> A   1     -26.172  -7.831  47.780  0.00  0.00    +0.368 HD
ENDBRANCH  19  20
BRANCH  19  22
ATOM     22  C22 <0> A   1     -24.604  -8.684  50.391  0.00  0.00    -0.040 C 
BRANCH  22  23
ATOM     23  C23 <0> A   1     -24.767 -10.172  50.707  0.00  0.00    +0.232 C 
BRANCH  23  24
ATOM     24  O3  <0> A   1     -26.133 -10.550  50.530  0.00  0.00    -0.528 OA
ATOM     25  H25 <0> A   1     -26.318 -10.969  49.678  0.00  0.00    +0.351 HD
ENDBRANCH  23  24
BRANCH  23  26
ATOM     26  C24 <0> A   1     -23.884 -10.993  49.764  0.00  0.00    -0.102 C 
BRANCH  26  27
ATOM     27  C25 <0> A   1     -24.745 -11.935  48.963  0.00  0.00    +0.491 C 
ATOM     28  O1  <0> A   1     -25.287 -11.547  47.942  0.00  0.00    -0.681 OA
ATOM     29  O2  <0> A   1     -24.899 -13.086  49.335  0.00  0.00    -0.713 OA
ENDBRANCH  26  27
ENDBRANCH  23  26
ENDBRANCH  22  23
ENDBRANCH  19  22
ENDBRANCH  18  19
ENDBRANCH   9  17
BRANCH   1  30
ATOM     30  C11 <0> A   1     -24.909  -0.135  50.361  0.00  0.00    +0.084 C 
BRANCH  30  40
ATOM     31  C1  <0> A   1     -28.960   2.709  51.662  0.00  0.00    -0.004 A 
ATOM     32  C2  <0> A   1     -28.778   1.543  50.920  0.00  0.00    +0.001 A 
ATOM     33  C3  <0> A   1     -27.539   1.012  50.744  0.00  0.00    +0.016 A 
ATOM     34  C4  <0> A   1     -26.422   1.644  51.318  0.00  0.00    -0.039 A 
ATOM     35  C5  <0> A   1     -26.607   2.830  52.073  0.00  0.00    -0.055 A 
ATOM     36  C6  <0> A   1     -27.903   3.349  52.233  0.00  0.00    +0.018 A 
ATOM     37  C7  <0> A   1     -25.491   3.462  52.647  0.00  0.00    +0.009 A 
ATOM     38  C8  <0> A   1     -24.252   2.930  52.471  0.00  0.00    +0.007 A 
ATOM     39  C9  <0> A   1     -24.069   1.765  51.729  0.00  0.00    +0.054 A 
ATOM     40  C10 <0> A   1     -25.126   1.124  51.159  0.00  0.00    -0.075 A 
ENDBRANCH  30  40
ENDBRANCH   1  30
TORSDOF 11
