REMARK VINA RESULT:      -8.1      4.248      8.866
REMARK  Name = CHEMBL154698
REMARK  8 active torsions:
REMARK  status: ('A' for Active; 'I' for Inactive)
REMARK    1  A    between atoms: C1_1  and  C2_2
REMARK    2  A    between atoms: C2_2  and  C3_3
REMARK    3  A    between atoms: C2_2  and  C4_4
REMARK    4  A    between atoms: C6_6  and  C22_28
REMARK    5  A    between atoms: C7_8  and  C16_21
REMARK    6  A    between atoms: C8_9  and  C9_10
REMARK    7  A    between atoms: C10_11  and  C11_12
REMARK    8  A    between atoms: C13_14  and  O3_20
REMARK                            x       y       z     vdW  Elec       q    Type
REMARK                         _______ _______ _______ _____ _____    ______ ____
ROOT
ATOM      1  C4  <0> A   1     -27.279  -4.900  52.235  0.00  0.00    -0.012 A 
ATOM      2  C5  <0> A   1     -26.608  -6.039  51.833  0.00  0.00    -0.017 A 
ATOM      3  C6  <0> A   1     -25.307  -5.929  51.341  0.00  0.00    +0.179 A 
ATOM      4  N1  <0> A   1     -24.708  -4.749  51.252  0.00  0.00    -0.469 NA
ATOM      5  C7  <0> A   1     -25.314  -3.633  51.624  0.00  0.00    +0.188 A 
ATOM      6  C8  <0> A   1     -26.627  -3.667  52.126  0.00  0.00    -0.100 A 
ENDROOT
BRANCH   5   7
ATOM      7  C16 <0> A   1     -24.605  -2.338  51.507  0.00  0.00    -0.062 A 
ATOM      8  C17 <0> A   1     -23.811  -1.876  52.557  0.00  0.00    +0.080 A 
ATOM      9  C18 <0> A   1     -23.153  -0.669  52.444  0.00  0.00    -0.020 A 
ATOM     10  C19 <0> A   1     -23.280   0.085  51.288  0.00  0.00    +0.114 A 
ATOM     11  C20 <0> A   1     -24.067  -0.370  50.241  0.00  0.00    -0.021 A 
ATOM     12  C21 <0> A   1     -24.724  -1.577  50.344  0.00  0.00    +0.088 A 
ATOM     13  F1  <0> A   1     -22.633   1.266  51.181  0.00  0.00    -0.137 F 
ENDBRANCH   5   7
BRANCH   3  14
ATOM     14  C22 <0> A   1     -24.584  -7.150  50.910  0.00  0.00    -0.052 A 
ATOM     15  C23 <0> A   1     -24.052  -8.019  51.860  0.00  0.00    +0.025 A 
ATOM     16  C24 <0> A   1     -23.379  -9.154  51.454  0.00  0.00    +0.003 A 
ATOM     17  C25 <0> A   1     -23.231  -9.428  50.106  0.00  0.00    +0.017 A 
ATOM     18  C26 <0> A   1     -23.758  -8.569  49.158  0.00  0.00    +0.001 A 
ATOM     19  C27 <0> A   1     -24.438  -7.435  49.553  0.00  0.00    +0.056 A 
ENDBRANCH   3  14
BRANCH   1  21
ATOM     20  C1  <0> A   1     -29.663  -5.186  51.611  0.00  0.00    +0.034 C 
ATOM     21  C2  <0> A   1     -28.686  -4.984  52.771  0.00  0.00    +0.028 C 
ATOM     22  C3  <0> A   1     -28.792  -6.164  53.740  0.00  0.00    +0.035 C 
ENDBRANCH   1  21
BRANCH   6  23
ATOM     23  C9  <0> A   1     -27.306  -2.422  52.536  0.00  0.00    +0.046 C 
ATOM     24  C10 <0> A   1     -28.066  -1.764  51.670  0.00  0.00    -0.008 C 
BRANCH  24  25
ATOM     25  C11 <0> A   1     -28.759  -0.493  52.090  0.00  0.00    +0.243 C 
ATOM     26  C12 <0> A   1     -30.271  -0.726  52.129  0.00  0.00    +0.051 C 
ATOM     27  C13 <0> A   1     -30.975   0.580  52.516  0.00  0.00    +0.186 C 
ATOM     28  C14 <0> A   1     -30.629   1.655  51.478  0.00  0.00    +0.024 C 
ATOM     29  C15 <0> A   1     -29.125   1.707  51.331  0.00  0.00    +0.498 C 
ATOM     30  O1  <0> A   1     -28.532   2.758  51.375  0.00  0.00    -0.449 OA
ATOM     31  O2  <0> A   1     -28.465   0.545  51.148  0.00  0.00    -0.370 OA
BRANCH  27  32
ATOM     32  O3  <0> A   1     -30.533   0.998  53.808  0.00  0.00    -0.563 OA
ATOM     33  H17 <0> A   1     -31.168   0.827  54.516  0.00  0.00    +0.387 HD
ENDBRANCH  27  32
ENDBRANCH  24  25
ENDBRANCH   6  23
TORSDOF 6
