REMARK  Name = CHEMBL468632
REMARK  15 active torsions:
REMARK  status: ('A' for Active; 'I' for Inactive)
REMARK    1  A    between atoms: C1_1  and  C2_2
REMARK    2  A    between atoms: C2_2  and  C3_3
REMARK    3  A    between atoms: C2_2  and  C4_4
REMARK    4  A    between atoms: C5_5  and  C19_27
REMARK    5  A    between atoms: C6_6  and  C13_20
REMARK    6  A    between atoms: N3_10  and  C8_11
REMARK    7  A    between atoms: C10_13  and  C12_17
REMARK    8  A    between atoms: N5_15  and  C11_16
REMARK    9  A    between atoms: C20_28  and  C21_29
REMARK   10  A    between atoms: C21_29  and  C22_31
REMARK   11  A    between atoms: C21_29  and  O6_39
REMARK   12  A    between atoms: C22_31  and  C23_32
REMARK   13  A    between atoms: C23_32  and  C24_34
REMARK   14  A    between atoms: C23_32  and  O5_38
REMARK   15  A    between atoms: C24_34  and  C25_35
REMARK                            x       y       z     vdW  Elec       q    Type
REMARK                         _______ _______ _______ _____ _____    ______ ____
ROOT
ATOM      1  C4  <0> A   1       0.731  -0.503   1.223  0.00  0.00    +0.234 A 
ATOM      2  C5  <0> A   1       0.082  -1.326   2.148  0.00  0.00    -0.198 A 
ATOM      3  C6  <0> A   1       0.810  -1.766   3.273  0.00  0.00    +0.272 A 
ATOM      4  N1  <0> A   1       2.076  -1.381   3.407  0.00  0.00    -0.532 NA
ATOM      5  C7  <0> A   1       2.646  -0.601   2.503  0.00  0.00    +0.573 A 
ATOM      6  N2  <0> A   1       1.993  -0.173   1.431  0.00  0.00    -0.561 NA
ATOM      7  N3  <0> A   1       3.966  -0.222   2.680  0.00  0.00    -0.606 N 
ATOM      8  H10 <0> A   1       4.399   0.349   2.026  0.00  0.00    +0.415 HD
ENDROOT
BRANCH   3   9
ATOM      9  C13 <0> A   1       0.176  -2.639   4.287  0.00  0.00    -0.078 A 
ATOM     10  C14 <0> A   1      -1.175  -2.483   4.598  0.00  0.00    +0.090 A 
ATOM     11  C15 <0> A   1      -1.761  -3.298   5.544  0.00  0.00    -0.026 A 
ATOM     12  C16 <0> A   1      -1.010  -4.271   6.185  0.00  0.00    +0.117 A 
ATOM     13  C17 <0> A   1       0.332  -4.429   5.879  0.00  0.00    -0.009 A 
ATOM     14  C18 <0> A   1       0.926  -3.623   4.931  0.00  0.00    +0.112 A 
ATOM     15  F1  <0> A   1      -1.589  -5.067   7.110  0.00  0.00    -0.139 F 
ENDBRANCH   3   9
BRANCH   7  16
ATOM     16  C8  <0> A   1       4.674  -0.663   3.796  0.00  0.00    +0.211 C 
ATOM     17  C9  <0> A   1       4.203  -1.469   4.788  0.00  0.00    -0.010 C 
ATOM     18  C10 <0> A   1       5.284  -1.632   5.687  0.00  0.00    +0.004 C 
ATOM     19  N4  <0> A   1       6.300  -0.943   5.203  0.00  0.00    -0.268 NA
ATOM     20  N5  <0> A   1       5.967  -0.375   4.100  0.00  0.00    -0.328 N 
ATOM     21  C11 <0> A   1       6.852   0.465   3.289  0.00  0.00    +0.335 C 
BRANCH  18  22
ATOM     22  C12 <0> A   1       5.277  -2.424   6.930  0.00  0.00    +0.562 C 
ATOM     23  O1  <0> A   1       4.264  -3.020   7.269  0.00  0.00    -0.676 OA
ATOM     24  O2  <0> A   1       6.283  -2.484   7.623  0.00  0.00    -0.681 OA
ENDBRANCH  18  22
ENDBRANCH   7  16
BRANCH   1  26
ATOM     25  C1  <0> A   1      -0.019   1.526   0.010  0.00  0.00    +0.039 C 
ATOM     26  C2  <0> A   1       0.002  -0.004   0.002  0.00  0.00    +0.051 C 
ATOM     27  C3  <0> A   1       0.718  -0.497  -1.257  0.00  0.00    +0.040 C 
ENDBRANCH   1  26
BRANCH   2  28
ATOM     28  C19 <0> A   1      -1.326  -1.724   1.953  0.00  0.00    +0.018 C 
ATOM     29  C20 <0> A   1      -1.673  -3.001   2.046  0.00  0.00    -0.043 C 
BRANCH  29  30
ATOM     30  C21 <0> A   1      -3.111  -3.408   1.847  0.00  0.00    +0.253 C 
BRANCH  30  31
ATOM     31  O6  <0> A   1      -3.879  -2.267   1.458  0.00  0.00    -0.539 OA
ATOM     32  H26 <0> A   1      -3.582  -1.855   0.635  0.00  0.00    +0.364 HD
ENDBRANCH  30  31
BRANCH  30  33
ATOM     33  C22 <0> A   1      -3.193  -4.474   0.753  0.00  0.00    -0.041 C 
BRANCH  33  34
ATOM     34  C23 <0> A   1      -4.633  -4.976   0.637  0.00  0.00    +0.231 C 
BRANCH  34  35
ATOM     35  O5  <0> A   1      -5.474  -3.911   0.190  0.00  0.00    -0.528 OA
ATOM     36  H25 <0> A   1      -5.227  -3.550  -0.673  0.00  0.00    +0.349 HD
ENDBRANCH  34  35
BRANCH  34  37
ATOM     37  C24 <0> A   1      -4.692  -6.128  -0.368  0.00  0.00    -0.102 C 
BRANCH  37  38
ATOM     38  C25 <0> A   1      -6.085  -6.703  -0.392  0.00  0.00    +0.491 C 
ATOM     39  O3  <0> A   1      -6.950  -6.235   0.328  0.00  0.00    -0.681 OA
ATOM     40  O4  <0> A   1      -6.347  -7.637  -1.131  0.00  0.00    -0.716 OA
ENDBRANCH  37  38
ENDBRANCH  34  37
ENDBRANCH  33  34
ENDBRANCH  30  33
ENDBRANCH  29  30
ENDBRANCH   2  28
TORSDOF 12
