REMARK VINA RESULT:      -7.3     40.531     42.713
REMARK  Name = CHEMBL316712
REMARK  15 active torsions:
REMARK  status: ('A' for Active; 'I' for Inactive)
REMARK    1  A    between atoms: C1_1  and  C2_2
REMARK    2  A    between atoms: C6_6  and  C14_20
REMARK    3  A    between atoms: C7_7  and  O1_8
REMARK    4  A    between atoms: O1_8  and  C8_9
REMARK    5  A    between atoms: C8_9  and  C9_10
REMARK    6  A    between atoms: C9_10  and  C10_11
REMARK    7  A    between atoms: C9_10  and  O5_19
REMARK    8  A    between atoms: C10_11  and  C11_12
REMARK    9  A    between atoms: C11_12  and  C12_14
REMARK   10  A    between atoms: C11_12  and  O4_18
REMARK   11  A    between atoms: C12_14  and  C13_15
REMARK   12  A    between atoms: C14_20  and  C15_21
REMARK   13  A    between atoms: C15_21  and  C16_22
REMARK   14  A    between atoms: C16_22  and  O6_23
REMARK   15  A    between atoms: O6_23  and  C17_24
REMARK                            x       y       z     vdW  Elec       q    Type
REMARK                         _______ _______ _______ _____ _____    ______ ____
ROOT
ATOM      1  C1  <0> A   1     -27.529  -6.738  49.664  0.00  0.00    +0.108 C 
ATOM      2  C2  <0> A   1     -27.041  -5.596  50.516  0.00  0.00    -0.089 A 
ATOM      3  C3  <0> A   1     -27.941  -4.839  51.240  0.00  0.00    +0.034 A 
ATOM      4  C4  <0> A   1     -27.494  -3.790  52.023  0.00  0.00    -0.036 A 
ATOM      5  C5  <0> A   1     -26.144  -3.496  52.083  0.00  0.00    +0.035 A 
ATOM      6  C6  <0> A   1     -25.239  -4.250  51.359  0.00  0.00    -0.083 A 
ATOM      7  C7  <0> A   1     -25.685  -5.306  50.578  0.00  0.00    +0.107 A 
ATOM      8 Cl2  <0> A   1     -28.629  -2.841  52.933  0.00  0.00    -0.070 Cl
ENDROOT
BRANCH   7   9
ATOM      9  O1  <0> A   1     -24.797  -6.052  49.872  0.00  0.00    -0.316 OA
BRANCH   9  10
ATOM     10  C8  <0> A   1     -24.256  -7.205  50.521  0.00  0.00    +0.150 C 
BRANCH  10  11
ATOM     11  C9  <0> A   1     -24.094  -8.335  49.502  0.00  0.00    +0.226 C 
BRANCH  11  12
ATOM     12  O5  <0> A   1     -23.312  -7.873  48.398  0.00  0.00    -0.529 OA
ATOM     13  H15 <0> A   1     -22.366  -7.801  48.588  0.00  0.00    +0.362 HD
ENDBRANCH  11  12
BRANCH  11  14
ATOM     14  C10 <0> A   1     -23.390  -9.522  50.164  0.00  0.00    -0.042 C 
BRANCH  14  15
ATOM     15  C11 <0> A   1     -24.354 -10.707  50.243  0.00  0.00    +0.235 C 
BRANCH  15  16
ATOM     16  O4  <0> A   1     -25.648 -10.300  49.795  0.00  0.00    -0.526 OA
ATOM     17  H14 <0> A   1     -25.631  -9.590  49.138  0.00  0.00    +0.350 HD
ENDBRANCH  15  16
BRANCH  15  18
ATOM     18  C12 <0> A   1     -23.839 -11.841  49.354  0.00  0.00    -0.101 C 
BRANCH  18  19
ATOM     19  C13 <0> A   1     -24.628 -11.871  48.070  0.00  0.00    +0.490 C 
ATOM     20  O2  <0> A   1     -25.511 -12.698  47.915  0.00  0.00    -0.680 OA
ATOM     21  O3  <0> A   1     -24.383 -11.068  47.185  0.00  0.00    -0.712 OA
ENDBRANCH  18  19
ENDBRANCH  15  18
ENDBRANCH  14  15
ENDBRANCH  11  14
ENDBRANCH  10  11
ENDBRANCH   9  10
ENDBRANCH   7   9
BRANCH   6  22
ATOM     22  C14 <0> A   1     -23.768  -3.929  51.424  0.00  0.00    +0.088 C 
BRANCH  22  23
ATOM     23  C15 <0> A   1     -23.574  -2.562  52.084  0.00  0.00    +0.049 C 
BRANCH  23  24
ATOM     24  C16 <0> A   1     -22.931  -1.599  51.083  0.00  0.00    +0.192 C 
BRANCH  24  25
ATOM     25  O6  <0> A   1     -23.859  -1.313  50.034  0.00  0.00    -0.309 OA
BRANCH  25  26
ATOM     26  C17 <0> A   1     -24.882  -0.469  50.330  0.00  0.00    +0.141 A 
ATOM     27  C18 <0> A   1     -24.647   0.668  51.090  0.00  0.00    -0.059 A 
ATOM     28  C19 <0> A   1     -25.688   1.525  51.389  0.00  0.00    +0.068 A 
ATOM     29  C20 <0> A   1     -26.966   1.251  50.932  0.00  0.00    -0.076 A 
ATOM     30  C21 <0> A   1     -27.202   0.117  50.174  0.00  0.00    +0.069 A 
ATOM     31  C22 <0> A   1     -26.162  -0.739  49.868  0.00  0.00    -0.001 A 
ATOM     32 Cl1  <0> A   1     -28.272   2.328  51.309  0.00  0.00    -0.074 Cl
ENDBRANCH  25  26
ENDBRANCH  24  25
ENDBRANCH  23  24
ENDBRANCH  22  23
ENDBRANCH   6  22
TORSDOF 14
