REMARK VINA RESULT:      -7.6      1.813      4.710
REMARK  Name = CHEMBL99838
REMARK  15 active torsions:
REMARK  status: ('A' for Active; 'I' for Inactive)
REMARK    1  A    between atoms: C1_1  and  C2_2
REMARK    2  A    between atoms: C2_2  and  C3_3
REMARK    3  A    between atoms: C2_2  and  C4_4
REMARK    4  A    between atoms: C6_6  and  C23_29
REMARK    5  A    between atoms: C8_8  and  C16_22
REMARK    6  A    between atoms: C9_9  and  O1_10
REMARK    7  A    between atoms: O1_10  and  C10_11
REMARK    8  A    between atoms: C10_11  and  C11_12
REMARK    9  A    between atoms: C11_12  and  C12_13
REMARK   10  A    between atoms: C11_12  and  O5_21
REMARK   11  A    between atoms: C12_13  and  C13_14
REMARK   12  A    between atoms: C13_14  and  C14_16
REMARK   13  A    between atoms: C13_14  and  O4_20
REMARK   14  A    between atoms: C14_16  and  C15_17
REMARK   15  A    between atoms: C16_22  and  C17_23
REMARK                            x       y       z     vdW  Elec       q    Type
REMARK                         _______ _______ _______ _____ _____    ______ ____
ROOT
ATOM      1  C4  <0> A   1     -15.249  10.342  47.162  0.00  0.00    -0.086 A 
ATOM      2  C5  <0> A   1     -16.340   9.682  47.686  0.00  0.00    +0.028 A 
ATOM      3  C6  <0> A   1     -16.342   8.291  47.764  0.00  0.00    -0.053 A 
ATOM      4  C7  <0> A   1     -15.239   7.570  47.310  0.00  0.00    +0.027 A 
ATOM      5  C8  <0> A   1     -14.149   8.234  46.786  0.00  0.00    -0.088 A 
ATOM      6  C9  <0> A   1     -14.154   9.620  46.706  0.00  0.00    +0.106 A 
ENDROOT
BRANCH   3   7
ATOM      7  C23 <0> A   1     -17.515   7.578  48.327  0.00  0.00    -0.037 A 
ATOM      8  C24 <0> A   1     -18.502   7.078  47.480  0.00  0.00    +0.011 A 
ATOM      9  C25 <0> A   1     -19.591   6.416  48.009  0.00  0.00    +0.006 A 
ATOM     10  C26 <0> A   1     -19.704   6.248  49.378  0.00  0.00    -0.002 A 
ATOM     11  C27 <0> A   1     -18.727   6.743  50.223  0.00  0.00    +0.006 A 
ATOM     12  C28 <0> A   1     -17.631   7.402  49.705  0.00  0.00    +0.012 A 
ENDBRANCH   3   7
BRANCH   1  14
ATOM     13  C1  <0> A   1     -16.669  12.370  47.284  0.00  0.00    +0.028 C 
ATOM     14  C2  <0> A   1     -15.246  11.846  47.078  0.00  0.00    +0.032 C 
ATOM     15  C3  <0> A   1     -14.332  12.416  48.164  0.00  0.00    +0.023 C 
ENDBRANCH   1  14
BRANCH   6  16
ATOM     16  O1  <0> A   1     -13.082  10.272  46.184  0.00  0.00    -0.316 OA
BRANCH  16  17
ATOM     17  C10 <0> A   1     -12.860  10.136  44.780  0.00  0.00    +0.146 C 
BRANCH  17  18
ATOM     18  C11 <0> A   1     -13.700  11.172  44.028  0.00  0.00    +0.225 C 
BRANCH  18  19
ATOM     19  O5  <0> A   1     -12.949  12.379  43.883  0.00  0.00    -0.531 OA
ATOM     20  H19 <0> A   1     -13.469  13.184  44.010  0.00  0.00    +0.362 HD
ENDBRANCH  18  19
BRANCH  18  21
ATOM     21  C12 <0> A   1     -14.063  10.629  42.645  0.00  0.00    -0.044 C 
BRANCH  21  22
ATOM     22  C13 <0> A   1     -13.254  11.370  41.578  0.00  0.00    +0.235 C 
BRANCH  22  23
ATOM     23  O4  <0> A   1     -11.940  10.815  41.507  0.00  0.00    -0.527 OA
ATOM     24  H18 <0> A   1     -11.491  10.755  42.361  0.00  0.00    +0.350 HD
ENDBRANCH  22  23
BRANCH  22  25
ATOM     25  C14 <0> A   1     -13.945  11.221  40.221  0.00  0.00    -0.101 C 
BRANCH  25  26
ATOM     26  C15 <0> A   1     -12.904  11.121  39.136  0.00  0.00    +0.491 C 
ATOM     27  O2  <0> A   1     -12.396  12.133  38.683  0.00  0.00    -0.680 OA
ATOM     28  O3  <0> A   1     -12.569  10.029  38.711  0.00  0.00    -0.713 OA
ENDBRANCH  25  26
ENDBRANCH  22  25
ENDBRANCH  21  22
ENDBRANCH  18  21
ENDBRANCH  17  18
ENDBRANCH  16  17
ENDBRANCH   6  16
BRANCH   5  29
ATOM     29  C16 <0> A   1     -12.957   7.455  46.296  0.00  0.00    +0.071 C 
BRANCH  29  30
ATOM     30  C17 <0> A   1     -13.409   6.435  45.248  0.00  0.00    +0.002 C 
ATOM     31  C18 <0> A   1     -14.532   7.038  44.403  0.00  0.00    +0.006 C 
ATOM     32  C19 <0> A   1     -14.984   6.019  43.354  0.00  0.00    -0.001 C 
ATOM     33  C20 <0> A   1     -15.493   4.758  44.055  0.00  0.00    -0.002 C 
ATOM     34  C21 <0> A   1     -14.369   4.155  44.901  0.00  0.00    +0.004 C 
ATOM     35  C22 <0> A   1     -13.918   5.174  45.949  0.00  0.00    +0.009 C 
ENDBRANCH  29  30
ENDBRANCH   5  29
TORSDOF 13
