REMARK VINA RESULT:      -7.2      2.882      5.085
REMARK  Name = CHEMBL333904
REMARK  15 active torsions:
REMARK  status: ('A' for Active; 'I' for Inactive)
REMARK    1  A    between atoms: C1_1  and  C2_2
REMARK    2  A    between atoms: C2_2  and  C3_3
REMARK    3  A    between atoms: C2_2  and  C4_4
REMARK    4  A    between atoms: C6_6  and  C22_30
REMARK    5  A    between atoms: C7_7  and  C16_23
REMARK    6  A    between atoms: N1_8  and  C8_9
REMARK    7  A    between atoms: C9_10  and  C10_11
REMARK    8  A    between atoms: C10_11  and  C11_13
REMARK    9  A    between atoms: C10_11  and  O4_22
REMARK   10  A    between atoms: C11_13  and  C12_14
REMARK   11  A    between atoms: C12_14  and  C13_16
REMARK   12  A    between atoms: C12_14  and  O3_21
REMARK   13  A    between atoms: C13_16  and  C14_17
REMARK   14  A    between atoms: C14_17  and  O2_19
REMARK   15  A    between atoms: O2_19  and  C15_20
REMARK                            x       y       z     vdW  Elec       q    Type
REMARK                         _______ _______ _______ _____ _____    ______ ____
ROOT
ATOM      1  C4  <0> A   1     -15.750  10.216  47.625  0.00  0.00    +0.043 C 
ATOM      2  C5  <0> A   1     -16.659   9.566  48.376  0.00  0.00    -0.020 C 
ATOM      3  C6  <0> A   1     -16.603   8.194  48.031  0.00  0.00    -0.112 C 
ATOM      4  C7  <0> A   1     -15.628   8.067  47.052  0.00  0.00    +0.072 C 
ATOM      5  N1  <0> A   1     -15.120   9.317  46.811  0.00  0.00    -0.389 N 
ENDROOT
BRANCH   4   6
ATOM      6  C16 <0> A   1     -15.218   6.814  46.387  0.00  0.00    -0.034 A 
ATOM      7  C17 <0> A   1     -15.953   6.320  45.308  0.00  0.00    +0.056 A 
ATOM      8  C18 <0> A   1     -15.564   5.150  44.690  0.00  0.00    -0.011 A 
ATOM      9  C19 <0> A   1     -14.446   4.465  45.139  0.00  0.00    +0.106 A 
ATOM     10  C20 <0> A   1     -13.712   4.951  46.209  0.00  0.00    -0.010 A 
ATOM     11  C21 <0> A   1     -14.088   6.123  46.831  0.00  0.00    +0.069 A 
ATOM     12  F1  <0> A   1     -14.070   3.320  44.529  0.00  0.00    -0.136 F 
ENDBRANCH   4   6
BRANCH   3  13
ATOM     13  C22 <0> A   1     -17.424   7.105  48.603  0.00  0.00    +0.041 A 
ATOM     14  C23 <0> A   1     -18.736   6.888  48.167  0.00  0.00    -0.031 A 
ATOM     15  C24 <0> A   1     -19.466   5.862  48.728  0.00  0.00    +0.255 A 
ATOM     16  N2  <0> A   1     -18.944   5.091  49.664  0.00  0.00    -0.490 NA
ATOM     17  C25 <0> A   1     -17.712   5.262  50.104  0.00  0.00    +0.255 A 
ATOM     18  C26 <0> A   1     -16.909   6.260  49.593  0.00  0.00    -0.031 A 
ENDBRANCH   3  13
BRANCH   1  20
ATOM     19  C1  <0> A   1     -16.800  12.457  47.795  0.00  0.00    +0.041 C 
ATOM     20  C2  <0> A   1     -15.477  11.698  47.669  0.00  0.00    +0.050 C 
ATOM     21  C3  <0> A   1     -14.589  12.016  48.875  0.00  0.00    +0.033 C 
ENDBRANCH   1  20
BRANCH   5  22
ATOM     22  C8  <0> A   1     -14.118   9.621  45.890  0.00  0.00    +0.201 C 
ATOM     23  C9  <0> A   1     -14.363  10.459  44.901  0.00  0.00    -0.056 C 
BRANCH  23  24
ATOM     24  C10 <0> A   1     -13.280  10.788  43.907  0.00  0.00    +0.268 C 
BRANCH  24  25
ATOM     25  O4  <0> A   1     -12.063  10.152  44.300  0.00  0.00    -0.538 OA
ATOM     26  H21 <0> A   1     -12.178   9.451  44.957  0.00  0.00    +0.370 HD
ENDBRANCH  24  25
BRANCH  24  27
ATOM     27  C11 <0> A   1     -13.691  10.288  42.521  0.00  0.00    -0.015 C 
BRANCH  27  28
ATOM     28  C12 <0> A   1     -13.016  11.144  41.448  0.00  0.00    +0.233 C 
BRANCH  28  29
ATOM     29  O3  <0> A   1     -11.656  10.733  41.296  0.00  0.00    -0.530 OA
ATOM     30  H20 <0> A   1     -11.097  10.937  42.058  0.00  0.00    +0.366 HD
ENDBRANCH  28  29
BRANCH  28  31
ATOM     31  C13 <0> A   1     -13.753  10.971  40.119  0.00  0.00    +0.073 C 
BRANCH  31  32
ATOM     32  C14 <0> A   1     -12.756  10.966  38.988  0.00  0.00    +0.456 C 
ATOM     33  O1  <0> A   1     -12.316  12.010  38.566  0.00  0.00    -0.486 OA
BRANCH  32  34
ATOM     34  O2  <0> A   1     -12.356   9.803  38.451  0.00  0.00    -0.359 OA
ATOM     35  C15 <0> A   1     -12.861   8.605  39.048  0.00  0.00    +0.258 C 
ENDBRANCH  32  34
ENDBRANCH  31  32
ENDBRANCH  28  31
ENDBRANCH  27  28
ENDBRANCH  24  27
ENDBRANCH  23  24
ENDBRANCH   5  22
TORSDOF 12
