REMARK VINA RESULT:      -7.4     15.189     18.549
REMARK  Name = CHEMBL468632
REMARK  15 active torsions:
REMARK  status: ('A' for Active; 'I' for Inactive)
REMARK    1  A    between atoms: C1_1  and  C2_2
REMARK    2  A    between atoms: C2_2  and  C3_3
REMARK    3  A    between atoms: C2_2  and  C4_4
REMARK    4  A    between atoms: C5_5  and  C19_27
REMARK    5  A    between atoms: C6_6  and  C13_20
REMARK    6  A    between atoms: N3_10  and  C8_11
REMARK    7  A    between atoms: C10_13  and  C12_17
REMARK    8  A    between atoms: N5_15  and  C11_16
REMARK    9  A    between atoms: C20_28  and  C21_29
REMARK   10  A    between atoms: C21_29  and  C22_31
REMARK   11  A    between atoms: C21_29  and  O6_39
REMARK   12  A    between atoms: C22_31  and  C23_32
REMARK   13  A    between atoms: C23_32  and  C24_34
REMARK   14  A    between atoms: C23_32  and  O5_38
REMARK   15  A    between atoms: C24_34  and  C25_35
REMARK                            x       y       z     vdW  Elec       q    Type
REMARK                         _______ _______ _______ _____ _____    ______ ____
ROOT
ATOM      1  C4  <0> A   1     -25.733  -2.397  51.050  0.00  0.00    +0.234 A 
ATOM      2  C5  <0> A   1     -25.046  -3.614  51.003  0.00  0.00    -0.198 A 
ATOM      3  C6  <0> A   1     -25.794  -4.793  50.807  0.00  0.00    +0.272 A 
ATOM      4  N1  <0> A   1     -27.114  -4.699  50.675  0.00  0.00    -0.532 NA
ATOM      5  C7  <0> A   1     -27.718  -3.523  50.727  0.00  0.00    +0.573 A 
ATOM      6  N2  <0> A   1     -27.047  -2.395  50.915  0.00  0.00    -0.561 NA
ATOM      7  N3  <0> A   1     -29.095  -3.468  50.585  0.00  0.00    -0.606 N 
ATOM      8  H10 <0> A   1     -29.553  -2.614  50.621  0.00  0.00    +0.415 HD
ENDROOT
BRANCH   3   9
ATOM      9  C13 <0> A   1     -25.122  -6.111  50.748  0.00  0.00    -0.078 A 
ATOM     10  C14 <0> A   1     -24.738  -6.754  51.926  0.00  0.00    +0.090 A 
ATOM     11  C15 <0> A   1     -24.112  -7.981  51.866  0.00  0.00    -0.026 A 
ATOM     12  C16 <0> A   1     -23.864  -8.576  50.639  0.00  0.00    +0.117 A 
ATOM     13  C17 <0> A   1     -24.244  -7.941  49.467  0.00  0.00    -0.009 A 
ATOM     14  C18 <0> A   1     -24.876  -6.717  49.516  0.00  0.00    +0.112 A 
ATOM     15  F1  <0> A   1     -23.251  -9.779  50.586  0.00  0.00    -0.139 F 
ENDBRANCH   3   9
BRANCH   7  16
ATOM     16  C8  <0> A   1     -29.822  -4.641  50.392  0.00  0.00    +0.211 C 
ATOM     17  C9  <0> A   1     -30.180  -5.185  49.195  0.00  0.00    -0.010 C 
ATOM     18  C10 <0> A   1     -30.901  -6.360  49.515  0.00  0.00    +0.004 C 
ATOM     19  N4  <0> A   1     -30.932  -6.451  50.831  0.00  0.00    -0.268 NA
ATOM     20  N5  <0> A   1     -30.306  -5.462  51.361  0.00  0.00    -0.328 N 
ATOM     21  C11 <0> A   1     -30.141  -5.248  52.801  0.00  0.00    +0.335 C 
BRANCH  18  22
ATOM     22  C12 <0> A   1     -31.501  -7.306  48.558  0.00  0.00    +0.562 C 
ATOM     23  O1  <0> A   1     -32.346  -6.918  47.763  0.00  0.00    -0.676 OA
ATOM     24  O2  <0> A   1     -31.157  -8.480  48.560  0.00  0.00    -0.681 OA
ENDBRANCH  18  22
ENDBRANCH   7  16
BRANCH   1  26
ATOM     25  C1  <0> A   1     -25.509  -0.049  50.283  0.00  0.00    +0.039 C 
ATOM     26  C2  <0> A   1     -24.984  -1.105  51.257  0.00  0.00    +0.051 C 
ATOM     27  C3  <0> A   1     -25.190  -0.621  52.694  0.00  0.00    +0.040 C 
ENDBRANCH   1  26
BRANCH   2  28
ATOM     28  C19 <0> A   1     -23.578  -3.663  51.154  0.00  0.00    +0.018 C 
ATOM     29  C20 <0> A   1     -23.030  -3.523  52.354  0.00  0.00    -0.043 C 
BRANCH  29  30
ATOM     30  C21 <0> A   1     -21.531  -3.573  52.509  0.00  0.00    +0.253 C 
BRANCH  30  31
ATOM     31  O6  <0> A   1     -20.914  -3.359  51.237  0.00  0.00    -0.539 OA
ATOM     32  H26 <0> A   1     -19.981  -3.110  51.290  0.00  0.00    +0.364 HD
ENDBRANCH  30  31
BRANCH  30  33
ATOM     33  C22 <0> A   1     -21.082  -2.483  53.483  0.00  0.00    -0.041 C 
BRANCH  33  34
ATOM     34  C23 <0> A   1     -20.103  -3.078  54.497  0.00  0.00    +0.231 C 
BRANCH  34  35
ATOM     35  O5  <0> A   1     -20.579  -4.355  54.926  0.00  0.00    -0.528 OA
ATOM     36  H25 <0> A   1     -20.417  -5.068  54.292  0.00  0.00    +0.349 HD
ENDBRANCH  34  35
BRANCH  34  37
ATOM     37  C24 <0> A   1     -18.729  -3.238  53.845  0.00  0.00    -0.102 C 
BRANCH  37  38
ATOM     38  C25 <0> A   1     -18.204  -4.626  54.114  0.00  0.00    +0.491 C 
ATOM     39  O3  <0> A   1     -18.444  -5.530  53.332  0.00  0.00    -0.681 OA
ATOM     40  O4  <0> A   1     -17.540  -4.844  55.113  0.00  0.00    -0.716 OA
ENDBRANCH  37  38
ENDBRANCH  34  37
ENDBRANCH  33  34
ENDBRANCH  30  33
ENDBRANCH  29  30
ENDBRANCH   2  28
TORSDOF 12
