REMARK  Name = CHEMBL11891
REMARK  11 active torsions:
REMARK  status: ('A' for Active; 'I' for Inactive)
REMARK    1  A    between atoms: C6_6  and  C7_7
REMARK    2  A    between atoms: C7_7  and  C17_27
REMARK    3  A    between atoms: C8_8  and  C9_9
REMARK    4  A    between atoms: C8_8  and  N1_22
REMARK    5  A    between atoms: C10_10  and  C11_11
REMARK    6  A    between atoms: C11_11  and  C12_13
REMARK    7  A    between atoms: C11_11  and  O4_21
REMARK    8  A    between atoms: C12_13  and  C13_14
REMARK    9  A    between atoms: C13_14  and  C14_16
REMARK   10  A    between atoms: C13_14  and  O3_20
REMARK   11  A    between atoms: C14_16  and  C15_17
REMARK                            x       y       z     vdW  Elec       q    Type
REMARK                         _______ _______ _______ _____ _____    ______ ____
ROOT
ATOM      1  C7  <0> A   1      -1.185  -0.717  -0.040  0.00  0.00    -0.013 C 
ATOM      2  C8  <0> A   1      -1.607  -1.534  -1.050  0.00  0.00    +0.158 C 
ENDROOT
BRANCH   1   8
ATOM      3  C1  <0> A   1       0.146   1.381  -0.223  0.00  0.00    +0.071 A 
ATOM      4  C2  <0> A   1       1.357   2.032  -0.326  0.00  0.00    -0.011 A 
ATOM      5  C3  <0> A   1       2.537   1.306  -0.359  0.00  0.00    +0.111 A 
ATOM      6  C4  <0> A   1       2.507  -0.078  -0.289  0.00  0.00    -0.005 A 
ATOM      7  C5  <0> A   1       1.302  -0.740  -0.186  0.00  0.00    +0.067 A 
ATOM      8  C6  <0> A   1       0.110  -0.013  -0.151  0.00  0.00    -0.058 A 
ATOM      9  F2  <0> A   1       3.721   1.949  -0.461  0.00  0.00    -0.136 F 
ENDBRANCH   1   8
BRANCH   1  10
ATOM     10  C17 <0> A   1      -2.023  -0.537   1.163  0.00  0.00    -0.080 A 
ATOM     11  C18 <0> A   1      -3.274   0.075   1.061  0.00  0.00    +0.060 A 
ATOM     12  C19 <0> A   1      -4.052   0.240   2.188  0.00  0.00    -0.008 A 
ATOM     13  C20 <0> A   1      -3.594  -0.200   3.420  0.00  0.00    +0.112 A 
ATOM     14  C21 <0> A   1      -2.353  -0.807   3.527  0.00  0.00    -0.007 A 
ATOM     15  C22 <0> A   1      -1.569  -0.983   2.407  0.00  0.00    +0.072 A 
ATOM     16  F1  <0> A   1      -4.361  -0.035   4.520  0.00  0.00    -0.135 F 
ENDBRANCH   1  10
BRANCH   2  17
ATOM     17  N1  <0> A   1      -2.831  -2.199  -0.945  0.00  0.00    -0.332 N 
ATOM     18  C16 <0> A   1      -3.229  -3.034   0.041  0.00  0.00    +0.468 C 
ATOM     19  N2  <0> A   1      -4.440  -3.432  -0.254  0.00  0.00    -0.329 NA
ATOM     20  N3  <0> A   1      -4.833  -2.907  -1.358  0.00  0.00    -0.035 NA
ATOM     21  N4  <0> A   1      -3.915  -2.140  -1.839  0.00  0.00    -0.068 NA
ENDBRANCH   2  17
BRANCH   2  22
ATOM     22  C9  <0> A   1      -0.775  -1.713  -2.244  0.00  0.00    +0.005 C 
ATOM     23  C10 <0> A   1      -1.130  -2.595  -3.178  0.00  0.00    -0.010 C 
BRANCH  23  24
ATOM     24  C11 <0> A   1      -0.219  -2.863  -4.348  0.00  0.00    +0.254 C 
BRANCH  24  25
ATOM     25  O4  <0> A   1       1.003  -2.143  -4.174  0.00  0.00    -0.533 OA
ATOM     26  H14 <0> A   1       1.490  -2.382  -3.373  0.00  0.00    +0.365 HD
ENDBRANCH  24  25
BRANCH  24  27
ATOM     27  C12 <0> A   1       0.078  -4.361  -4.431  0.00  0.00    -0.039 C 
BRANCH  27  28
ATOM     28  C13 <0> A   1       0.900  -4.649  -5.689  0.00  0.00    +0.233 C 
BRANCH  28  29
ATOM     29  O3  <0> A   1       2.176  -4.016  -5.580  0.00  0.00    -0.527 OA
ATOM     30  H13 <0> A   1       2.700  -4.313  -4.823  0.00  0.00    +0.350 HD
ENDBRANCH  28  29
BRANCH  28  31
ATOM     31  C14 <0> A   1       1.091  -6.159  -5.839  0.00  0.00    -0.101 C 
BRANCH  31  32
ATOM     32  C15 <0> A   1       1.794  -6.450  -7.140  0.00  0.00    +0.491 C 
ATOM     33  O1  <0> A   1       2.112  -5.534  -7.879  0.00  0.00    -0.681 OA
ATOM     34  O2  <0> A   1       2.044  -7.601  -7.454  0.00  0.00    -0.712 OA
ENDBRANCH  31  32
ENDBRANCH  28  31
ENDBRANCH  27  28
ENDBRANCH  24  27
ENDBRANCH  23  24
ENDBRANCH   2  22
TORSDOF 11
