REMARK VINA RESULT:      -6.8     18.378     22.152
REMARK  Name = CHEMBL342975
REMARK  15 active torsions:
REMARK  status: ('A' for Active; 'I' for Inactive)
REMARK    1  A    between atoms: C1_1  and  C2_2
REMARK    2  A    between atoms: C5_5  and  C8_8
REMARK    3  A    between atoms: C11_11  and  C26_33
REMARK    4  A    between atoms: C12_12  and  O1_21
REMARK    5  A    between atoms: C13_13  and  C14_14
REMARK    6  A    between atoms: O1_21  and  C20_22
REMARK    7  A    between atoms: C20_22  and  C21_23
REMARK    8  A    between atoms: C21_23  and  C22_24
REMARK    9  A    between atoms: C21_23  and  O5_32
REMARK   10  A    between atoms: C22_24  and  C23_25
REMARK   11  A    between atoms: C23_25  and  C24_27
REMARK   12  A    between atoms: C23_25  and  O4_31
REMARK   13  A    between atoms: C24_27  and  C25_28
REMARK   14  A    between atoms: C26_33  and  C27_34
REMARK   15  A    between atoms: C26_33  and  C28_35
REMARK                            x       y       z     vdW  Elec       q    Type
REMARK                         _______ _______ _______ _____ _____    ______ ____
ROOT
ATOM      1  C8  <0> A   1     -27.582  -4.120  51.992  0.00  0.00    -0.027 A 
ATOM      2  C9  <0> A   1     -26.949  -2.963  52.439  0.00  0.00    +0.016 A 
ATOM      3  C10 <0> A   1     -25.643  -2.704  52.075  0.00  0.00    +0.029 A 
ATOM      4  C11 <0> A   1     -24.953  -3.589  51.265  0.00  0.00    -0.086 A 
ATOM      5  C12 <0> A   1     -25.565  -4.746  50.811  0.00  0.00    +0.116 A 
ATOM      6  C13 <0> A   1     -26.885  -5.023  51.175  0.00  0.00    -0.056 A 
ENDROOT
BRANCH   1  11
ATOM      7  C1  <0> A   1     -33.030  -5.203  53.509  0.00  0.00    +0.086 C 
ATOM      8  C2  <0> A   1     -31.605  -4.919  53.112  0.00  0.00    -0.083 A 
ATOM      9  C3  <0> A   1     -30.573  -5.235  53.978  0.00  0.00    +0.001 A 
ATOM     10  C4  <0> A   1     -29.265  -4.978  53.619  0.00  0.00    +0.020 A 
ATOM     11  C5  <0> A   1     -28.985  -4.399  52.383  0.00  0.00    -0.048 A 
ATOM     12  C6  <0> A   1     -30.029  -4.084  51.514  0.00  0.00    +0.031 A 
ATOM     13  C7  <0> A   1     -31.332  -4.351  51.881  0.00  0.00    +0.003 A 
ENDBRANCH   1  11
BRANCH   6  14
ATOM     14  C14 <0> A   1     -27.545  -6.261  50.699  0.00  0.00    -0.049 A 
ATOM     15  C15 <0> A   1     -28.061  -6.324  49.404  0.00  0.00    +0.069 A 
ATOM     16  C16 <0> A   1     -28.676  -7.477  48.965  0.00  0.00    -0.014 A 
ATOM     17  C17 <0> A   1     -28.781  -8.574  49.807  0.00  0.00    +0.104 A 
ATOM     18  C18 <0> A   1     -28.268  -8.516  51.093  0.00  0.00    -0.017 A 
ATOM     19  C19 <0> A   1     -27.647  -7.368  51.539  0.00  0.00    +0.055 A 
ATOM     20  F1  <0> A   1     -29.382  -9.702  49.372  0.00  0.00    -0.139 F 
ENDBRANCH   6  14
BRANCH   4  21
ATOM     21  C26 <0> A   1     -23.527  -3.292  50.876  0.00  0.00    +0.031 C 
ATOM     22  C27 <0> A   1     -23.393  -1.810  50.518  0.00  0.00    +0.029 C 
ATOM     23  C28 <0> A   1     -22.599  -3.619  52.047  0.00  0.00    +0.024 C 
ENDBRANCH   4  21
BRANCH   5  24
ATOM     24  O1  <0> A   1     -24.882  -5.610  50.016  0.00  0.00    -0.314 OA
BRANCH  24  25
ATOM     25  C20 <0> A   1     -24.272  -6.734  50.654  0.00  0.00    +0.150 C 
BRANCH  25  26
ATOM     26  C21 <0> A   1     -24.353  -7.951  49.730  0.00  0.00    +0.225 C 
BRANCH  26  27
ATOM     27  O5  <0> A   1     -23.518  -7.739  48.590  0.00  0.00    -0.531 OA
ATOM     28  H23 <0> A   1     -23.959  -7.895  47.744  0.00  0.00    +0.363 HD
ENDBRANCH  26  27
BRANCH  26  29
ATOM     29  C22 <0> A   1     -23.879  -9.195  50.483  0.00  0.00    -0.043 C 
BRANCH  29  30
ATOM     30  C23 <0> A   1     -24.970 -10.267  50.436  0.00  0.00    +0.235 C 
BRANCH  30  31
ATOM     31  O4  <0> A   1     -25.514 -10.334  49.116  0.00  0.00    -0.526 OA
ATOM     32  H22 <0> A   1     -26.468 -10.490  49.092  0.00  0.00    +0.350 HD
ENDBRANCH  30  31
BRANCH  30  33
ATOM     33  C24 <0> A   1     -24.371 -11.622  50.811  0.00  0.00    -0.101 C 
BRANCH  33  34
ATOM     34  C25 <0> A   1     -24.372 -12.524  49.603  0.00  0.00    +0.491 C 
ATOM     35  O2  <0> A   1     -23.469 -12.451  48.788  0.00  0.00    -0.680 OA
ATOM     36  O3  <0> A   1     -25.276 -13.326  49.443  0.00  0.00    -0.713 OA
ENDBRANCH  33  34
ENDBRANCH  30  33
ENDBRANCH  29  30
ENDBRANCH  26  29
ENDBRANCH  25  26
ENDBRANCH  24  25
ENDBRANCH   5  24
TORSDOF 12
