REMARK VINA RESULT:      -8.1      0.000      0.000
REMARK  Name = CHEMBL400576
REMARK  14 active torsions:
REMARK  status: ('A' for Active; 'I' for Inactive)
REMARK    1  A    between atoms: C1_1  and  C2_2
REMARK    2  A    between atoms: C2_2  and  C3_3
REMARK    3  A    between atoms: C2_2  and  C4_4
REMARK    4  A    between atoms: C5_5  and  C19_29
REMARK    5  A    between atoms: N2_7  and  C13_22
REMARK    6  A    between atoms: C6_8  and  O1_9
REMARK    7  A    between atoms: O1_9  and  C7_10
REMARK    8  A    between atoms: C7_10  and  C8_11
REMARK    9  A    between atoms: C8_11  and  C9_13
REMARK   10  A    between atoms: C8_11  and  O5_21
REMARK   11  A    between atoms: C9_13  and  C10_14
REMARK   12  A    between atoms: C10_14  and  C11_16
REMARK   13  A    between atoms: C10_14  and  O4_20
REMARK   14  A    between atoms: C11_16  and  C12_17
REMARK                            x       y       z     vdW  Elec       q    Type
REMARK                         _______ _______ _______ _____ _____    ______ ____
ROOT
ATOM      1  C4  <0> A   1     -15.307   6.768  45.814  0.00  0.00    -0.182 C 
ATOM      2  C5  <0> A   1     -16.215   7.357  46.719  0.00  0.00    +0.060 C 
ATOM      3  N1  <0> A   1     -15.805   8.587  46.967  0.00  0.00    -0.234 NA
ATOM      4  N2  <0> A   1     -14.634   8.815  46.232  0.00  0.00    -0.327 N 
ATOM      5  C6  <0> A   1     -14.345   7.681  45.536  0.00  0.00    +0.269 C 
ENDROOT
BRANCH   2   6
ATOM      6  C19 <0> A   1     -17.414   6.713  47.289  0.00  0.00    +0.610 C 
ATOM      7  O6  <0> A   1     -18.462   6.724  46.672  0.00  0.00    -0.516 OA
ATOM      8  N3  <0> A   1     -17.348   6.112  48.493  0.00  0.00    -0.599 N 
ATOM      9  C20 <0> A   1     -16.120   6.177  49.296  0.00  0.00    +0.265 C 
ATOM     10  C21 <0> A   1     -16.469   6.709  50.690  0.00  0.00    +0.011 C 
ATOM     11  C22 <0> A   1     -17.573   5.843  51.300  0.00  0.00    +0.012 C 
ATOM     12  C23 <0> A   1     -18.827   5.920  50.426  0.00  0.00    +0.011 C 
ATOM     13  C24 <0> A   1     -18.506   5.385  49.032  0.00  0.00    +0.279 C 
ENDBRANCH   2   6
BRANCH   4  14
ATOM     14  C13 <0> A   1     -13.887  10.000  46.221  0.00  0.00    +0.128 A 
ATOM     15  C14 <0> A   1     -12.781  10.134  47.049  0.00  0.00    +0.066 A 
ATOM     16  C15 <0> A   1     -12.046  11.303  47.037  0.00  0.00    +0.008 A 
ATOM     17  C16 <0> A   1     -12.412  12.343  46.199  0.00  0.00    +0.107 A 
ATOM     18  C17 <0> A   1     -13.515  12.212  45.372  0.00  0.00    +0.018 A 
ATOM     19  C18 <0> A   1     -14.249  11.041  45.376  0.00  0.00    +0.065 A 
ATOM     20  F1  <0> A   1     -11.693  13.486  46.188  0.00  0.00    -0.132 F 
ENDBRANCH   4  14
BRANCH   1  22
ATOM     21  C1  <0> A   1     -15.690   5.430  43.761  0.00  0.00    +0.025 C 
ATOM     22  C2  <0> A   1     -15.389   5.369  45.260  0.00  0.00    +0.062 C 
ATOM     23  C3  <0> A   1     -14.056   4.652  45.484  0.00  0.00    +0.036 C 
ENDBRANCH   1  22
BRANCH   5  24
ATOM     24  O1  <0> A   1     -13.284   7.499  44.709  0.00  0.00    -0.283 OA
BRANCH  24  25
ATOM     25  C7  <0> A   1     -13.382   8.056  43.397  0.00  0.00    +0.155 C 
BRANCH  25  26
ATOM     26  C8  <0> A   1     -12.269   7.484  42.516  0.00  0.00    +0.230 C 
BRANCH  26  27
ATOM     27  O5  <0> A   1     -12.374   6.059  42.481  0.00  0.00    -0.527 OA
ATOM     28  H17 <0> A   1     -12.452   5.649  43.353  0.00  0.00    +0.364 HD
ENDBRANCH  26  27
BRANCH  26  29
ATOM     29  C9  <0> A   1     -12.405   8.040  41.097  0.00  0.00    -0.040 C 
BRANCH  29  30
ATOM     30  C10 <0> A   1     -12.919   9.480  41.160  0.00  0.00    +0.236 C 
BRANCH  30  31
ATOM     31  O4  <0> A   1     -11.811  10.381  41.175  0.00  0.00    -0.526 OA
ATOM     32  H16 <0> A   1     -11.331  10.427  40.337  0.00  0.00    +0.351 HD
ENDBRANCH  30  31
BRANCH  30  33
ATOM     33  C11 <0> A   1     -13.792   9.763  39.936  0.00  0.00    -0.101 C 
BRANCH  33  34
ATOM     34  C12 <0> A   1     -13.899  11.252  39.730  0.00  0.00    +0.491 C 
ATOM     35  O2  <0> A   1     -13.309  11.784  38.805  0.00  0.00    -0.680 OA
ATOM     36  O3  <0> A   1     -14.576  11.925  40.489  0.00  0.00    -0.712 OA
ENDBRANCH  33  34
ENDBRANCH  30  33
ENDBRANCH  29  30
ENDBRANCH  26  29
ENDBRANCH  25  26
ENDBRANCH  24  25
ENDBRANCH   5  24
TORSDOF 12
