REMARK VINA RESULT:      -7.2     15.950     19.475
REMARK  Name = CHEMBL253054
REMARK  16 active torsions:
REMARK  status: ('A' for Active; 'I' for Inactive)
REMARK    1  A    between atoms: C1_1  and  C2_2
REMARK    2  A    between atoms: C2_2  and  C3_3
REMARK    3  A    between atoms: C2_2  and  C4_4
REMARK    4  A    between atoms: C5_5  and  S1_35
REMARK    5  A    between atoms: C6_6  and  C21_29
REMARK    6  A    between atoms: C7_7  and  C15_22
REMARK    7  A    between atoms: N1_8  and  C8_9
REMARK    8  A    between atoms: C8_9  and  C9_10
REMARK    9  A    between atoms: C9_10  and  C10_11
REMARK   10  A    between atoms: C10_11  and  C11_13
REMARK   11  A    between atoms: C10_11  and  O4_21
REMARK   12  A    between atoms: C11_13  and  C12_14
REMARK   13  A    between atoms: C12_14  and  C13_16
REMARK   14  A    between atoms: C12_14  and  O3_20
REMARK   15  A    between atoms: C13_16  and  C14_17
REMARK   16  A    between atoms: S1_35  and  N2_38
REMARK                            x       y       z     vdW  Elec       q    Type
REMARK                         _______ _______ _______ _____ _____    ______ ____
ROOT
ATOM      1  C4  <0> A   1     -27.825  -4.536  51.890  0.00  0.00    +0.173 C 
ATOM      2  C5  <0> A   1     -28.499  -3.369  51.897  0.00  0.00    -0.737 C 
ATOM      3  C6  <0> A   1     -27.546  -2.322  51.927  0.00  0.00    -0.022 C 
ATOM      4  C7  <0> A   1     -26.296  -2.920  51.938  0.00  0.00    +0.059 C 
ATOM      5  N1  <0> A   1     -26.486  -4.276  51.921  0.00  0.00    -0.412 N 
ENDROOT
BRANCH   4   6
ATOM      6  C15 <0> A   1     -24.996  -2.221  51.968  0.00  0.00    -0.027 A 
ATOM      7  C16 <0> A   1     -24.434  -1.839  53.189  0.00  0.00    +0.045 A 
ATOM      8  C17 <0> A   1     -23.219  -1.186  53.210  0.00  0.00    -0.008 A 
ATOM      9  C18 <0> A   1     -22.556  -0.910  52.025  0.00  0.00    +0.105 A 
ATOM     10  C19 <0> A   1     -23.109  -1.288  50.812  0.00  0.00    -0.008 A 
ATOM     11  C20 <0> A   1     -24.320  -1.946  50.777  0.00  0.00    +0.074 A 
ATOM     12  F1  <0> A   1     -21.367  -0.270  52.054  0.00  0.00    -0.137 F 
ENDBRANCH   4   6
BRANCH   3  13
ATOM     13  C21 <0> A   1     -27.830  -0.869  51.944  0.00  0.00    -0.034 A 
ATOM     14  C22 <0> A   1     -28.071  -0.217  53.153  0.00  0.00    +0.061 A 
ATOM     15  C23 <0> A   1     -28.334   1.137  53.163  0.00  0.00    -0.000 A 
ATOM     16  C24 <0> A   1     -28.361   1.848  51.977  0.00  0.00    +0.003 A 
ATOM     17  C25 <0> A   1     -28.124   1.207  50.774  0.00  0.00    -0.009 A 
ATOM     18  C26 <0> A   1     -27.853  -0.146  50.752  0.00  0.00    +0.017 A 
ENDBRANCH   3  13
BRANCH   1  20
ATOM     19  C1  <0> A   1     -28.352  -6.481  50.446  0.00  0.00    +0.040 C 
ATOM     20  C2  <0> A   1     -28.451  -5.906  51.861  0.00  0.00    +0.059 C 
ATOM     21  C3  <0> A   1     -27.713  -6.825  52.837  0.00  0.00    +0.039 C 
ENDBRANCH   1  20
BRANCH   2  22
ATOM     22  S1  <0> A   1     -30.250  -3.179  51.872  0.00  0.00    +2.731 S 
ATOM     23  O5  <0> A   1     -30.508  -1.784  51.936  0.00  0.00    -0.945 OA
ATOM     24  O6  <0> A   1     -30.732  -3.996  50.813  0.00  0.00    -0.960 OA
BRANCH  22  25
ATOM     25  N2  <0> A   1     -30.834  -3.834  53.277  0.00  0.00    -1.039 NA
ATOM     26  C27 <0> A   1     -30.647  -3.591  54.715  0.00  0.00    +0.286 C 
ATOM     27  C28 <0> A   1     -30.998  -5.067  54.954  0.00  0.00    +0.030 C 
ATOM     28  C29 <0> A   1     -31.772  -4.909  53.635  0.00  0.00    +0.290 C 
ENDBRANCH  22  25
ENDBRANCH   2  22
BRANCH   5  29
ATOM     29  C8  <0> A   1     -25.424  -5.286  51.930  0.00  0.00    +0.294 C 
BRANCH  29  30
ATOM     30  C9  <0> A   1     -24.893  -5.481  50.509  0.00  0.00    -0.015 C 
BRANCH  30  31
ATOM     31  C10 <0> A   1     -25.058  -6.945  50.099  0.00  0.00    +0.218 C 
BRANCH  31  32
ATOM     32  O4  <0> A   1     -24.781  -7.084  48.704  0.00  0.00    -0.540 OA
ATOM     33  H19 <0> A   1     -24.461  -7.962  48.452  0.00  0.00    +0.366 HD
ENDBRANCH  31  32
BRANCH  31  34
ATOM     34  C11 <0> A   1     -24.085  -7.812  50.901  0.00  0.00    -0.047 C 
BRANCH  34  35
ATOM     35  C12 <0> A   1     -24.607  -9.249  50.954  0.00  0.00    +0.232 C 
BRANCH  35  36
ATOM     36  O3  <0> A   1     -25.963  -9.280  50.502  0.00  0.00    -0.528 OA
ATOM     37  H18 <0> A   1     -26.066  -9.582  49.590  0.00  0.00    +0.350 HD
ENDBRANCH  35  36
BRANCH  35  38
ATOM     38  C13 <0> A   1     -23.749 -10.138  50.052  0.00  0.00    -0.102 C 
BRANCH  38  39
ATOM     39  C14 <0> A   1     -24.578 -10.630  48.894  0.00  0.00    +0.491 C 
ATOM     40  O1  <0> A   1     -25.118 -11.722  48.951  0.00  0.00    -0.681 OA
ATOM     41  O2  <0> A   1     -24.708  -9.937  47.899  0.00  0.00    -0.712 OA
ENDBRANCH  38  39
ENDBRANCH  35  38
ENDBRANCH  34  35
ENDBRANCH  31  34
ENDBRANCH  30  31
ENDBRANCH  29  30
ENDBRANCH   5  29
TORSDOF 14
