REMARK VINA RESULT:      -8.1      3.312      8.405
REMARK  Name = CHEMBL228954
REMARK  13 active torsions:
REMARK  status: ('A' for Active; 'I' for Inactive)
REMARK    1  A    between atoms: C1_1  and  C2_2
REMARK    2  A    between atoms: C2_2  and  C3_3
REMARK    3  A    between atoms: C2_2  and  N1_4
REMARK    4  A    between atoms: C4_5  and  C21_26
REMARK    5  A    between atoms: C5_6  and  C15_19
REMARK    6  A    between atoms: C21_26  and  C22_27
REMARK    7  A    between atoms: C22_27  and  C23_28
REMARK    8  A    between atoms: C23_28  and  C24_30
REMARK    9  A    between atoms: C23_28  and  O5_38
REMARK   10  A    between atoms: C24_30  and  C25_31
REMARK   11  A    between atoms: C25_31  and  C26_33
REMARK   12  A    between atoms: C25_31  and  O4_37
REMARK   13  A    between atoms: C26_33  and  C27_34
REMARK                            x       y       z     vdW  Elec       q    Type
REMARK                         _______ _______ _______ _____ _____    ______ ____
ROOT
ATOM      1  N1  <0> A   1     -13.815  11.051  45.698  0.00  0.00    -0.392 N 
ATOM      2  C4  <0> A   1     -13.978   9.797  46.186  0.00  0.00    +0.109 C 
ATOM      3  C5  <0> A   1     -13.834   8.893  45.174  0.00  0.00    -0.131 C 
ATOM      4  C6  <0> A   1     -13.562   9.664  43.966  0.00  0.00    -0.042 C 
ATOM      5  C7  <0> A   1     -13.566  11.006  44.346  0.00  0.00    -0.048 C 
ATOM      6  C8  <0> A   1     -13.331  12.002  43.370  0.00  0.00    +0.580 C 
ATOM      7  O1  <0> A   1     -13.332  13.174  43.703  0.00  0.00    -0.535 OA
ATOM      8  N2  <0> A   1     -13.108  11.684  42.083  0.00  0.00    -0.629 N 
ATOM      9  H1  <0> A   1     -12.951  12.396  41.443  0.00  0.00    +0.418 HD
ATOM     10  C9  <0> A   1     -13.095  10.372  41.645  0.00  0.00    +0.160 A 
ATOM     11  C10 <0> A   1     -13.312   9.326  42.558  0.00  0.00    -0.055 A 
ATOM     12  C11 <0> A   1     -13.301   8.004  42.117  0.00  0.00    +0.065 A 
ATOM     13  C12 <0> A   1     -13.061   7.729  40.788  0.00  0.00    -0.015 A 
ATOM     14  C13 <0> A   1     -12.832   8.759  39.890  0.00  0.00    +0.046 A 
ATOM     15  C14 <0> A   1     -12.859  10.073  40.308  0.00  0.00    -0.025 A 
ENDROOT
BRANCH   3  16
ATOM     16  C15 <0> A   1     -13.936   7.417  45.281  0.00  0.00    -0.013 A 
ATOM     17  C16 <0> A   1     -14.958   6.738  44.620  0.00  0.00    +0.054 A 
ATOM     18  C17 <0> A   1     -15.049   5.365  44.723  0.00  0.00    -0.012 A 
ATOM     19  C18 <0> A   1     -14.127   4.662  45.484  0.00  0.00    +0.098 A 
ATOM     20  C19 <0> A   1     -13.111   5.333  46.143  0.00  0.00    -0.014 A 
ATOM     21  C20 <0> A   1     -13.009   6.706  46.040  0.00  0.00    +0.053 A 
ATOM     22  F1  <0> A   1     -14.221   3.319  45.583  0.00  0.00    -0.140 F 
ENDBRANCH   3  16
BRANCH   1  24
ATOM     23  C1  <0> A   1     -15.269  12.350  47.174  0.00  0.00    +0.045 C 
ATOM     24  C2  <0> A   1     -13.900  12.278  46.494  0.00  0.00    +0.229 C 
ATOM     25  C3  <0> A   1     -12.801  12.273  47.558  0.00  0.00    +0.046 C 
ENDBRANCH   1  24
BRANCH   2  26
ATOM     26  C21 <0> A   1     -14.271   9.453  47.624  0.00  0.00    +0.121 C 
BRANCH  26  27
ATOM     27  C22 <0> A   1     -15.653   8.805  47.722  0.00  0.00    -0.005 C 
BRANCH  27  28
ATOM     28  C23 <0> A   1     -15.585   7.599  48.660  0.00  0.00    +0.213 C 
BRANCH  28  29
ATOM     29  O5  <0> A   1     -16.165   7.941  49.921  0.00  0.00    -0.542 OA
ATOM     30  H28 <0> A   1     -17.037   8.353  49.854  0.00  0.00    +0.364 HD
ENDBRANCH  28  29
BRANCH  28  31
ATOM     31  C24 <0> A   1     -16.356   6.429  48.044  0.00  0.00    -0.051 C 
BRANCH  31  32
ATOM     32  C25 <0> A   1     -17.838   6.794  47.940  0.00  0.00    +0.231 C 
BRANCH  32  33
ATOM     33  O4  <0> A   1     -18.262   6.685  46.581  0.00  0.00    -0.528 OA
ATOM     34  H27 <0> A   1     -17.928   7.389  46.007  0.00  0.00    +0.349 HD
ENDBRANCH  32  33
BRANCH  32  35
ATOM     35  C26 <0> A   1     -18.660   5.840  48.810  0.00  0.00    -0.103 C 
BRANCH  35  36
ATOM     36  C27 <0> A   1     -20.122   6.194  48.700  0.00  0.00    +0.490 C 
ATOM     37  O2  <0> A   1     -20.836   5.597  47.914  0.00  0.00    -0.681 OA
ATOM     38  O3  <0> A   1     -20.588   7.078  49.399  0.00  0.00    -0.713 OA
ENDBRANCH  35  36
ENDBRANCH  32  35
ENDBRANCH  31  32
ENDBRANCH  28  31
ENDBRANCH  27  28
ENDBRANCH  26  27
ENDBRANCH   2  26
TORSDOF 11
