REMARK VINA RESULT:      -8.8     15.202     18.408
REMARK  Name = CHEMBL228667
REMARK  14 active torsions:
REMARK  status: ('A' for Active; 'I' for Inactive)
REMARK    1  A    between atoms: C1_1  and  C2_2
REMARK    2  A    between atoms: C2_2  and  C3_3
REMARK    3  A    between atoms: C2_2  and  N1_4
REMARK    4  A    between atoms: C4_5  and  C28_32
REMARK    5  A    between atoms: C5_6  and  C22_25
REMARK    6  A    between atoms: N2_11  and  C16_19
REMARK    7  A    between atoms: C28_32  and  C29_33
REMARK    8  A    between atoms: C29_33  and  C30_34
REMARK    9  A    between atoms: C30_34  and  C31_36
REMARK   10  A    between atoms: C30_34  and  O5_44
REMARK   11  A    between atoms: C31_36  and  C32_37
REMARK   12  A    between atoms: C32_37  and  C33_39
REMARK   13  A    between atoms: C32_37  and  O4_43
REMARK   14  A    between atoms: C33_39  and  C34_40
REMARK                            x       y       z     vdW  Elec       q    Type
REMARK                         _______ _______ _______ _____ _____    ______ ____
ROOT
ATOM      1  N1  <0> A   1     -27.492  -3.891  51.882  0.00  0.00    -0.391 N 
ATOM      2  C4  <0> A   1     -26.152  -4.076  51.956  0.00  0.00    +0.089 C 
ATOM      3  C5  <0> A   1     -25.542  -2.863  52.079  0.00  0.00    -0.128 C 
ATOM      4  C6  <0> A   1     -26.559  -1.876  52.082  0.00  0.00    -0.057 C 
ATOM      5  C7  <0> A   1     -27.766  -2.543  51.949  0.00  0.00    -0.031 C 
ATOM      6  C8  <0> A   1     -29.090  -1.926  51.886  0.00  0.00    +0.598 C 
ATOM      7  O1  <0> A   1     -29.940  -2.412  51.163  0.00  0.00    -0.527 OA
ATOM      8  N2  <0> A   1     -29.387  -0.839  52.606  0.00  0.00    -0.552 N 
ATOM      9  C9  <0> A   1     -28.471  -0.250  53.568  0.00  0.00    +0.339 C 
ATOM     10  C10 <0> A   1     -27.276   0.367  52.898  0.00  0.00    -0.107 A 
ATOM     11  C11 <0> A   1     -26.364  -0.416  52.203  0.00  0.00    +0.006 A 
ATOM     12  C12 <0> A   1     -25.257   0.183  51.599  0.00  0.00    +0.028 A 
ATOM     13  C13 <0> A   1     -25.071   1.547  51.699  0.00  0.00    +0.014 A 
ATOM     14  C14 <0> A   1     -25.983   2.319  52.397  0.00  0.00    +0.002 A 
ATOM     15  C15 <0> A   1     -27.081   1.733  52.984  0.00  0.00    +0.021 A 
ENDROOT
BRANCH   3  16
ATOM     16  C22 <0> A   1     -24.082  -2.621  52.189  0.00  0.00    -0.011 A 
ATOM     17  C23 <0> A   1     -23.260  -2.780  51.075  0.00  0.00    +0.051 A 
ATOM     18  C24 <0> A   1     -21.904  -2.554  51.183  0.00  0.00    -0.012 A 
ATOM     19  C25 <0> A   1     -21.358  -2.169  52.397  0.00  0.00    +0.096 A 
ATOM     20  C26 <0> A   1     -22.170  -2.010  53.507  0.00  0.00    -0.018 A 
ATOM     21  C27 <0> A   1     -23.530  -2.228  53.407  0.00  0.00    +0.056 A 
ATOM     22  F1  <0> A   1     -20.029  -1.949  52.498  0.00  0.00    -0.141 F 
ENDBRANCH   3  16
BRANCH   8  23
ATOM     23  C16 <0> A   1     -30.638  -0.240  52.426  0.00  0.00    +0.136 A 
ATOM     24  C17 <0> A   1     -31.752  -0.746  53.083  0.00  0.00    +0.015 A 
ATOM     25  C18 <0> A   1     -32.986  -0.152  52.903  0.00  0.00    +0.015 A 
ATOM     26  C19 <0> A   1     -33.113   0.942  52.068  0.00  0.00    +0.011 A 
ATOM     27  C20 <0> A   1     -32.006   1.447  51.412  0.00  0.00    +0.015 A 
ATOM     28  C21 <0> A   1     -30.768   0.863  51.592  0.00  0.00    +0.019 A 
ENDBRANCH   8  23
BRANCH   1  30
ATOM     29  C1  <0> A   1     -28.446  -5.519  50.325  0.00  0.00    +0.050 C 
ATOM     30  C2  <0> A   1     -28.491  -4.955  51.747  0.00  0.00    +0.231 C 
ATOM     31  C3  <0> A   1     -28.185  -6.071  52.748  0.00  0.00    +0.045 C 
ENDBRANCH   1  30
BRANCH   2  32
ATOM     32  C28 <0> A   1     -25.450  -5.408  51.909  0.00  0.00    +0.119 C 
BRANCH  32  33
ATOM     33  C29 <0> A   1     -24.877  -5.634  50.508  0.00  0.00    -0.009 C 
BRANCH  33  34
ATOM     34  C30 <0> A   1     -25.141  -7.078  50.076  0.00  0.00    +0.213 C 
BRANCH  34  35
ATOM     35  O5  <0> A   1     -25.057  -7.173  48.653  0.00  0.00    -0.541 OA
ATOM     36  H34 <0> A   1     -25.879  -6.950  48.194  0.00  0.00    +0.362 HD
ENDBRANCH  34  35
BRANCH  34  37
ATOM     37  C31 <0> A   1     -24.097  -7.998  50.711  0.00  0.00    -0.051 C 
BRANCH  37  38
ATOM     38  C32 <0> A   1     -24.643  -9.427  50.768  0.00  0.00    +0.231 C 
BRANCH  38  39
ATOM     39  O4  <0> A   1     -26.002  -9.435  50.324  0.00  0.00    -0.528 OA
ATOM     40  H33 <0> A   1     -26.111  -9.692  49.397  0.00  0.00    +0.349 HD
ENDBRANCH  38  39
BRANCH  38  41
ATOM     41  C33 <0> A   1     -23.804 -10.330  49.860  0.00  0.00    -0.103 C 
BRANCH  41  42
ATOM     42  C34 <0> A   1     -24.620 -10.730  48.659  0.00  0.00    +0.490 C 
ATOM     43  O2  <0> A   1     -25.133 -11.834  48.609  0.00  0.00    -0.681 OA
ATOM     44  O3  <0> A   1     -24.767  -9.948  47.735  0.00  0.00    -0.713 OA
ENDBRANCH  41  42
ENDBRANCH  38  41
ENDBRANCH  37  38
ENDBRANCH  34  37
ENDBRANCH  33  34
ENDBRANCH  32  33
ENDBRANCH   2  32
TORSDOF 12
