REMARK VINA RESULT:      -6.7     18.809     22.398
REMARK  Name = CHEMBL331610
REMARK  16 active torsions:
REMARK  status: ('A' for Active; 'I' for Inactive)
REMARK    1  A    between atoms: C1_1  and  C2_2
REMARK    2  A    between atoms: C2_2  and  C3_3
REMARK    3  A    between atoms: C3_3  and  C4_4
REMARK    4  A    between atoms: C3_3  and  C5_5
REMARK    5  A    between atoms: C3_3  and  C6_6
REMARK    6  A    between atoms: C6_6  and  O2_8
REMARK    7  A    between atoms: O2_8  and  C7_9
REMARK    8  A    between atoms: C8_11  and  C26_37
REMARK    9  A    between atoms: C9_13  and  C25_36
REMARK   10  A    between atoms: C13_18  and  C18_25
REMARK   11  A    between atoms: C14_20  and  C17_24
REMARK   12  A    between atoms: C18_25  and  C19_26
REMARK   13  A    between atoms: C19_26  and  C20_27
REMARK   14  A    between atoms: C22_29  and  O5_35
REMARK   15  A    between atoms: C26_37  and  C27_39
REMARK   16  A    between atoms: C26_37  and  O6_45
REMARK                            x       y       z     vdW  Elec       q    Type
REMARK                         _______ _______ _______ _____ _____    ______ ____
ROOT
ATOM      1  C7  <0> A   1     -27.204  -5.103  50.149  0.00  0.00    +0.201 C 
ATOM      2  C8  <0> A   1     -26.150  -6.192  49.959  0.00  0.00    -0.048 C 
ATOM      3  C9  <0> A   1     -25.217  -6.179  51.178  0.00  0.00    +0.033 C 
ATOM      4  C10 <0> A   1     -26.049  -6.499  52.394  0.00  0.00    -0.039 C 
ATOM      5  C11 <0> A   1     -27.309  -6.115  52.470  0.00  0.00    -0.069 C 
ATOM      6  C12 <0> A   1     -27.998  -5.301  51.417  0.00  0.00    +0.044 C 
ATOM      7  C13 <0> A   1     -29.367  -5.931  51.150  0.00  0.00    +0.011 C 
ATOM      8  C14 <0> A   1     -30.193  -5.869  52.437  0.00  0.00    +0.022 C 
ATOM      9  C15 <0> A   1     -29.426  -6.387  53.614  0.00  0.00    -0.017 C 
ATOM     10  C16 <0> A   1     -28.115  -6.498  53.653  0.00  0.00    -0.011 C 
ATOM     11  C17 <0> A   1     -31.458  -6.710  52.257  0.00  0.00    +0.029 C 
ATOM     12  C25 <0> A   1     -24.582  -4.795  51.331  0.00  0.00    +0.041 C 
ENDROOT
BRANCH   1  13
ATOM     13  O2  <0> A   1     -26.555  -3.832  50.201  0.00  0.00    -0.333 OA
BRANCH  13  14
ATOM     14  C6  <0> A   1     -27.317  -2.749  49.977  0.00  0.00    +0.464 C 
ATOM     15  O1  <0> A   1     -28.024  -2.700  49.000  0.00  0.00    -0.502 OA
BRANCH  14  16
ATOM     16  C3  <0> A   1     -27.289  -1.595  50.947  0.00  0.00    -0.052 C 
ATOM     17  C4  <0> A   1     -26.494  -1.994  52.192  0.00  0.00    +0.060 C 
ATOM     18  C5  <0> A   1     -28.720  -1.233  51.350  0.00  0.00    +0.060 C 
BRANCH  16  20
ATOM     19  C1  <0> A   1     -25.124  -0.645  50.139  0.00  0.00    +0.024 C 
ATOM     20  C2  <0> A   1     -26.624  -0.387  50.283  0.00  0.00    +0.036 C 
ENDBRANCH  16  20
ENDBRANCH  14  16
ENDBRANCH  13  14
ENDBRANCH   1  13
BRANCH   7  21
ATOM     21  C18 <0> A   1     -29.186  -7.389  50.723  0.00  0.00    +0.034 C 
BRANCH  21  22
ATOM     22  C19 <0> A   1     -30.312  -7.784  49.766  0.00  0.00    +0.053 C 
BRANCH  22  23
ATOM     23  C20 <0> A   1     -30.556  -9.291  49.858  0.00  0.00    +0.178 C 
ATOM     24  C21 <0> A   1     -32.059  -9.571  49.788  0.00  0.00    +0.033 C 
ATOM     25  C22 <0> A   1     -32.302 -11.078  49.922  0.00  0.00    +0.181 C 
ATOM     26  C23 <0> A   1     -31.736 -11.554  51.266  0.00  0.00    +0.007 C 
ATOM     27  C24 <0> A   1     -30.302 -11.079  51.371  0.00  0.00    +0.498 C 
ATOM     28  O3  <0> A   1     -29.418 -11.839  51.689  0.00  0.00    -0.454 OA
ATOM     29  O4  <0> A   1     -30.041  -9.783  51.100  0.00  0.00    -0.341 OA
BRANCH  25  30
ATOM     30  O5  <0> A   1     -31.649 -11.765  48.853  0.00  0.00    -0.563 OA
ATOM     31  H35 <0> A   1     -30.972 -12.391  49.143  0.00  0.00    +0.385 HD
ENDBRANCH  25  30
ENDBRANCH  22  23
ENDBRANCH  21  22
ENDBRANCH   7  21
BRANCH   2  32
ATOM     32  C26 <0> A   1     -26.832  -7.557  49.846  0.00  0.00    +0.279 C 
BRANCH  32  33
ATOM     33  C27 <0> A   1     -25.801  -8.647  49.977  0.00  0.00    -0.067 A 
ATOM     34  C28 <0> A   1     -24.551  -8.488  49.407  0.00  0.00    -0.003 A 
ATOM     35  C29 <0> A   1     -23.604  -9.489  49.527  0.00  0.00    +0.005 A 
ATOM     36  C30 <0> A   1     -23.907 -10.647  50.219  0.00  0.00    -0.009 A 
ATOM     37  C31 <0> A   1     -25.156 -10.804  50.790  0.00  0.00    -0.014 A 
ATOM     38  C32 <0> A   1     -26.101  -9.803  50.672  0.00  0.00    +0.014 A 
ENDBRANCH  32  33
BRANCH  32  39
ATOM     39  O6  <0> A   1     -27.478  -7.662  48.575  0.00  0.00    -0.535 OA
ATOM     40  H44 <0> A   1     -27.508  -6.833  48.080  0.00  0.00    +0.364 HD
ENDBRANCH  32  39
ENDBRANCH   2  32
TORSDOF 11
