REMARK VINA RESULT:      -7.4     16.345     19.593
REMARK  Name = CHEMBL468205
REMARK  13 active torsions:
REMARK  status: ('A' for Active; 'I' for Inactive)
REMARK    1  A    between atoms: C1_1  and  C2_2
REMARK    2  A    between atoms: C2_2  and  C3_3
REMARK    3  A    between atoms: C2_2  and  C4_4
REMARK    4  A    between atoms: C5_5  and  C18_24
REMARK    5  A    between atoms: C6_6  and  C12_17
REMARK    6  A    between atoms: N4_14  and  C11_16
REMARK    7  A    between atoms: C19_25  and  C20_26
REMARK    8  A    between atoms: C20_26  and  C21_28
REMARK    9  A    between atoms: C20_26  and  O4_36
REMARK   10  A    between atoms: C21_28  and  C22_29
REMARK   11  A    between atoms: C22_29  and  C23_31
REMARK   12  A    between atoms: C22_29  and  O3_35
REMARK   13  A    between atoms: C23_31  and  C24_32
REMARK                            x       y       z     vdW  Elec       q    Type
REMARK                         _______ _______ _______ _____ _____    ______ ____
ROOT
ATOM      1  C4  <0> A   1     -28.663  -5.167  52.212  0.00  0.00    +0.240 A 
ATOM      2  C5  <0> A   1     -27.437  -4.536  51.981  0.00  0.00    -0.186 A 
ATOM      3  C6  <0> A   1     -27.420  -3.129  51.895  0.00  0.00    +0.263 A 
ATOM      4  N1  <0> A   1     -28.562  -2.463  52.038  0.00  0.00    -0.541 NA
ATOM      5  C7  <0> A   1     -29.698  -3.108  52.257  0.00  0.00    +0.571 A 
ATOM      6  N2  <0> A   1     -29.751  -4.430  52.338  0.00  0.00    -0.551 NA
ATOM      7  N3  <0> A   1     -30.866  -2.378  52.400  0.00  0.00    -0.600 N 
ATOM      8  C8  <0> A   1     -30.834  -0.981  52.313  0.00  0.00    +0.316 C 
ATOM      9  C9  <0> A   1     -29.694  -0.194  52.079  0.00  0.00    -0.084 C 
ATOM     10  C10 <0> A   1     -30.080   1.101  52.067  0.00  0.00    +0.234 C 
ATOM     11  N4  <0> A   1     -31.412   1.139  52.283  0.00  0.00    -0.374 N 
ATOM     12  N5  <0> A   1     -31.865  -0.178  52.429  0.00  0.00    -0.332 NA
ATOM     13  C11 <0> A   1     -32.239   2.347  52.349  0.00  0.00    +0.353 C 
ATOM     14  H10 <0> A   1     -31.706  -2.835  52.560  0.00  0.00    +0.428 HD
ENDROOT
BRANCH   3  15
ATOM     15  C12 <0> A   1     -26.151  -2.404  51.651  0.00  0.00    -0.072 A 
ATOM     16  C13 <0> A   1     -25.844  -1.943  50.371  0.00  0.00    +0.099 A 
ATOM     17  C14 <0> A   1     -24.662  -1.270  50.148  0.00  0.00    -0.014 A 
ATOM     18  C15 <0> A   1     -23.779  -1.049  51.194  0.00  0.00    +0.120 A 
ATOM     19  C16 <0> A   1     -24.079  -1.506  52.468  0.00  0.00    -0.024 A 
ATOM     20  C17 <0> A   1     -25.263  -2.176  52.702  0.00  0.00    +0.090 A 
ATOM     21  F1  <0> A   1     -22.622  -0.389  50.971  0.00  0.00    -0.136 F 
ENDBRANCH   3  15
BRANCH   1  23
ATOM     22  C1  <0> A   1     -29.476  -7.057  53.598  0.00  0.00    +0.043 C 
ATOM     23  C2  <0> A   1     -28.741  -6.669  52.313  0.00  0.00    +0.050 C 
ATOM     24  C3  <0> A   1     -29.499  -7.222  51.104  0.00  0.00    +0.043 C 
ENDBRANCH   1  23
BRANCH   2  25
ATOM     25  C18 <0> A   1     -26.196  -5.321  51.829  0.00  0.00    +0.014 C 
ATOM     26  C19 <0> A   1     -25.833  -5.765  50.633  0.00  0.00    -0.039 C 
BRANCH  26  27
ATOM     27  C20 <0> A   1     -24.566  -6.566  50.479  0.00  0.00    +0.252 C 
BRANCH  27  28
ATOM     28  O4  <0> A   1     -23.717  -6.334  51.605  0.00  0.00    -0.537 OA
ATOM     29  H27 <0> A   1     -23.410  -5.420  51.684  0.00  0.00    +0.366 HD
ENDBRANCH  27  28
BRANCH  27  30
ATOM     30  C21 <0> A   1     -24.910  -8.055  50.397  0.00  0.00    -0.041 C 
BRANCH  30  31
ATOM     31  C22 <0> A   1     -24.210  -8.674  49.186  0.00  0.00    +0.231 C 
BRANCH  31  32
ATOM     32  O3  <0> A   1     -23.299  -7.726  48.626  0.00  0.00    -0.528 OA
ATOM     33  H26 <0> A   1     -22.718  -7.308  49.276  0.00  0.00    +0.350 HD
ENDBRANCH  31  32
BRANCH  31  34
ATOM     34  C23 <0> A   1     -23.442  -9.923  49.624  0.00  0.00    -0.102 C 
BRANCH  34  35
ATOM     35  C24 <0> A   1     -24.115 -11.149  49.062  0.00  0.00    +0.490 C 
ATOM     36  O1  <0> A   1     -23.449 -12.123  48.752  0.00  0.00    -0.681 OA
ATOM     37  O2  <0> A   1     -25.325 -11.167  48.918  0.00  0.00    -0.713 OA
ENDBRANCH  34  35
ENDBRANCH  31  34
ENDBRANCH  30  31
ENDBRANCH  27  30
ENDBRANCH  26  27
ENDBRANCH   2  25
TORSDOF 10
