REMARK VINA RESULT:      -7.1      9.744     12.005
REMARK  Name = CHEMBL101806
REMARK  11 active torsions:
REMARK  status: ('A' for Active; 'I' for Inactive)
REMARK    1  A    between atoms: C5_5  and  O2_15
REMARK    2  A    between atoms: C6_6  and  C7_7
REMARK    3  A    between atoms: C7_7  and  C8_9
REMARK    4  A    between atoms: O2_15  and  C14_16
REMARK    5  A    between atoms: C14_16  and  C15_17
REMARK    6  A    between atoms: C15_17  and  C16_18
REMARK    7  A    between atoms: C15_17  and  O6_26
REMARK    8  A    between atoms: C16_18  and  C17_19
REMARK    9  A    between atoms: C17_19  and  C18_21
REMARK   10  A    between atoms: C17_19  and  O5_25
REMARK   11  A    between atoms: C18_21  and  C19_22
REMARK                            x       y       z     vdW  Elec       q    Type
REMARK                         _______ _______ _______ _____ _____    ______ ____
ROOT
ATOM      1  C1  <0> A   1      -3.196   6.912  47.643  0.00  0.00    +0.103 A 
ATOM      2  C2  <0> A   1      -2.963   7.547  48.844  0.00  0.00    -0.048 A 
ATOM      3  C3  <0> A   1      -3.372   6.964  50.034  0.00  0.00    +0.091 A 
ATOM      4  C4  <0> A   1      -4.015   5.742  50.030  0.00  0.00    -0.063 A 
ATOM      5  C5  <0> A   1      -4.258   5.087  48.832  0.00  0.00    +0.174 A 
ATOM      6  C6  <0> A   1      -3.847   5.673  47.624  0.00  0.00    -0.168 A 
ATOM      7 Cl1  <0> A   1      -4.520   5.024  51.528  0.00  0.00    -0.030 Cl
ATOM      8 Cl2  <0> A   1      -2.155   9.083  48.866  0.00  0.00    -0.049 Cl
ENDROOT
BRANCH   6   9
ATOM      9  C7  <0> A   1      -4.100   4.991  46.349  0.00  0.00    +0.394 C 
ATOM     10  O1  <0> A   1      -5.088   5.264  45.700  0.00  0.00    -0.410 OA
BRANCH   9  11
ATOM     11  C8  <0> A   1      -3.132   3.951  45.847  0.00  0.00    -0.031 C 
ATOM     12  C9  <0> A   1      -1.722   4.543  45.805  0.00  0.00    +0.029 C 
ATOM     13  C10 <0> A   1      -0.740   3.487  45.294  0.00  0.00    +0.015 C 
ATOM     14  C11 <0> A   1      -1.149   3.046  43.888  0.00  0.00    +0.004 C 
ATOM     15  C12 <0> A   1      -2.560   2.453  43.930  0.00  0.00    +0.010 C 
ATOM     16  C13 <0> A   1      -3.542   3.509  44.440  0.00  0.00    +0.034 C 
ENDBRANCH   9  11
ENDBRANCH   6   9
BRANCH   5  17
ATOM     17  O2  <0> A   1      -4.891   3.886  48.827  0.00  0.00    -0.298 OA
BRANCH  17  18
ATOM     18  C14 <0> A   1      -6.319   3.905  48.844  0.00  0.00    +0.164 C 
BRANCH  18  19
ATOM     19  C15 <0> A   1      -6.854   2.771  47.968  0.00  0.00    +0.233 C 
BRANCH  19  20
ATOM     20  O6  <0> A   1      -7.622   1.871  48.769  0.00  0.00    -0.530 OA
ATOM     21  H23 <0> A   1      -8.284   1.370  48.274  0.00  0.00    +0.362 HD
ENDBRANCH  19  20
BRANCH  19  22
ATOM     22  C16 <0> A   1      -7.740   3.353  46.865  0.00  0.00    -0.042 C 
BRANCH  22  23
ATOM     23  C17 <0> A   1      -7.362   2.725  45.522  0.00  0.00    +0.236 C 
BRANCH  23  24
ATOM     24  O5  <0> A   1      -7.119   3.758  44.565  0.00  0.00    -0.526 OA
ATOM     25  H22 <0> A   1      -7.576   3.631  43.722  0.00  0.00    +0.350 HD
ENDBRANCH  23  24
BRANCH  23  26
ATOM     26  C18 <0> A   1      -6.098   1.881  45.692  0.00  0.00    -0.101 C 
BRANCH  26  27
ATOM     27  C19 <0> A   1      -5.994   0.898  44.554  0.00  0.00    +0.491 C 
ATOM     28  O3  <0> A   1      -6.768   0.968  43.615  0.00  0.00    -0.680 OA
ATOM     29  O4  <0> A   1      -5.134   0.033  44.572  0.00  0.00    -0.713 OA
ENDBRANCH  26  27
ENDBRANCH  23  26
ENDBRANCH  22  23
ENDBRANCH  19  22
ENDBRANCH  18  19
ENDBRANCH  17  18
ENDBRANCH   5  17
TORSDOF 11
