REMARK VINA RESULT:      -8.2      1.357      1.953
REMARK  Name = CHEMBL438694
REMARK  15 active torsions:
REMARK  status: ('A' for Active; 'I' for Inactive)
REMARK    1  A    between atoms: C1_1  and  C2_2
REMARK    2  A    between atoms: C2_2  and  C3_3
REMARK    3  A    between atoms: C2_2  and  N1_4
REMARK    4  A    between atoms: C4_5  and  C21_25
REMARK    5  A    between atoms: C5_6  and  C15_18
REMARK    6  A    between atoms: C6_7  and  C9_12
REMARK    7  A    between atoms: C7_8  and  C8_9
REMARK    8  A    between atoms: C21_25  and  C22_26
REMARK    9  A    between atoms: C22_26  and  C23_27
REMARK   10  A    between atoms: C23_27  and  C24_29
REMARK   11  A    between atoms: C23_27  and  O5_37
REMARK   12  A    between atoms: C24_29  and  C25_30
REMARK   13  A    between atoms: C25_30  and  C26_32
REMARK   14  A    between atoms: C25_30  and  O4_36
REMARK   15  A    between atoms: C26_32  and  C27_33
REMARK                            x       y       z     vdW  Elec       q    Type
REMARK                         _______ _______ _______ _____ _____    ______ ____
ROOT
ATOM      1  N1  <0> A   1     -15.773   6.166  45.581  0.00  0.00    -0.402 N 
ATOM      2  C4  <0> A   1     -14.579   6.712  45.248  0.00  0.00    +0.073 C 
ATOM      3  C5  <0> A   1     -14.387   7.845  45.981  0.00  0.00    -0.122 C 
ATOM      4  C6  <0> A   1     -15.523   8.008  46.815  0.00  0.00    -0.059 C 
ATOM      5  C7  <0> A   1     -16.377   6.947  46.540  0.00  0.00    -0.034 C 
ENDROOT
BRANCH   3   6
ATOM      6  C15 <0> A   1     -13.207   8.741  45.920  0.00  0.00    -0.009 A 
ATOM      7  C16 <0> A   1     -12.121   8.526  46.767  0.00  0.00    +0.050 A 
ATOM      8  C17 <0> A   1     -11.026   9.363  46.707  0.00  0.00    -0.016 A 
ATOM      9  C18 <0> A   1     -11.004  10.415  45.805  0.00  0.00    +0.095 A 
ATOM     10  C19 <0> A   1     -12.081  10.632  44.962  0.00  0.00    -0.017 A 
ATOM     11  C20 <0> A   1     -13.178   9.797  45.011  0.00  0.00    +0.056 A 
ATOM     12  F1  <0> A   1      -9.929  11.232  45.750  0.00  0.00    -0.142 F 
ENDBRANCH   3   6
BRANCH   4  13
ATOM     13  C9  <0> A   1     -15.756   9.101  47.787  0.00  0.00    -0.010 A 
ATOM     14  C10 <0> A   1     -15.485   8.903  49.141  0.00  0.00    +0.026 A 
ATOM     15  C11 <0> A   1     -15.704   9.925  50.042  0.00  0.00    +0.003 A 
ATOM     16  C12 <0> A   1     -16.193  11.144  49.605  0.00  0.00    -0.002 A 
ATOM     17  C13 <0> A   1     -16.465  11.346  48.264  0.00  0.00    +0.000 A 
ATOM     18  C14 <0> A   1     -16.244  10.333  47.352  0.00  0.00    +0.008 A 
ENDBRANCH   4  13
BRANCH   5  19
ATOM     19  C8  <0> A   1     -17.679   6.702  47.161  0.00  0.00    +0.607 C 
ATOM     20  O1  <0> A   1     -17.742   6.177  48.258  0.00  0.00    -0.522 OA
ATOM     21  N2  <0> A   1     -18.809   7.056  46.519  0.00  0.00    -0.845 N 
ATOM     22  H10 <0> A   1     -18.765   7.402  45.613  0.00  0.00    +0.404 HD
ATOM     23  H11 <0> A   1     -19.668   6.967  46.960  0.00  0.00    +0.406 HD
ENDBRANCH   5  19
BRANCH   1  25
ATOM     24  C1  <0> A   1     -16.972   5.258  43.652  0.00  0.00    +0.044 C 
ATOM     25  C2  <0> A   1     -16.335   4.941  45.007  0.00  0.00    +0.229 C 
ATOM     26  C3  <0> A   1     -15.221   3.909  44.817  0.00  0.00    +0.042 C 
ENDBRANCH   1  25
BRANCH   2  27
ATOM     27  C21 <0> A   1     -13.618   6.159  44.227  0.00  0.00    +0.117 C 
BRANCH  27  28
ATOM     28  C22 <0> A   1     -13.790   6.908  42.904  0.00  0.00    -0.007 C 
BRANCH  28  29
ATOM     29  C23 <0> A   1     -12.413   7.256  42.334  0.00  0.00    +0.212 C 
BRANCH  29  30
ATOM     30  O5  <0> A   1     -11.624   6.068  42.237  0.00  0.00    -0.542 OA
ATOM     31  H30 <0> A   1     -10.873   6.044  42.846  0.00  0.00    +0.362 HD
ENDBRANCH  29  30
BRANCH  29  32
ATOM     32  C24 <0> A   1     -12.578   7.873  40.943  0.00  0.00    -0.051 C 
BRANCH  32  33
ATOM     33  C25 <0> A   1     -12.971   9.345  41.083  0.00  0.00    +0.230 C 
BRANCH  33  34
ATOM     34  O4  <0> A   1     -11.804  10.127  41.341  0.00  0.00    -0.528 OA
ATOM     35  H29 <0> A   1     -11.529  10.679  40.597  0.00  0.00    +0.349 HD
ENDBRANCH  33  34
BRANCH  33  36
ATOM     36  C26 <0> A   1     -13.628   9.822  39.786  0.00  0.00    -0.103 C 
BRANCH  36  37
ATOM     37  C27 <0> A   1     -13.588  11.327  39.726  0.00  0.00    +0.490 C 
ATOM     38  O2  <0> A   1     -14.554  11.977  40.091  0.00  0.00    -0.681 OA
ATOM     39  O3  <0> A   1     -12.591  11.895  39.315  0.00  0.00    -0.713 OA
ENDBRANCH  36  37
ENDBRANCH  33  36
ENDBRANCH  32  33
ENDBRANCH  29  32
ENDBRANCH  28  29
ENDBRANCH  27  28
ENDBRANCH   2  27
TORSDOF 13
