REMARK VINA RESULT:      -6.8     15.080     18.370
REMARK  Name = CHEMBL250382
REMARK  18 active torsions:
REMARK  status: ('A' for Active; 'I' for Inactive)
REMARK    1  A    between atoms: C1_1  and  C2_2
REMARK    2  A    between atoms: C2_2  and  C3_3
REMARK    3  A    between atoms: C3_3  and  C4_4
REMARK    4  A    between atoms: C4_4  and  N1_5
REMARK    5  A    between atoms: C5_6  and  C6_8
REMARK    6  A    between atoms: C7_9  and  C21_33
REMARK    7  A    between atoms: C8_10  and  O2_20
REMARK    8  A    between atoms: N2_11  and  C9_13
REMARK    9  A    between atoms: O2_20  and  C15_21
REMARK   10  A    between atoms: C15_21  and  C16_22
REMARK   11  A    between atoms: C16_22  and  C17_24
REMARK   12  A    between atoms: C16_22  and  O6_32
REMARK   13  A    between atoms: C17_24  and  C18_25
REMARK   14  A    between atoms: C18_25  and  C19_27
REMARK   15  A    between atoms: C18_25  and  O5_31
REMARK   16  A    between atoms: C19_27  and  C20_28
REMARK   17  A    between atoms: C21_33  and  C22_34
REMARK   18  A    between atoms: C21_33  and  C23_35
REMARK                            x       y       z     vdW  Elec       q    Type
REMARK                         _______ _______ _______ _____ _____    ______ ____
ROOT
ATOM      1  C6  <0> A   1     -24.757  -5.979  51.513  0.00  0.00    +0.043 C 
ATOM      2  C7  <0> A   1     -26.110  -5.737  51.830  0.00  0.00    -0.159 C 
ATOM      3  C8  <0> A   1     -26.293  -4.394  51.868  0.00  0.00    +0.259 C 
ATOM      4  N2  <0> A   1     -25.100  -3.803  51.584  0.00  0.00    -0.319 N 
ATOM      5  N3  <0> A   1     -24.154  -4.814  51.372  0.00  0.00    -0.238 NA
ENDROOT
BRANCH   4   6
ATOM      6  C9  <0> A   1     -24.859  -2.424  51.521  0.00  0.00    +0.127 A 
ATOM      7  C10 <0> A   1     -24.611  -1.816  50.297  0.00  0.00    +0.066 A 
ATOM      8  C11 <0> A   1     -24.374  -0.457  50.238  0.00  0.00    +0.008 A 
ATOM      9  C12 <0> A   1     -24.386   0.300  51.398  0.00  0.00    +0.107 A 
ATOM     10  C13 <0> A   1     -24.633  -0.303  52.619  0.00  0.00    +0.018 A 
ATOM     11  C14 <0> A   1     -24.875  -1.662  52.682  0.00  0.00    +0.066 A 
ATOM     12  F1  <0> A   1     -24.154   1.630  51.336  0.00  0.00    -0.132 F 
ENDBRANCH   4   6
BRANCH   1  14
ATOM     13  N1  <0> A   1     -24.194  -7.964  50.197  0.00  0.00    -0.718 N 
ATOM     14  C5  <0> A   1     -24.124  -7.306  51.371  0.00  0.00    +0.604 C 
ATOM     15  O1  <0> A   1     -23.539  -7.805  52.313  0.00  0.00    -0.515 OA
ATOM     16  H12 <0> A   1     -24.660  -7.566  49.445  0.00  0.00    +0.407 HD
BRANCH  13  17
ATOM     17  C4  <0> A   1     -23.566  -9.280  50.055  0.00  0.00    +0.261 C 
BRANCH  17  18
ATOM     18  C3  <0> A   1     -24.608 -10.294  49.580  0.00  0.00    +0.007 C 
BRANCH  18  20
ATOM     19  C1  <0> A   1     -24.361 -12.780  49.639  0.00  0.00    +0.012 C 
ATOM     20  C2  <0> A   1     -23.900 -11.494  48.948  0.00  0.00    +0.010 C 
ENDBRANCH  18  20
ENDBRANCH  17  18
ENDBRANCH  13  17
ENDBRANCH   1  14
BRANCH   2  21
ATOM     21  C21 <0> A   1     -27.164  -6.783  52.082  0.00  0.00    +0.078 C 
ATOM     22  C22 <0> A   1     -28.031  -6.360  53.270  0.00  0.00    +0.021 C 
ATOM     23  C23 <0> A   1     -28.042  -6.933  50.837  0.00  0.00    +0.029 C 
ENDBRANCH   2  21
BRANCH   3  24
ATOM     24  O2  <0> A   1     -27.459  -3.753  52.138  0.00  0.00    -0.283 OA
BRANCH  24  25
ATOM     25  C15 <0> A   1     -28.225  -3.303  51.018  0.00  0.00    +0.154 C 
BRANCH  25  26
ATOM     26  C16 <0> A   1     -28.905  -1.977  51.364  0.00  0.00    +0.230 C 
BRANCH  26  27
ATOM     27  O6  <0> A   1     -29.118  -1.906  52.776  0.00  0.00    -0.527 OA
ATOM     28  H24 <0> A   1     -29.166  -1.004  53.121  0.00  0.00    +0.365 HD
ENDBRANCH  26  27
BRANCH  26  29
ATOM     29  C17 <0> A   1     -28.013  -0.816  50.924  0.00  0.00    -0.041 C 
BRANCH  29  30
ATOM     30  C18 <0> A   1     -28.543   0.489  51.523  0.00  0.00    +0.236 C 
BRANCH  30  31
ATOM     31  O5  <0> A   1     -28.062   0.628  52.862  0.00  0.00    -0.526 OA
ATOM     32  H23 <0> A   1     -28.122   1.529  53.209  0.00  0.00    +0.351 HD
ENDBRANCH  30  31
BRANCH  30  33
ATOM     33  C19 <0> A   1     -28.054   1.671  50.682  0.00  0.00    -0.101 C 
BRANCH  33  34
ATOM     34  C20 <0> A   1     -27.854   2.871  51.571  0.00  0.00    +0.491 C 
ATOM     35  O3  <0> A   1     -28.816   3.513  51.955  0.00  0.00    -0.680 OA
ATOM     36  O4  <0> A   1     -26.728   3.200  51.906  0.00  0.00    -0.712 OA
ENDBRANCH  33  34
ENDBRANCH  30  33
ENDBRANCH  29  30
ENDBRANCH  26  29
ENDBRANCH  25  26
ENDBRANCH  24  25
ENDBRANCH   3  24
TORSDOF 15
