REMARK VINA RESULT:      -7.4      9.273     12.130
REMARK  Name = CHEMBL120897
REMARK  9 active torsions:
REMARK  status: ('A' for Active; 'I' for Inactive)
REMARK    1  A    between atoms: C1_1  and  C2_2
REMARK    2  A    between atoms: C2_2  and  C3_3
REMARK    3  A    between atoms: C2_2  and  C4_4
REMARK    4  A    between atoms: C6_6  and  C21_28
REMARK    5  A    between atoms: C7_7  and  C15_21
REMARK    6  A    between atoms: N1_8  and  C8_9
REMARK    7  A    between atoms: C8_9  and  C9_10
REMARK    8  A    between atoms: C9_10  and  C10_11
REMARK    9  A    between atoms: C12_14  and  O3_20
REMARK                            x       y       z     vdW  Elec       q    Type
REMARK                         _______ _______ _______ _____ _____    ______ ____
ROOT
ATOM      1  C4  <0> A   1      -5.533   4.221  47.833  0.00  0.00    +0.043 C 
ATOM      2  C5  <0> A   1      -5.892   3.824  49.068  0.00  0.00    -0.028 C 
ATOM      3  C6  <0> A   1      -5.038   4.471  49.993  0.00  0.00    -0.116 C 
ATOM      4  C7  <0> A   1      -4.170   5.258  49.252  0.00  0.00    +0.069 C 
ATOM      5  N1  <0> A   1      -4.483   5.086  47.931  0.00  0.00    -0.426 N 
ENDROOT
BRANCH   4   6
ATOM      6  C15 <0> A   1      -3.097   6.118  49.790  0.00  0.00    -0.028 A 
ATOM      7  C16 <0> A   1      -3.265   7.503  49.833  0.00  0.00    +0.043 A 
ATOM      8  C17 <0> A   1      -2.259   8.302  50.337  0.00  0.00    -0.008 A 
ATOM      9  C18 <0> A   1      -1.084   7.731  50.799  0.00  0.00    +0.104 A 
ATOM     10  C19 <0> A   1      -0.910   6.357  50.757  0.00  0.00    -0.007 A 
ATOM     11  C20 <0> A   1      -1.911   5.548  50.261  0.00  0.00    +0.070 A 
ATOM     12  F1  <0> A   1      -0.102   8.518  51.290  0.00  0.00    -0.137 F 
ENDBRANCH   4   6
BRANCH   3  13
ATOM     13  C21 <0> A   1      -5.066   4.334  51.466  0.00  0.00    +0.044 A 
ATOM     14  C22 <0> A   1      -4.435   3.258  52.101  0.00  0.00    -0.033 A 
ATOM     15  C23 <0> A   1      -4.485   3.170  53.476  0.00  0.00    +0.254 A 
ATOM     16  N2  <0> A   1      -5.117   4.083  54.190  0.00  0.00    -0.491 NA
ATOM     17  C24 <0> A   1      -5.725   5.113  53.632  0.00  0.00    +0.254 A 
ATOM     18  C25 <0> A   1      -5.718   5.281  52.264  0.00  0.00    -0.032 A 
ENDBRANCH   3  13
BRANCH   1  20
ATOM     19  C1  <0> A   1      -6.709   2.347  46.711  0.00  0.00    +0.040 C 
ATOM     20  C2  <0> A   1      -6.181   3.774  46.547  0.00  0.00    +0.048 C 
ATOM     21  C3  <0> A   1      -7.342   4.712  46.209  0.00  0.00    +0.033 C 
ENDBRANCH   1  20
BRANCH   5  22
ATOM     22  C8  <0> A   1      -3.805   5.733  46.804  0.00  0.00    +0.292 C 
BRANCH  22  23
ATOM     23  C9  <0> A   1      -2.397   5.153  46.655  0.00  0.00    +0.052 C 
BRANCH  23  24
ATOM     24  C10 <0> A   1      -2.460   3.863  45.835  0.00  0.00    +0.203 C 
ATOM     25  C11 <0> A   1      -1.100   3.603  45.183  0.00  0.00    +0.045 C 
ATOM     26  C12 <0> A   1      -1.179   2.334  44.329  0.00  0.00    +0.187 C 
ATOM     27  C13 <0> A   1      -2.255   2.527  43.253  0.00  0.00    +0.025 C 
ATOM     28  C14 <0> A   1      -3.531   2.977  43.933  0.00  0.00    +0.497 C 
ATOM     29  O1  <0> A   1      -4.586   2.438  43.693  0.00  0.00    -0.449 OA
ATOM     30  O2  <0> A   1      -3.457   3.994  44.814  0.00  0.00    -0.370 OA
BRANCH  26  31
ATOM     31  O3  <0> A   1      -1.521   1.221  45.157  0.00  0.00    -0.564 OA
ATOM     32  H19 <0> A   1      -2.371   0.815  44.939  0.00  0.00    +0.388 HD
ENDBRANCH  26  31
ENDBRANCH  23  24
ENDBRANCH  22  23
ENDBRANCH   5  22
TORSDOF 7
