REMARK VINA RESULT:      -7.8     22.945     26.380
REMARK  Name = CHEMBL298174
REMARK  6 active torsions:
REMARK  status: ('A' for Active; 'I' for Inactive)
REMARK    1  A    between atoms: C4_4  and  C7_7
REMARK    2  A    between atoms: C7_7  and  C8_8
REMARK    3  A    between atoms: C8_8  and  C9_9
REMARK    4  A    between atoms: C14_14  and  C15_15
REMARK    5  A    between atoms: C16_16  and  C17_17
REMARK    6  A    between atoms: C19_19  and  O3_25
REMARK                            x       y       z     vdW  Elec       q    Type
REMARK                         _______ _______ _______ _____ _____    ______ ____
ROOT
ATOM      1  C9  <0> A   1     -24.178  -3.324  51.230  0.00  0.00    -0.045 A 
ATOM      2  C10 <0> A   1     -25.292  -2.789  50.617  0.00  0.00    +0.041 A 
ATOM      3  C11 <0> A   1     -25.343  -1.436  50.325  0.00  0.00    -0.021 A 
ATOM      4  C12 <0> A   1     -24.277  -0.613  50.646  0.00  0.00    +0.041 A 
ATOM      5  C13 <0> A   1     -23.157  -1.136  51.259  0.00  0.00    -0.018 A 
ATOM      6  C14 <0> A   1     -23.103  -2.499  51.561  0.00  0.00    -0.040 A 
ATOM      7 Cl1  <0> A   1     -21.820  -0.103  51.659  0.00  0.00    -0.048 Cl
ATOM      8 Cl2  <0> A   1     -26.749  -0.771  49.555  0.00  0.00    -0.054 Cl
ENDROOT
BRANCH   6   9
ATOM      9  C15 <0> A   1     -21.910  -3.065  52.223  0.00  0.00    +0.039 C 
ATOM     10  C16 <0> A   1     -21.757  -2.939  53.535  0.00  0.00    -0.000 C 
BRANCH  10  11
ATOM     11  C17 <0> A   1     -20.540  -3.517  54.211  0.00  0.00    +0.243 C 
ATOM     12  C18 <0> A   1     -19.710  -2.386  54.822  0.00  0.00    +0.051 C 
ATOM     13  C19 <0> A   1     -18.453  -2.973  55.473  0.00  0.00    +0.186 C 
ATOM     14  C20 <0> A   1     -17.638  -3.711  54.402  0.00  0.00    +0.023 C 
ATOM     15  C21 <0> A   1     -18.558  -4.680  53.690  0.00  0.00    +0.497 C 
ATOM     16  O1  <0> A   1     -18.237  -5.832  53.523  0.00  0.00    -0.449 OA
ATOM     17  O2  <0> A   1     -19.746  -4.218  53.247  0.00  0.00    -0.369 OA
BRANCH  13  18
ATOM     18  O3  <0> A   1     -18.830  -3.887  56.504  0.00  0.00    -0.564 OA
ATOM     19  H20 <0> A   1     -18.374  -3.742  57.345  0.00  0.00    +0.387 HD
ENDBRANCH  13  18
ENDBRANCH  10  11
ENDBRANCH   6   9
BRANCH   1  20
ATOM     20  C8  <0> A   1     -24.125  -4.797  51.546  0.00  0.00    +0.091 C 
BRANCH  20  21
ATOM     21  C7  <0> A   1     -24.829  -5.582  50.437  0.00  0.00    +0.076 C 
BRANCH  21  25
ATOM     22  C1  <0> A   1     -23.608  -9.672  50.590  0.00  0.00    -0.003 A 
ATOM     23  C2  <0> A   1     -23.688  -8.931  51.754  0.00  0.00    +0.002 A 
ATOM     24  C3  <0> A   1     -24.083  -7.607  51.704  0.00  0.00    +0.007 A 
ATOM     25  C4  <0> A   1     -24.397  -7.025  50.491  0.00  0.00    -0.083 A 
ATOM     26  C5  <0> A   1     -24.316  -7.766  49.326  0.00  0.00    +0.005 A 
ATOM     27  C6  <0> A   1     -23.923  -9.090  49.377  0.00  0.00    +0.003 A 
ENDBRANCH  21  25
ENDBRANCH  20  21
ENDBRANCH   1  20
TORSDOF 6
