REMARK VINA RESULT:      -7.8      1.155      1.510
REMARK  Name = CHEMBL389442
REMARK  15 active torsions:
REMARK  status: ('A' for Active; 'I' for Inactive)
REMARK    1  A    between atoms: C1_1  and  C2_2
REMARK    2  A    between atoms: C2_2  and  C3_3
REMARK    3  A    between atoms: C2_2  and  N1_4
REMARK    4  A    between atoms: C4_5  and  C28_33
REMARK    5  A    between atoms: C5_6  and  C22_26
REMARK    6  A    between atoms: N2_11  and  C15_18
REMARK    7  A    between atoms: C15_18  and  C16_19
REMARK    8  A    between atoms: C28_33  and  C29_34
REMARK    9  A    between atoms: C29_34  and  C30_35
REMARK   10  A    between atoms: C30_35  and  C31_37
REMARK   11  A    between atoms: C30_35  and  O5_45
REMARK   12  A    between atoms: C31_37  and  C32_38
REMARK   13  A    between atoms: C32_38  and  C33_40
REMARK   14  A    between atoms: C32_38  and  O4_44
REMARK   15  A    between atoms: C33_40  and  C34_41
REMARK                            x       y       z     vdW  Elec       q    Type
REMARK                         _______ _______ _______ _____ _____    ______ ____
ROOT
ATOM      1  N1  <0> A   1     -15.374   6.685  45.771  0.00  0.00    -0.391 N 
ATOM      2  C4  <0> A   1     -15.973   6.867  46.974  0.00  0.00    +0.107 C 
ATOM      3  C5  <0> A   1     -15.510   8.016  47.543  0.00  0.00    -0.131 C 
ATOM      4  C6  <0> A   1     -14.547   8.584  46.606  0.00  0.00    -0.046 C 
ATOM      5  C7  <0> A   1     -14.495   7.711  45.519  0.00  0.00    -0.043 C 
ATOM      6  C8  <0> A   1     -13.630   8.004  44.439  0.00  0.00    +0.575 C 
ATOM      7  O1  <0> A   1     -13.588   7.243  43.488  0.00  0.00    -0.515 OA
ATOM      8  N2  <0> A   1     -12.855   9.101  44.437  0.00  0.00    -0.516 N 
ATOM      9  C9  <0> A   1     -12.858  10.001  45.487  0.00  0.00    +0.167 A 
ATOM     10  C10 <0> A   1     -13.699   9.783  46.593  0.00  0.00    -0.054 A 
ATOM     11  C11 <0> A   1     -13.703  10.689  47.652  0.00  0.00    +0.065 A 
ATOM     12  C12 <0> A   1     -12.893  11.803  47.603  0.00  0.00    -0.017 A 
ATOM     13  C13 <0> A   1     -12.076  12.027  46.505  0.00  0.00    +0.045 A 
ATOM     14  C14 <0> A   1     -12.046  11.128  45.459  0.00  0.00    -0.031 A 
ENDROOT
BRANCH   3  15
ATOM     15  C22 <0> A   1     -15.908   8.580  48.856  0.00  0.00    -0.011 A 
ATOM     16  C23 <0> A   1     -15.285   8.142  50.022  0.00  0.00    +0.054 A 
ATOM     17  C24 <0> A   1     -15.659   8.669  51.241  0.00  0.00    -0.012 A 
ATOM     18  C25 <0> A   1     -16.653   9.631  51.307  0.00  0.00    +0.097 A 
ATOM     19  C26 <0> A   1     -17.276  10.070  50.150  0.00  0.00    -0.015 A 
ATOM     20  C27 <0> A   1     -16.905   9.552  48.925  0.00  0.00    +0.052 A 
ATOM     21  F2  <0> A   1     -17.017  10.144  52.503  0.00  0.00    -0.140 F 
ENDBRANCH   3  15
BRANCH   1  23
ATOM     22  C1  <0> A   1     -15.535   4.247  45.663  0.00  0.00    +0.045 C 
ATOM     23  C2  <0> A   1     -15.625   5.555  44.873  0.00  0.00    +0.228 C 
ATOM     24  C3  <0> A   1     -17.022   5.687  44.264  0.00  0.00    +0.046 C 
ENDBRANCH   1  23
BRANCH   8  25
ATOM     25  C15 <0> A   1     -11.979   9.351  43.289  0.00  0.00    +0.359 C 
BRANCH  25  26
ATOM     26  C16 <0> A   1     -12.794   9.893  42.143  0.00  0.00    -0.151 A 
ATOM     27  C17 <0> A   1     -13.514  11.062  42.299  0.00  0.00    +0.058 A 
ATOM     28  C18 <0> A   1     -14.262  11.559  41.249  0.00  0.00    -0.003 A 
ATOM     29  C19 <0> A   1     -14.290  10.887  40.039  0.00  0.00    +0.051 A 
ATOM     30  C20 <0> A   1     -13.570   9.719  39.881  0.00  0.00    -0.025 A 
ATOM     31  C21 <0> A   1     -12.816   9.223  40.932  0.00  0.00    +0.123 A 
ATOM     32  F1  <0> A   1     -12.108   8.083  40.777  0.00  0.00    -0.116 F 
ENDBRANCH  25  26
ENDBRANCH   8  25
BRANCH   2  33
ATOM     33  C28 <0> A   1     -16.993   5.941  47.588  0.00  0.00    +0.121 C 
BRANCH  33  34
ATOM     34  C29 <0> A   1     -18.372   6.603  47.545  0.00  0.00    -0.006 C 
BRANCH  34  35
ATOM     35  C30 <0> A   1     -19.250   6.023  48.656  0.00  0.00    +0.214 C 
BRANCH  35  36
ATOM     36  O5  <0> A   1     -20.512   5.632  48.111  0.00  0.00    -0.542 OA
ATOM     37  H33 <0> A   1     -20.670   5.957  47.214  0.00  0.00    +0.364 HD
ENDBRANCH  35  36
BRANCH  35  38
ATOM     38  C31 <0> A   1     -18.559   4.802  49.267  0.00  0.00    -0.051 C 
BRANCH  38  39
ATOM     39  C32 <0> A   1     -19.201   4.475  50.617  0.00  0.00    +0.231 C 
BRANCH  39  40
ATOM     40  O4  <0> A   1     -20.236   5.421  50.893  0.00  0.00    -0.528 OA
ATOM     41  H32 <0> A   1     -19.945   6.183  51.413  0.00  0.00    +0.349 HD
ENDBRANCH  39  40
BRANCH  39  42
ATOM     42  C33 <0> A   1     -19.796   3.066  50.571  0.00  0.00    -0.103 C 
BRANCH  42  43
ATOM     43  C34 <0> A   1     -21.299   3.158  50.516  0.00  0.00    +0.491 C 
ATOM     44  O2  <0> A   1     -21.962   2.925  51.511  0.00  0.00    -0.681 OA
ATOM     45  O3  <0> A   1     -21.853   3.467  49.474  0.00  0.00    -0.713 OA
ENDBRANCH  42  43
ENDBRANCH  39  42
ENDBRANCH  38  39
ENDBRANCH  35  38
ENDBRANCH  34  35
ENDBRANCH  33  34
ENDBRANCH   2  33
TORSDOF 13
