REMARK VINA RESULT:      -8.1     15.226     18.823
REMARK  Name = CHEMBL228954
REMARK  13 active torsions:
REMARK  status: ('A' for Active; 'I' for Inactive)
REMARK    1  A    between atoms: C1_1  and  C2_2
REMARK    2  A    between atoms: C2_2  and  C3_3
REMARK    3  A    between atoms: C2_2  and  N1_4
REMARK    4  A    between atoms: C4_5  and  C21_26
REMARK    5  A    between atoms: C5_6  and  C15_19
REMARK    6  A    between atoms: C21_26  and  C22_27
REMARK    7  A    between atoms: C22_27  and  C23_28
REMARK    8  A    between atoms: C23_28  and  C24_30
REMARK    9  A    between atoms: C23_28  and  O5_38
REMARK   10  A    between atoms: C24_30  and  C25_31
REMARK   11  A    between atoms: C25_31  and  C26_33
REMARK   12  A    between atoms: C25_31  and  O4_37
REMARK   13  A    between atoms: C26_33  and  C27_34
REMARK                            x       y       z     vdW  Elec       q    Type
REMARK                         _______ _______ _______ _____ _____    ______ ____
ROOT
ATOM      1  N1  <0> A   1     -24.678  -0.076  52.652  0.00  0.00    -0.392 N 
ATOM      2  C4  <0> A   1     -25.248  -1.266  52.341  0.00  0.00    +0.109 C 
ATOM      3  C5  <0> A   1     -26.577  -1.081  52.092  0.00  0.00    -0.131 C 
ATOM      4  C6  <0> A   1     -26.839   0.342  52.268  0.00  0.00    -0.042 C 
ATOM      5  C7  <0> A   1     -25.622   0.925  52.624  0.00  0.00    -0.048 C 
ATOM      6  C8  <0> A   1     -25.566   2.317  52.867  0.00  0.00    +0.580 C 
ATOM      7  O1  <0> A   1     -24.502   2.826  53.174  0.00  0.00    -0.535 OA
ATOM      8  N2  <0> A   1     -26.661   3.091  52.768  0.00  0.00    -0.629 N 
ATOM      9  H1  <0> A   1     -26.582   4.042  52.943  0.00  0.00    +0.418 HD
ATOM     10  C9  <0> A   1     -27.895   2.571  52.423  0.00  0.00    +0.160 A 
ATOM     11  C10 <0> A   1     -28.028   1.198  52.158  0.00  0.00    -0.055 A 
ATOM     12  C11 <0> A   1     -29.272   0.673  51.812  0.00  0.00    +0.065 A 
ATOM     13  C12 <0> A   1     -30.364   1.509  51.718  0.00  0.00    -0.015 A 
ATOM     14  C13 <0> A   1     -30.231   2.866  51.965  0.00  0.00    +0.046 A 
ATOM     15  C14 <0> A   1     -29.010   3.396  52.326  0.00  0.00    -0.025 A 
ENDROOT
BRANCH   3  16
ATOM     16  C15 <0> A   1     -27.562  -2.125  51.717  0.00  0.00    -0.013 A 
ATOM     17  C16 <0> A   1     -28.230  -2.843  52.707  0.00  0.00    +0.054 A 
ATOM     18  C17 <0> A   1     -29.146  -3.814  52.353  0.00  0.00    -0.012 A 
ATOM     19  C18 <0> A   1     -29.400  -4.074  51.016  0.00  0.00    +0.098 A 
ATOM     20  C19 <0> A   1     -28.738  -3.363  50.029  0.00  0.00    -0.014 A 
ATOM     21  C20 <0> A   1     -27.826  -2.387  50.374  0.00  0.00    +0.053 A 
ATOM     22  F1  <0> A   1     -30.296  -5.025  50.675  0.00  0.00    -0.140 F 
ENDBRANCH   3  16
BRANCH   1  24
ATOM     23  C1  <0> A   1     -22.832  -0.934  54.007  0.00  0.00    +0.045 C 
ATOM     24  C2  <0> A   1     -23.263   0.116  52.980  0.00  0.00    +0.229 C 
ATOM     25  C3  <0> A   1     -22.421  -0.034  51.712  0.00  0.00    +0.046 C 
ENDBRANCH   1  24
BRANCH   2  26
ATOM     26  C21 <0> A   1     -24.526  -2.587  52.277  0.00  0.00    +0.121 C 
BRANCH  26  27
ATOM     27  C22 <0> A   1     -24.320  -2.985  50.814  0.00  0.00    -0.005 C 
BRANCH  27  28
ATOM     28  C23 <0> A   1     -24.090  -4.495  50.724  0.00  0.00    +0.213 C 
BRANCH  28  29
ATOM     29  O5  <0> A   1     -23.230  -4.911  51.786  0.00  0.00    -0.542 OA
ATOM     30  H28 <0> A   1     -23.577  -4.724  52.670  0.00  0.00    +0.364 HD
ENDBRANCH  28  29
BRANCH  28  31
ATOM     31  C24 <0> A   1     -25.432  -5.222  50.840  0.00  0.00    -0.051 C 
BRANCH  31  32
ATOM     32  C25 <0> A   1     -25.331  -6.589  50.160  0.00  0.00    +0.231 C 
BRANCH  32  33
ATOM     33  O4  <0> A   1     -24.069  -6.702  49.501  0.00  0.00    -0.528 OA
ATOM     34  H27 <0> A   1     -23.489  -5.938  49.629  0.00  0.00    +0.349 HD
ENDBRANCH  32  33
BRANCH  32  35
ATOM     35  C26 <0> A   1     -25.458  -7.692  51.213  0.00  0.00    -0.103 C 
BRANCH  35  36
ATOM     36  C27 <0> A   1     -24.097  -8.278  51.492  0.00  0.00    +0.490 C 
ATOM     37  O2  <0> A   1     -23.364  -7.753  52.312  0.00  0.00    -0.681 OA
ATOM     38  O3  <0> A   1     -23.732  -9.278  50.897  0.00  0.00    -0.713 OA
ENDBRANCH  35  36
ENDBRANCH  32  35
ENDBRANCH  31  32
ENDBRANCH  28  31
ENDBRANCH  27  28
ENDBRANCH  26  27
ENDBRANCH   2  26
TORSDOF 11
