REMARK VINA RESULT:      -7.7      4.487      7.447
REMARK  Name = CHEMBL293461
REMARK  12 active torsions:
REMARK  status: ('A' for Active; 'I' for Inactive)
REMARK    1  A    between atoms: C1_1  and  C2_2
REMARK    2  A    between atoms: C2_2  and  C3_3
REMARK    3  A    between atoms: C2_2  and  C4_4
REMARK    4  A    between atoms: C5_5  and  C17_22
REMARK    5  A    between atoms: C6_6  and  C11_15
REMARK    6  A    between atoms: C18_23  and  C19_24
REMARK    7  A    between atoms: C19_24  and  C20_25
REMARK    8  A    between atoms: C19_24  and  O4_33
REMARK    9  A    between atoms: C20_25  and  C21_26
REMARK   10  A    between atoms: C21_26  and  C22_28
REMARK   11  A    between atoms: C21_26  and  O3_32
REMARK   12  A    between atoms: C22_28  and  C23_29
REMARK                            x       y       z     vdW  Elec       q    Type
REMARK                         _______ _______ _______ _____ _____    ______ ____
ROOT
ATOM      1  C4  <0> A   1     -14.503   6.132  43.452  0.00  0.00    +0.121 C 
ATOM      2  C5  <0> A   1     -14.158   7.036  44.477  0.00  0.00    -0.163 C 
ATOM      3  C6  <0> A   1     -13.681   8.189  43.865  0.00  0.00    +0.146 C 
ATOM      4  N1  <0> A   1     -13.741   7.978  42.517  0.00  0.00    -0.321 N 
ATOM      5  N2  <0> A   1     -14.250   6.692  42.301  0.00  0.00    -0.273 NA
ATOM      6  C7  <0> A   1     -13.357   8.885  41.526  0.00  0.00    +0.324 A 
ATOM      7  C8  <0> A   1     -12.975   8.426  40.270  0.00  0.00    +0.246 A 
ATOM      8  N3  <0> A   1     -12.613   9.287  39.337  0.00  0.00    -0.415 NA
ATOM      9  C9  <0> A   1     -12.612  10.583  39.596  0.00  0.00    +0.212 A 
ATOM     10  C10 <0> A   1     -12.990  11.043  40.844  0.00  0.00    +0.265 A 
ATOM     11  N4  <0> A   1     -13.361  10.187  41.781  0.00  0.00    -0.447 NA
ENDROOT
BRANCH   3  12
ATOM     12  C11 <0> A   1     -13.202   9.411  44.543  0.00  0.00    -0.035 A 
ATOM     13  C12 <0> A   1     -14.098  10.434  44.859  0.00  0.00    +0.091 A 
ATOM     14  C13 <0> A   1     -13.644  11.572  45.492  0.00  0.00    -0.009 A 
ATOM     15  C14 <0> A   1     -12.303  11.701  45.817  0.00  0.00    +0.114 A 
ATOM     16  C15 <0> A   1     -11.409  10.688  45.506  0.00  0.00    -0.019 A 
ATOM     17  C16 <0> A   1     -11.853   9.542  44.878  0.00  0.00    +0.069 A 
ATOM     18  F1  <0> A   1     -11.865  12.817  46.438  0.00  0.00    -0.137 F 
ENDBRANCH   3  12
BRANCH   1  20
ATOM     19  C1  <0> A   1     -14.246   4.014  44.717  0.00  0.00    +0.039 C 
ATOM     20  C2  <0> A   1     -15.065   4.748  43.653  0.00  0.00    +0.081 C 
ATOM     21  C3  <0> A   1     -16.522   4.851  44.110  0.00  0.00    +0.039 C 
ENDBRANCH   1  20
BRANCH   2  22
ATOM     22  C17 <0> A   1     -14.280   6.801  45.930  0.00  0.00    +0.039 C 
ATOM     23  C18 <0> A   1     -15.397   7.132  46.564  0.00  0.00    -0.051 C 
BRANCH  23  24
ATOM     24  C19 <0> A   1     -15.521   6.893  48.047  0.00  0.00    +0.251 C 
BRANCH  24  25
ATOM     25  O4  <0> A   1     -15.859   8.118  48.700  0.00  0.00    -0.538 OA
ATOM     26  H24 <0> A   1     -16.186   8.805  48.102  0.00  0.00    +0.366 HD
ENDBRANCH  24  25
BRANCH  24  27
ATOM     27  C20 <0> A   1     -16.616   5.857  48.307  0.00  0.00    -0.042 C 
BRANCH  27  28
ATOM     28  C21 <0> A   1     -17.865   6.559  48.842  0.00  0.00    +0.230 C 
BRANCH  28  29
ATOM     29  O3  <0> A   1     -18.488   7.293  47.786  0.00  0.00    -0.528 OA
ATOM     30  H23 <0> A   1     -17.953   8.024  47.447  0.00  0.00    +0.350 HD
ENDBRANCH  28  29
BRANCH  28  31
ATOM     31  C22 <0> A   1     -18.844   5.516  49.384  0.00  0.00    -0.102 C 
BRANCH  31  32
ATOM     32  C23 <0> A   1     -20.256   5.937  49.065  0.00  0.00    +0.490 C 
ATOM     33  O1  <0> A   1     -20.796   6.807  49.728  0.00  0.00    -0.681 OA
ATOM     34  O2  <0> A   1     -20.857   5.408  48.146  0.00  0.00    -0.714 OA
ENDBRANCH  31  32
ENDBRANCH  28  31
ENDBRANCH  27  28
ENDBRANCH  24  27
ENDBRANCH  23  24
ENDBRANCH   2  22
TORSDOF 10
