REMARK VINA RESULT:      -7.6      2.974      5.364
REMARK  Name = CHEMBL317576
REMARK  15 active torsions:
REMARK  status: ('A' for Active; 'I' for Inactive)
REMARK    1  A    between atoms: C6_6  and  C7_7
REMARK    2  A    between atoms: C7_7  and  C8_8
REMARK    3  A    between atoms: C7_7  and  C16_18
REMARK    4  A    between atoms: C8_8  and  C9_9
REMARK    5  A    between atoms: C9_9  and  O1_10
REMARK    6  A    between atoms: O1_10  and  C10_11
REMARK    7  A    between atoms: C21_23  and  O2_24
REMARK    8  A    between atoms: O2_24  and  C22_25
REMARK    9  A    between atoms: C22_25  and  C23_26
REMARK   10  A    between atoms: C23_26  and  C24_27
REMARK   11  A    between atoms: C23_26  and  O6_35
REMARK   12  A    between atoms: C24_27  and  C25_28
REMARK   13  A    between atoms: C25_28  and  C26_30
REMARK   14  A    between atoms: C25_28  and  O5_34
REMARK   15  A    between atoms: C26_30  and  C27_31
REMARK                            x       y       z     vdW  Elec       q    Type
REMARK                         _______ _______ _______ _____ _____    ______ ____
ROOT
ATOM      1  C16 <0> A   1     -14.765   7.844  46.159  0.00  0.00    -0.069 A 
ATOM      2  C17 <0> A   1     -15.918   7.753  46.915  0.00  0.00    +0.055 A 
ATOM      3  C18 <0> A   1     -16.860   6.782  46.629  0.00  0.00    -0.029 A 
ATOM      4  C19 <0> A   1     -16.650   5.898  45.586  0.00  0.00    +0.057 A 
ATOM      5  C20 <0> A   1     -15.498   5.984  44.827  0.00  0.00    -0.045 A 
ATOM      6  C21 <0> A   1     -14.554   6.963  45.109  0.00  0.00    +0.123 A 
ATOM      7 Cl1  <0> A   1     -15.234   4.875  43.518  0.00  0.00    -0.036 Cl
ATOM      8 Cl2  <0> A   1     -18.308   6.671  47.581  0.00  0.00    -0.054 Cl
ENDROOT
BRANCH   1   9
ATOM      9  C7  <0> A   1     -13.740   8.902  46.472  0.00  0.00    +0.109 C 
BRANCH   9  15
ATOM     10  C1  <0> A   1     -14.814  10.387  48.177  0.00  0.00    +0.047 A 
ATOM     11  C2  <0> A   1     -14.979  10.818  49.479  0.00  0.00    -0.012 A 
ATOM     12  C3  <0> A   1     -14.248  10.234  50.499  0.00  0.00    +0.100 A 
ATOM     13  C4  <0> A   1     -13.351   9.218  50.214  0.00  0.00    -0.007 A 
ATOM     14  C5  <0> A   1     -13.188   8.788  48.910  0.00  0.00    +0.049 A 
ATOM     15  C6  <0> A   1     -13.918   9.372  47.892  0.00  0.00    -0.091 A 
ATOM     16  F2  <0> A   1     -14.408  10.655  51.773  0.00  0.00    -0.139 F 
ENDBRANCH   9  15
BRANCH   9  17
ATOM     17  C8  <0> A   1     -13.919  10.085  45.517  0.00  0.00    +0.059 C 
BRANCH  17  18
ATOM     18  C9  <0> A   1     -12.569  10.449  44.896  0.00  0.00    +0.196 C 
BRANCH  18  19
ATOM     19  O1  <0> A   1     -12.210  11.777  45.283  0.00  0.00    -0.310 OA
BRANCH  19  20
ATOM     20  C10 <0> A   1     -11.928  11.982  46.598  0.00  0.00    +0.125 A 
ATOM     21  C11 <0> A   1     -10.977  11.198  47.234  0.00  0.00    -0.039 A 
ATOM     22  C12 <0> A   1     -10.692  11.408  48.569  0.00  0.00    +0.029 A 
ATOM     23  C13 <0> A   1     -11.356  12.398  49.272  0.00  0.00    +0.057 A 
ATOM     24  C14 <0> A   1     -12.306  13.181  48.638  0.00  0.00    +0.028 A 
ATOM     25  C15 <0> A   1     -12.588  12.978  47.301  0.00  0.00    +0.015 A 
ATOM     26  F1  <0> A   1     -11.077  12.602  50.578  0.00  0.00    -0.141 F 
ENDBRANCH  19  20
ENDBRANCH  18  19
ENDBRANCH  17  18
ENDBRANCH   9  17
ENDBRANCH   1   9
BRANCH   6  27
ATOM     27  O2  <0> A   1     -13.423   7.054  44.360  0.00  0.00    -0.309 OA
BRANCH  27  28
ATOM     28  C22 <0> A   1     -13.570   7.519  43.017  0.00  0.00    +0.154 C 
BRANCH  28  29
ATOM     29  C23 <0> A   1     -12.210   7.490  42.316  0.00  0.00    +0.229 C 
BRANCH  29  30
ATOM     30  O6  <0> A   1     -11.706   6.153  42.308  0.00  0.00    -0.528 OA
ATOM     31  H25 <0> A   1     -11.252   5.909  41.490  0.00  0.00    +0.359 HD
ENDBRANCH  29  30
BRANCH  29  32
ATOM     32  C24 <0> A   1     -12.368   7.984  40.877  0.00  0.00    -0.041 C 
BRANCH  32  33
ATOM     33  C25 <0> A   1     -12.830   9.443  40.886  0.00  0.00    +0.235 C 
BRANCH  33  34
ATOM     34  O5  <0> A   1     -11.788  10.270  41.408  0.00  0.00    -0.526 OA
ATOM     35  H24 <0> A   1     -11.465   9.995  42.278  0.00  0.00    +0.350 HD
ENDBRANCH  33  34
BRANCH  33  36
ATOM     36  C26 <0> A   1     -13.161   9.882  39.458  0.00  0.00    -0.101 C 
BRANCH  36  37
ATOM     37  C27 <0> A   1     -13.567  11.333  39.461  0.00  0.00    +0.490 C 
ATOM     38  O3  <0> A   1     -13.175  12.078  38.579  0.00  0.00    -0.680 OA
ATOM     39  O4  <0> A   1     -14.288  11.763  40.346  0.00  0.00    -0.712 OA
ENDBRANCH  36  37
ENDBRANCH  33  36
ENDBRANCH  32  33
ENDBRANCH  29  32
ENDBRANCH  28  29
ENDBRANCH  27  28
ENDBRANCH   6  27
TORSDOF 15
