MODEL 1
REMARK VINA RESULT:      -7.5      0.000      0.000
REMARK  Name = CHEMBL76073
REMARK  13 active torsions:
REMARK  status: ('A' for Active; 'I' for Inactive)
REMARK    1  A    between atoms: C1_1  and  C2_2
REMARK    2  A    between atoms: C2_2  and  C3_3
REMARK    3  A    between atoms: C3_3  and  C4_4
REMARK    4  A    between atoms: C3_3  and  C5_5
REMARK    5  A    between atoms: C3_3  and  C6_6
REMARK    6  A    between atoms: C6_6  and  O2_8
REMARK    7  A    between atoms: O2_8  and  C7_9
REMARK    8  A    between atoms: C9_12  and  C25_38
REMARK    9  A    between atoms: C13_19  and  C18_26
REMARK   10  A    between atoms: C14_21  and  C17_25
REMARK   11  A    between atoms: C19_27  and  C20_28
REMARK   12  A    between atoms: C22_31  and  O5_37
REMARK   13  A    between atoms: C26_39  and  C27_40
REMARK                            x       y       z     vdW  Elec       q    Type
REMARK                         _______ _______ _______ _____ _____    ______ ____
ROOT
ATOM      1  C7  <0> A   1     -26.692  -1.019  50.601  0.00  0.00    +0.184 C 
ATOM      2  C8  <0> A   1     -26.919   0.221  49.729  0.00  0.00    +0.023 C 
ATOM      3  C9  <0> A   1     -27.379   1.393  50.597  0.00  0.00    +0.018 C 
ATOM      4  C10 <0> A   1     -26.330   1.695  51.672  0.00  0.00    +0.035 C 
ATOM      5  C11 <0> A   1     -26.135   0.449  52.532  0.00  0.00    +0.039 C 
ATOM      6  C12 <0> A   1     -25.629  -0.698  51.650  0.00  0.00    +0.019 C 
ATOM      7  C13 <0> A   1     -25.348  -1.908  52.542  0.00  0.00    +0.031 C 
ATOM      8  C14 <0> A   1     -24.156  -1.570  53.441  0.00  0.00    +0.028 C 
ATOM      9  C15 <0> A   1     -24.315  -0.211  54.053  0.00  0.00    -0.049 C 
ATOM     10  C16 <0> A   1     -25.161   0.682  53.643  0.00  0.00    -0.040 C 
ATOM     11  C17 <0> A   1     -22.873  -1.599  52.608  0.00  0.00    +0.028 C 
ENDROOT
BRANCH   3  12
ATOM     12  C25 <0> A   1     -28.685   1.042  51.260  0.00  0.00    -0.015 C 
ATOM     13  C26 <0> A   1     -29.650   1.925  51.316  0.00  0.00    -0.075 C 
ATOM     14  C27 <0> A   1     -30.904   1.625  52.097  0.00  0.00    +0.056 C 
ENDBRANCH   3  12
BRANCH   7  15
ATOM     15  C18 <0> A   1     -25.021  -3.105  51.688  0.00  0.00    +0.006 C 
ATOM     16  C19 <0> A   1     -25.499  -4.283  52.000  0.00  0.00    -0.046 C 
BRANCH  16  17
ATOM     17  C20 <0> A   1     -25.172  -5.481  51.146  0.00  0.00    +0.240 C 
ATOM     18  C21 <0> A   1     -26.441  -5.971  50.444  0.00  0.00    +0.047 C 
ATOM     19  C22 <0> A   1     -26.113  -7.213  49.610  0.00  0.00    +0.184 C 
ATOM     20  C23 <0> A   1     -25.564  -8.304  50.539  0.00  0.00    +0.022 C 
ATOM     21  C24 <0> A   1     -24.437  -7.710  51.355  0.00  0.00    +0.497 C 
ATOM     22  O3  <0> A   1     -23.374  -8.276  51.450  0.00  0.00    -0.451 OA
ATOM     23  O4  <0> A   1     -24.652  -6.529  51.971  0.00  0.00    -0.368 OA
BRANCH  19  24
ATOM     24  O5  <0> A   1     -25.133  -6.883  48.625  0.00  0.00    -0.562 OA
ATOM     25  H35 <0> A   1     -24.554  -6.150  48.876  0.00  0.00    +0.386 HD
ENDBRANCH  19  24
ENDBRANCH  16  17
ENDBRANCH   7  15
BRANCH   1  26
ATOM     26  O2  <0> A   1     -27.913  -1.380  51.250  0.00  0.00    -0.328 OA
BRANCH  26  27
ATOM     27  C6  <0> A   1     -28.504  -2.516  50.847  0.00  0.00    +0.464 C 
ATOM     28  O1  <0> A   1     -28.206  -3.008  49.785  0.00  0.00    -0.498 OA
BRANCH  27  29
ATOM     29  C3  <0> A   1     -29.538  -3.178  51.722  0.00  0.00    -0.051 C 
ATOM     30  C4  <0> A   1     -30.257  -4.268  50.925  0.00  0.00    +0.060 C 
ATOM     31  C5  <0> A   1     -30.554  -2.134  52.190  0.00  0.00    +0.058 C 
BRANCH  29  33
ATOM     32  C1  <0> A   1     -29.098  -5.314  52.942  0.00  0.00    +0.022 C 
ATOM     33  C2  <0> A   1     -28.852  -3.804  52.938  0.00  0.00    +0.036 C 
ENDBRANCH  29  33
ENDBRANCH  27  29
ENDBRANCH  26  27
ENDBRANCH   1  26
TORSDOF 8
ENDMDL
MODEL 2
REMARK VINA RESULT:      -7.3      1.047      1.323
REMARK  Name = CHEMBL76073
REMARK  13 active torsions:
REMARK  status: ('A' for Active; 'I' for Inactive)
REMARK    1  A    between atoms: C1_1  and  C2_2
REMARK    2  A    between atoms: C2_2  and  C3_3
REMARK    3  A    between atoms: C3_3  and  C4_4
REMARK    4  A    between atoms: C3_3  and  C5_5
REMARK    5  A    between atoms: C3_3  and  C6_6
REMARK    6  A    between atoms: C6_6  and  O2_8
REMARK    7  A    between atoms: O2_8  and  C7_9
REMARK    8  A    between atoms: C9_12  and  C25_38
REMARK    9  A    between atoms: C13_19  and  C18_26
REMARK   10  A    between atoms: C14_21  and  C17_25
REMARK   11  A    between atoms: C19_27  and  C20_28
REMARK   12  A    between atoms: C22_31  and  O5_37
REMARK   13  A    between atoms: C26_39  and  C27_40
REMARK                            x       y       z     vdW  Elec       q    Type
REMARK                         _______ _______ _______ _____ _____    ______ ____
ROOT
ATOM      1  C7  <0> A   1     -26.633  -1.552  50.262  0.00  0.00    +0.184 C 
ATOM      2  C8  <0> A   1     -26.773  -0.208  49.539  0.00  0.00    +0.023 C 
ATOM      3  C9  <0> A   1     -26.874   0.928  50.558  0.00  0.00    +0.018 C 
ATOM      4  C10 <0> A   1     -25.630   0.943  51.453  0.00  0.00    +0.035 C 
ATOM      5  C11 <0> A   1     -25.525  -0.400  52.170  0.00  0.00    +0.039 C 
ATOM      6  C12 <0> A   1     -25.377  -1.517  51.131  0.00  0.00    +0.019 C 
ATOM      7  C13 <0> A   1     -25.176  -2.842  51.867  0.00  0.00    +0.031 C 
ATOM      8  C14 <0> A   1     -23.814  -2.797  52.566  0.00  0.00    +0.028 C 
ATOM      9  C15 <0> A   1     -23.631  -1.500  53.296  0.00  0.00    -0.049 C 
ATOM     10  C16 <0> A   1     -24.360  -0.444  53.108  0.00  0.00    -0.040 C 
ATOM     11  C17 <0> A   1     -22.707  -2.946  51.522  0.00  0.00    +0.028 C 
ENDROOT
BRANCH   3  12
ATOM     12  C25 <0> A   1     -28.099   0.726  51.411  0.00  0.00    -0.015 C 
ATOM     13  C26 <0> A   1     -29.106   1.558  51.319  0.00  0.00    -0.075 C 
ATOM     14  C27 <0> A   1     -30.272   1.439  52.267  0.00  0.00    +0.056 C 
ENDBRANCH   3  12
BRANCH   7  15
ATOM     15  C18 <0> A   1     -25.207  -3.982  50.882  0.00  0.00    +0.006 C 
ATOM     16  C19 <0> A   1     -25.852  -5.083  51.174  0.00  0.00    -0.046 C 
BRANCH  16  17
ATOM     17  C20 <0> A   1     -25.882  -6.223  50.188  0.00  0.00    +0.240 C 
ATOM     18  C21 <0> A   1     -26.651  -7.400  50.793  0.00  0.00    +0.047 C 
ATOM     19  C22 <0> A   1     -26.644  -8.572  49.806  0.00  0.00    +0.184 C 
ATOM     20  C23 <0> A   1     -25.190  -8.975  49.524  0.00  0.00    +0.022 C 
ATOM     21  C24 <0> A   1     -24.424  -7.734  49.120  0.00  0.00    +0.497 C 
ATOM     22  O3  <0> A   1     -23.727  -7.728  48.133  0.00  0.00    -0.451 OA
ATOM     23  O4  <0> A   1     -24.543  -6.634  49.892  0.00  0.00    -0.368 OA
BRANCH  19  24
ATOM     24  O5  <0> A   1     -27.278  -8.176  48.589  0.00  0.00    -0.562 OA
ATOM     25  H35 <0> A   1     -28.241  -8.109  48.650  0.00  0.00    +0.386 HD
ENDBRANCH  19  24
ENDBRANCH  16  17
ENDBRANCH   7  15
BRANCH   1  26
ATOM     26  O2  <0> A   1     -27.779  -1.775  51.086  0.00  0.00    -0.328 OA
BRANCH  26  27
ATOM     27  C6  <0> A   1     -28.595  -2.781  50.734  0.00  0.00    +0.464 C 
ATOM     28  O1  <0> A   1     -28.538  -3.244  49.620  0.00  0.00    -0.498 OA
BRANCH  27  29
ATOM     29  C3  <0> A   1     -29.581  -3.334  51.731  0.00  0.00    -0.051 C 
ATOM     30  C4  <0> A   1     -30.392  -4.455  51.078  0.00  0.00    +0.060 C 
ATOM     31  C5  <0> A   1     -30.526  -2.220  52.186  0.00  0.00    +0.058 C 
BRANCH  29  33
ATOM     32  C1  <0> A   1     -29.042  -5.401  53.027  0.00  0.00    +0.022 C 
ATOM     33  C2  <0> A   1     -28.827  -3.889  52.941  0.00  0.00    +0.036 C 
ENDBRANCH  29  33
ENDBRANCH  27  29
ENDBRANCH  26  27
ENDBRANCH   1  26
TORSDOF 8
ENDMDL
MODEL 3
REMARK VINA RESULT:      -7.0      1.592      2.589
REMARK  Name = CHEMBL76073
REMARK  13 active torsions:
REMARK  status: ('A' for Active; 'I' for Inactive)
REMARK    1  A    between atoms: C1_1  and  C2_2
REMARK    2  A    between atoms: C2_2  and  C3_3
REMARK    3  A    between atoms: C3_3  and  C4_4
REMARK    4  A    between atoms: C3_3  and  C5_5
REMARK    5  A    between atoms: C3_3  and  C6_6
REMARK    6  A    between atoms: C6_6  and  O2_8
REMARK    7  A    between atoms: O2_8  and  C7_9
REMARK    8  A    between atoms: C9_12  and  C25_38
REMARK    9  A    between atoms: C13_19  and  C18_26
REMARK   10  A    between atoms: C14_21  and  C17_25
REMARK   11  A    between atoms: C19_27  and  C20_28
REMARK   12  A    between atoms: C22_31  and  O5_37
REMARK   13  A    between atoms: C26_39  and  C27_40
REMARK                            x       y       z     vdW  Elec       q    Type
REMARK                         _______ _______ _______ _____ _____    ______ ____
ROOT
ATOM      1  C7  <0> A   1     -24.300  -1.200  50.965  0.00  0.00    +0.184 C 
ATOM      2  C8  <0> A   1     -24.239   0.125  50.198  0.00  0.00    +0.023 C 
ATOM      3  C9  <0> A   1     -24.190   1.297  51.179  0.00  0.00    +0.018 C 
ATOM      4  C10 <0> A   1     -22.967   1.166  52.094  0.00  0.00    +0.035 C 
ATOM      5  C11 <0> A   1     -23.063  -0.154  52.855  0.00  0.00    +0.039 C 
ATOM      6  C12 <0> A   1     -23.062  -1.315  51.854  0.00  0.00    +0.019 C 
ATOM      7  C13 <0> A   1     -23.061  -2.629  52.635  0.00  0.00    +0.031 C 
ATOM      8  C14 <0> A   1     -21.715  -2.753  53.355  0.00  0.00    +0.028 C 
ATOM      9  C15 <0> A   1     -21.358  -1.472  54.047  0.00  0.00    -0.049 C 
ATOM     10  C16 <0> A   1     -21.927  -0.330  53.813  0.00  0.00    -0.040 C 
ATOM     11  C17 <0> A   1     -20.628  -3.094  52.335  0.00  0.00    +0.028 C 
ENDROOT
BRANCH   3  12
ATOM     12  C25 <0> A   1     -25.441   1.300  52.018  0.00  0.00    -0.015 C 
ATOM     13  C26 <0> A   1     -26.483   1.997  51.639  0.00  0.00    -0.075 C 
ATOM     14  C27 <0> A   1     -27.684   2.111  52.542  0.00  0.00    +0.056 C 
ENDBRANCH   3  12
BRANCH   7  15
ATOM     15  C18 <0> A   1     -23.241  -3.785  51.686  0.00  0.00    +0.006 C 
ATOM     16  C19 <0> A   1     -24.138  -4.705  51.937  0.00  0.00    -0.046 C 
BRANCH  16  17
ATOM     17  C20 <0> A   1     -24.318  -5.862  50.987  0.00  0.00    +0.240 C 
ATOM     18  C21 <0> A   1     -25.802  -6.012  50.640  0.00  0.00    +0.047 C 
ATOM     19  C22 <0> A   1     -25.986  -7.214  49.709  0.00  0.00    +0.184 C 
ATOM     20  C23 <0> A   1     -25.476  -8.475  50.419  0.00  0.00    +0.022 C 
ATOM     21  C24 <0> A   1     -24.074  -8.204  50.918  0.00  0.00    +0.497 C 
ATOM     22  O3  <0> A   1     -23.176  -8.984  50.704  0.00  0.00    -0.451 OA
ATOM     23  O4  <0> A   1     -23.853  -7.065  51.607  0.00  0.00    -0.368 OA
BRANCH  19  24
ATOM     24  O5  <0> A   1     -25.244  -7.006  48.506  0.00  0.00    -0.562 OA
ATOM     25  H35 <0> A   1     -24.380  -7.440  48.497  0.00  0.00    +0.386 HD
ENDBRANCH  19  24
ENDBRANCH  16  17
ENDBRANCH   7  15
BRANCH   1  26
ATOM     26  O2  <0> A   1     -25.476  -1.231  51.777  0.00  0.00    -0.328 OA
BRANCH  26  27
ATOM     27  C6  <0> A   1     -26.505  -1.969  51.330  0.00  0.00    +0.464 C 
ATOM     28  O1  <0> A   1     -26.426  -2.531  50.264  0.00  0.00    -0.498 OA
BRANCH  27  29
ATOM     29  C3  <0> A   1     -27.757  -2.096  52.160  0.00  0.00    -0.051 C 
ATOM     30  C4  <0> A   1     -27.559  -1.374  53.495  0.00  0.00    +0.060 C 
ATOM     31  C5  <0> A   1     -28.050  -3.575  52.418  0.00  0.00    +0.058 C 
BRANCH  29  33
ATOM     32  C1  <0> A   1     -29.944  -0.915  52.416  0.00  0.00    +0.022 C 
ATOM     33  C2  <0> A   1     -28.931  -1.466  51.410  0.00  0.00    +0.036 C 
ENDBRANCH  29  33
ENDBRANCH  27  29
ENDBRANCH  26  27
ENDBRANCH   1  26
TORSDOF 8
ENDMDL
MODEL 4
REMARK VINA RESULT:      -7.0     16.295     18.791
REMARK  Name = CHEMBL76073
REMARK  13 active torsions:
REMARK  status: ('A' for Active; 'I' for Inactive)
REMARK    1  A    between atoms: C1_1  and  C2_2
REMARK    2  A    between atoms: C2_2  and  C3_3
REMARK    3  A    between atoms: C3_3  and  C4_4
REMARK    4  A    between atoms: C3_3  and  C5_5
REMARK    5  A    between atoms: C3_3  and  C6_6
REMARK    6  A    between atoms: C6_6  and  O2_8
REMARK    7  A    between atoms: O2_8  and  C7_9
REMARK    8  A    between atoms: C9_12  and  C25_38
REMARK    9  A    between atoms: C13_19  and  C18_26
REMARK   10  A    between atoms: C14_21  and  C17_25
REMARK   11  A    between atoms: C19_27  and  C20_28
REMARK   12  A    between atoms: C22_31  and  O5_37
REMARK   13  A    between atoms: C26_39  and  C27_40
REMARK                            x       y       z     vdW  Elec       q    Type
REMARK                         _______ _______ _______ _____ _____    ______ ____
ROOT
ATOM      1  C7  <0> A   1     -14.954   9.722  46.786  0.00  0.00    +0.184 C 
ATOM      2  C8  <0> A   1     -16.355  10.028  47.326  0.00  0.00    +0.023 C 
ATOM      3  C9  <0> A   1     -16.335  10.042  48.855  0.00  0.00    +0.018 C 
ATOM      4  C10 <0> A   1     -15.341  11.093  49.359  0.00  0.00    +0.035 C 
ATOM      5  C11 <0> A   1     -13.954  10.756  48.817  0.00  0.00    +0.039 C 
ATOM      6  C12 <0> A   1     -13.987  10.794  47.285  0.00  0.00    +0.019 C 
ATOM      7  C13 <0> A   1     -12.571  10.549  46.763  0.00  0.00    +0.031 C 
ATOM      8  C14 <0> A   1     -11.706  11.752  47.150  0.00  0.00    +0.028 C 
ATOM      9  C15 <0> A   1     -11.919  12.123  48.587  0.00  0.00    -0.049 C 
ATOM     10  C16 <0> A   1     -12.913  11.710  49.311  0.00  0.00    -0.040 C 
ATOM     11  C17 <0> A   1     -12.073  12.943  46.263  0.00  0.00    +0.028 C 
ENDROOT
BRANCH   3  12
ATOM     12  C25 <0> A   1     -15.924   8.684  49.362  0.00  0.00    -0.015 C 
ATOM     13  C26 <0> A   1     -16.792   7.927  49.986  0.00  0.00    -0.075 C 
ATOM     14  C27 <0> A   1     -16.349   6.630  50.613  0.00  0.00    +0.056 C 
ENDBRANCH   3  12
BRANCH   7  15
ATOM     15  C18 <0> A   1     -12.600  10.403  45.263  0.00  0.00    +0.006 C 
ATOM     16  C19 <0> A   1     -11.843   9.510  44.678  0.00  0.00    -0.046 C 
BRANCH  16  17
ATOM     17  C20 <0> A   1     -11.872   9.364  43.178  0.00  0.00    +0.240 C 
ATOM     18  C21 <0> A   1     -12.969  10.260  42.598  0.00  0.00    +0.047 C 
ATOM     19  C22 <0> A   1     -13.023  10.077  41.077  0.00  0.00    +0.184 C 
ATOM     20  C23 <0> A   1     -13.319   8.604  40.765  0.00  0.00    +0.022 C 
ATOM     21  C24 <0> A   1     -12.327   7.750  41.523  0.00  0.00    +0.497 C 
ATOM     22  O3  <0> A   1     -11.715   6.869  40.967  0.00  0.00    -0.451 OA
ATOM     23  O4  <0> A   1     -12.144   8.001  42.836  0.00  0.00    -0.368 OA
BRANCH  19  24
ATOM     24  O5  <0> A   1     -11.767  10.447  40.506  0.00  0.00    -0.562 OA
ATOM     25  H35 <0> A   1     -11.752  10.423  39.539  0.00  0.00    +0.386 HD
ENDBRANCH  19  24
ENDBRANCH  16  17
ENDBRANCH   7  15
BRANCH   1  26
ATOM     26  O2  <0> A   1     -14.529   8.440  47.251  0.00  0.00    -0.328 OA
BRANCH  26  27
ATOM     27  C6  <0> A   1     -14.545   7.434  46.362  0.00  0.00    +0.464 C 
ATOM     28  O1  <0> A   1     -14.641   7.672  45.182  0.00  0.00    -0.498 OA
BRANCH  27  29
ATOM     29  C3  <0> A   1     -14.444   6.007  46.838  0.00  0.00    -0.051 C 
ATOM     30  C4  <0> A   1     -15.846   5.460  47.112  0.00  0.00    +0.060 C 
ATOM     31  C5  <0> A   1     -13.617   5.956  48.124  0.00  0.00    +0.058 C 
BRANCH  29  33
ATOM     32  C1  <0> A   1     -14.741   4.086  45.268  0.00  0.00    +0.022 C 
ATOM     33  C2  <0> A   1     -13.767   5.158  45.762  0.00  0.00    +0.036 C 
ENDBRANCH  29  33
ENDBRANCH  27  29
ENDBRANCH  26  27
ENDBRANCH   1  26
TORSDOF 8
ENDMDL
MODEL 5
REMARK VINA RESULT:      -6.9      4.238      7.460
REMARK  Name = CHEMBL76073
REMARK  13 active torsions:
REMARK  status: ('A' for Active; 'I' for Inactive)
REMARK    1  A    between atoms: C1_1  and  C2_2
REMARK    2  A    between atoms: C2_2  and  C3_3
REMARK    3  A    between atoms: C3_3  and  C4_4
REMARK    4  A    between atoms: C3_3  and  C5_5
REMARK    5  A    between atoms: C3_3  and  C6_6
REMARK    6  A    between atoms: C6_6  and  O2_8
REMARK    7  A    between atoms: O2_8  and  C7_9
REMARK    8  A    between atoms: C9_12  and  C25_38
REMARK    9  A    between atoms: C13_19  and  C18_26
REMARK   10  A    between atoms: C14_21  and  C17_25
REMARK   11  A    between atoms: C19_27  and  C20_28
REMARK   12  A    between atoms: C22_31  and  O5_37
REMARK   13  A    between atoms: C26_39  and  C27_40
REMARK                            x       y       z     vdW  Elec       q    Type
REMARK                         _______ _______ _______ _____ _____    ______ ____
ROOT
ATOM      1  C7  <0> A   1     -25.991   1.053  50.868  0.00  0.00    +0.184 C 
ATOM      2  C8  <0> A   1     -27.367   0.924  50.207  0.00  0.00    +0.023 C 
ATOM      3  C9  <0> A   1     -28.391   0.416  51.223  0.00  0.00    +0.018 C 
ATOM      4  C10 <0> A   1     -28.471   1.377  52.414  0.00  0.00    +0.035 C 
ATOM      5  C11 <0> A   1     -27.091   1.474  53.060  0.00  0.00    +0.039 C 
ATOM      6  C12 <0> A   1     -26.093   2.030  52.038  0.00  0.00    +0.019 C 
ATOM      7  C13 <0> A   1     -24.741   2.210  52.728  0.00  0.00    +0.031 C 
ATOM      8  C14 <0> A   1     -24.881   3.329  53.764  0.00  0.00    +0.028 C 
ATOM      9  C15 <0> A   1     -26.122   3.146  54.586  0.00  0.00    -0.049 C 
ATOM     10  C16 <0> A   1     -27.100   2.356  54.269  0.00  0.00    -0.040 C 
ATOM     11  C17 <0> A   1     -24.950   4.677  53.043  0.00  0.00    +0.028 C 
ENDROOT
BRANCH   3  12
ATOM     12  C25 <0> A   1     -27.977  -0.948  51.710  0.00  0.00    -0.015 C 
ATOM     13  C26 <0> A   1     -28.364  -2.020  51.065  0.00  0.00    -0.075 C 
ATOM     14  C27 <0> A   1     -28.067  -3.386  51.625  0.00  0.00    +0.056 C 
ENDBRANCH   3  12
BRANCH   7  15
ATOM     15  C18 <0> A   1     -23.695   2.584  51.710  0.00  0.00    +0.006 C 
ATOM     16  C19 <0> A   1     -22.430   2.602  52.047  0.00  0.00    -0.046 C 
BRANCH  16  17
ATOM     17  C20 <0> A   1     -21.384   2.977  51.028  0.00  0.00    +0.240 C 
ATOM     18  C21 <0> A   1     -20.061   3.272  51.739  0.00  0.00    +0.047 C 
ATOM     19  C22 <0> A   1     -19.012   3.692  50.705  0.00  0.00    +0.184 C 
ATOM     20  C23 <0> A   1     -19.512   4.944  49.972  0.00  0.00    +0.022 C 
ATOM     21  C24 <0> A   1     -20.908   4.667  49.458  0.00  0.00    +0.497 C 
ATOM     22  O3  <0> A   1     -21.206   4.907  48.312  0.00  0.00    -0.451 OA
ATOM     23  O4  <0> A   1     -21.808   4.143  50.314  0.00  0.00    -0.368 OA
BRANCH  19  24
ATOM     24  O5  <0> A   1     -18.812   2.633  49.768  0.00  0.00    -0.562 OA
ATOM     25  H35 <0> A   1     -17.921   2.257  49.783  0.00  0.00    +0.386 HD
ENDBRANCH  19  24
ENDBRANCH  16  17
ENDBRANCH   7  15
BRANCH   1  26
ATOM     26  O2  <0> A   1     -25.567  -0.225  51.346  0.00  0.00    -0.328 OA
BRANCH  26  27
ATOM     27  C6  <0> A   1     -24.428  -0.719  50.835  0.00  0.00    +0.464 C 
ATOM     28  O1  <0> A   1     -24.079  -0.406  49.722  0.00  0.00    -0.498 OA
BRANCH  27  29
ATOM     29  C3  <0> A   1     -23.584  -1.664  51.652  0.00  0.00    -0.051 C 
ATOM     30  C4  <0> A   1     -22.193  -1.061  51.855  0.00  0.00    +0.060 C 
ATOM     31  C5  <0> A   1     -23.458  -3.001  50.918  0.00  0.00    +0.058 C 
BRANCH  29  33
ATOM     32  C1  <0> A   1     -23.501  -1.085  54.081  0.00  0.00    +0.022 C 
ATOM     33  C2  <0> A   1     -24.244  -1.890  53.014  0.00  0.00    +0.036 C 
ENDBRANCH  29  33
ENDBRANCH  27  29
ENDBRANCH  26  27
ENDBRANCH   1  26
TORSDOF 8
ENDMDL
MODEL 6
REMARK VINA RESULT:      -6.9     16.531     19.439
REMARK  Name = CHEMBL76073
REMARK  13 active torsions:
REMARK  status: ('A' for Active; 'I' for Inactive)
REMARK    1  A    between atoms: C1_1  and  C2_2
REMARK    2  A    between atoms: C2_2  and  C3_3
REMARK    3  A    between atoms: C3_3  and  C4_4
REMARK    4  A    between atoms: C3_3  and  C5_5
REMARK    5  A    between atoms: C3_3  and  C6_6
REMARK    6  A    between atoms: C6_6  and  O2_8
REMARK    7  A    between atoms: O2_8  and  C7_9
REMARK    8  A    between atoms: C9_12  and  C25_38
REMARK    9  A    between atoms: C13_19  and  C18_26
REMARK   10  A    between atoms: C14_21  and  C17_25
REMARK   11  A    between atoms: C19_27  and  C20_28
REMARK   12  A    between atoms: C22_31  and  O5_37
REMARK   13  A    between atoms: C26_39  and  C27_40
REMARK                            x       y       z     vdW  Elec       q    Type
REMARK                         _______ _______ _______ _____ _____    ______ ____
ROOT
ATOM      1  C7  <0> A   1     -12.390   7.873  47.216  0.00  0.00    +0.184 C 
ATOM      2  C8  <0> A   1     -11.477   7.312  48.311  0.00  0.00    +0.023 C 
ATOM      3  C9  <0> A   1     -12.226   7.265  49.644  0.00  0.00    +0.018 C 
ATOM      4  C10 <0> A   1     -13.481   6.396  49.512  0.00  0.00    +0.035 C 
ATOM      5  C11 <0> A   1     -14.375   6.987  48.426  0.00  0.00    +0.039 C 
ATOM      6  C12 <0> A   1     -13.622   6.979  47.091  0.00  0.00    +0.019 C 
ATOM      7  C13 <0> A   1     -14.564   7.484  45.999  0.00  0.00    +0.031 C 
ATOM      8  C14 <0> A   1     -15.674   6.445  45.810  0.00  0.00    +0.028 C 
ATOM      9  C15 <0> A   1     -16.228   6.008  47.132  0.00  0.00    -0.049 C 
ATOM     10  C16 <0> A   1     -15.652   6.221  48.275  0.00  0.00    -0.040 C 
ATOM     11  C17 <0> A   1     -15.105   5.229  45.077  0.00  0.00    +0.028 C 
ENDROOT
BRANCH   3  12
ATOM     12  C25 <0> A   1     -12.627   8.662  50.041  0.00  0.00    -0.015 C 
ATOM     13  C26 <0> A   1     -11.766   9.447  50.639  0.00  0.00    -0.075 C 
ATOM     14  C27 <0> A   1     -12.204  10.791  51.158  0.00  0.00    +0.056 C 
ENDBRANCH   3  12
BRANCH   7  15
ATOM     15  C18 <0> A   1     -13.803   7.658  44.710  0.00  0.00    +0.006 C 
ATOM     16  C19 <0> A   1     -13.903   8.775  44.036  0.00  0.00    -0.046 C 
BRANCH  16  17
ATOM     17  C20 <0> A   1     -13.142   8.949  42.747  0.00  0.00    +0.240 C 
ATOM     18  C21 <0> A   1     -13.697  10.155  41.984  0.00  0.00    +0.047 C 
ATOM     19  C22 <0> A   1     -12.948  10.304  40.655  0.00  0.00    +0.184 C 
ATOM     20  C23 <0> A   1     -13.137   9.021  39.833  0.00  0.00    +0.022 C 
ATOM     21  C24 <0> A   1     -12.762   7.841  40.703  0.00  0.00    +0.497 C 
ATOM     22  O3  <0> A   1     -12.012   6.985  40.297  0.00  0.00    -0.451 OA
ATOM     23  O4  <0> A   1     -13.287   7.773  41.943  0.00  0.00    -0.368 OA
BRANCH  19  24
ATOM     24  O5  <0> A   1     -11.558  10.511  40.910  0.00  0.00    -0.562 OA
ATOM     25  H35 <0> A   1     -11.379  11.130  41.631  0.00  0.00    +0.386 HD
ENDBRANCH  19  24
ENDBRANCH  16  17
ENDBRANCH   7  15
BRANCH   1  26
ATOM     26  O2  <0> A   1     -12.794   9.200  47.562  0.00  0.00    -0.328 OA
BRANCH  26  27
ATOM     27  C6  <0> A   1     -12.281  10.202  46.830  0.00  0.00    +0.464 C 
ATOM     28  O1  <0> A   1     -11.293  10.018  46.161  0.00  0.00    -0.498 OA
BRANCH  27  29
ATOM     29  C3  <0> A   1     -12.941  11.558  46.845  0.00  0.00    -0.051 C 
ATOM     30  C4  <0> A   1     -13.090  12.067  45.410  0.00  0.00    +0.060 C 
ATOM     31  C5  <0> A   1     -12.079  12.536  47.646  0.00  0.00    +0.058 C 
BRANCH  29  33
ATOM     32  C1  <0> A   1     -15.377  11.219  46.407  0.00  0.00    +0.022 C 
ATOM     33  C2  <0> A   1     -14.322  11.446  47.491  0.00  0.00    +0.036 C 
ENDBRANCH  29  33
ENDBRANCH  27  29
ENDBRANCH  26  27
ENDBRANCH   1  26
TORSDOF 8
ENDMDL
MODEL 7
REMARK VINA RESULT:      -6.9      3.101      5.276
REMARK  Name = CHEMBL76073
REMARK  13 active torsions:
REMARK  status: ('A' for Active; 'I' for Inactive)
REMARK    1  A    between atoms: C1_1  and  C2_2
REMARK    2  A    between atoms: C2_2  and  C3_3
REMARK    3  A    between atoms: C3_3  and  C4_4
REMARK    4  A    between atoms: C3_3  and  C5_5
REMARK    5  A    between atoms: C3_3  and  C6_6
REMARK    6  A    between atoms: C6_6  and  O2_8
REMARK    7  A    between atoms: O2_8  and  C7_9
REMARK    8  A    between atoms: C9_12  and  C25_38
REMARK    9  A    between atoms: C13_19  and  C18_26
REMARK   10  A    between atoms: C14_21  and  C17_25
REMARK   11  A    between atoms: C19_27  and  C20_28
REMARK   12  A    between atoms: C22_31  and  O5_37
REMARK   13  A    between atoms: C26_39  and  C27_40
REMARK                            x       y       z     vdW  Elec       q    Type
REMARK                         _______ _______ _______ _____ _____    ______ ____
ROOT
ATOM      1  C7  <0> A   1     -24.905  -1.929  51.091  0.00  0.00    +0.184 C 
ATOM      2  C8  <0> A   1     -25.596  -1.304  49.874  0.00  0.00    +0.023 C 
ATOM      3  C9  <0> A   1     -27.093  -1.147  50.145  0.00  0.00    +0.018 C 
ATOM      4  C10 <0> A   1     -27.314  -0.267  51.380  0.00  0.00    +0.035 C 
ATOM      5  C11 <0> A   1     -26.629  -0.921  52.577  0.00  0.00    +0.039 C 
ATOM      6  C12 <0> A   1     -25.124  -1.025  52.303  0.00  0.00    +0.019 C 
ATOM      7  C13 <0> A   1     -24.442  -1.592  53.548  0.00  0.00    +0.031 C 
ATOM      8  C14 <0> A   1     -24.550  -0.551  54.666  0.00  0.00    +0.028 C 
ATOM      9  C15 <0> A   1     -25.944  -0.008  54.759  0.00  0.00    -0.049 C 
ATOM     10  C16 <0> A   1     -26.847  -0.146  53.839  0.00  0.00    -0.040 C 
ATOM     11  C17 <0> A   1     -23.581   0.598  54.379  0.00  0.00    +0.028 C 
ENDROOT
BRANCH   3  12
ATOM     12  C25 <0> A   1     -27.703  -2.503  50.383  0.00  0.00    -0.015 C 
ATOM     13  C26 <0> A   1     -28.212  -3.178  49.383  0.00  0.00    -0.075 C 
ATOM     14  C27 <0> A   1     -28.943  -4.470  49.639  0.00  0.00    +0.056 C 
ENDBRANCH   3  12
BRANCH   7  15
ATOM     15  C18 <0> A   1     -22.992  -1.874  53.250  0.00  0.00    +0.006 C 
ATOM     16  C19 <0> A   1     -22.312  -2.686  54.019  0.00  0.00    -0.046 C 
BRANCH  16  17
ATOM     17  C20 <0> A   1     -20.861  -2.968  53.722  0.00  0.00    +0.240 C 
ATOM     18  C21 <0> A   1     -20.395  -4.170  54.546  0.00  0.00    +0.047 C 
ATOM     19  C22 <0> A   1     -18.909  -4.428  54.272  0.00  0.00    +0.184 C 
ATOM     20  C23 <0> A   1     -18.109  -3.176  54.658  0.00  0.00    +0.022 C 
ATOM     21  C24 <0> A   1     -18.735  -1.983  53.971  0.00  0.00    +0.497 C 
ATOM     22  O3  <0> A   1     -18.058  -1.195  53.354  0.00  0.00    -0.451 OA
ATOM     23  O4  <0> A   1     -20.072  -1.824  54.065  0.00  0.00    -0.368 OA
BRANCH  19  24
ATOM     24  O5  <0> A   1     -18.720  -4.711  52.885  0.00  0.00    -0.562 OA
ATOM     25  H35 <0> A   1     -18.398  -3.958  52.370  0.00  0.00    +0.386 HD
ENDBRANCH  19  24
ENDBRANCH  16  17
ENDBRANCH   7  15
BRANCH   1  26
ATOM     26  O2  <0> A   1     -25.464  -3.219  51.350  0.00  0.00    -0.328 OA
BRANCH  26  27
ATOM     27  C6  <0> A   1     -24.707  -4.283  51.039  0.00  0.00    +0.464 C 
ATOM     28  O1  <0> A   1     -23.594  -4.125  50.598  0.00  0.00    -0.498 OA
BRANCH  27  29
ATOM     29  C3  <0> A   1     -25.246  -5.676  51.241  0.00  0.00    -0.051 C 
ATOM     30  C4  <0> A   1     -25.712  -6.242  49.898  0.00  0.00    +0.060 C 
ATOM     31  C5  <0> A   1     -26.428  -5.630  52.212  0.00  0.00    +0.058 C 
BRANCH  29  33
ATOM     32  C1  <0> A   1     -24.116  -7.896  51.056  0.00  0.00    +0.022 C 
ATOM     33  C2  <0> A   1     -24.147  -6.570  51.817  0.00  0.00    +0.036 C 
ENDBRANCH  29  33
ENDBRANCH  27  29
ENDBRANCH  26  27
ENDBRANCH   1  26
TORSDOF 8
ENDMDL
MODEL 8
REMARK VINA RESULT:      -6.8      1.986      2.937
REMARK  Name = CHEMBL76073
REMARK  13 active torsions:
REMARK  status: ('A' for Active; 'I' for Inactive)
REMARK    1  A    between atoms: C1_1  and  C2_2
REMARK    2  A    between atoms: C2_2  and  C3_3
REMARK    3  A    between atoms: C3_3  and  C4_4
REMARK    4  A    between atoms: C3_3  and  C5_5
REMARK    5  A    between atoms: C3_3  and  C6_6
REMARK    6  A    between atoms: C6_6  and  O2_8
REMARK    7  A    between atoms: O2_8  and  C7_9
REMARK    8  A    between atoms: C9_12  and  C25_38
REMARK    9  A    between atoms: C13_19  and  C18_26
REMARK   10  A    between atoms: C14_21  and  C17_25
REMARK   11  A    between atoms: C19_27  and  C20_28
REMARK   12  A    between atoms: C22_31  and  O5_37
REMARK   13  A    between atoms: C26_39  and  C27_40
REMARK                            x       y       z     vdW  Elec       q    Type
REMARK                         _______ _______ _______ _____ _____    ______ ____
ROOT
ATOM      1  C7  <0> A   1     -27.603  -3.777  51.042  0.00  0.00    +0.184 C 
ATOM      2  C8  <0> A   1     -28.662  -2.872  50.402  0.00  0.00    +0.023 C 
ATOM      3  C9  <0> A   1     -29.152  -1.840  51.418  0.00  0.00    +0.018 C 
ATOM      4  C10 <0> A   1     -27.975  -0.995  51.919  0.00  0.00    +0.035 C 
ATOM      5  C11 <0> A   1     -26.946  -1.920  52.563  0.00  0.00    +0.039 C 
ATOM      6  C12 <0> A   1     -26.435  -2.914  51.514  0.00  0.00    +0.019 C 
ATOM      7  C13 <0> A   1     -25.337  -3.768  52.150  0.00  0.00    +0.031 C 
ATOM      8  C14 <0> A   1     -24.133  -2.865  52.430  0.00  0.00    +0.028 C 
ATOM      9  C15 <0> A   1     -24.563  -1.589  53.089  0.00  0.00    -0.049 C 
ATOM     10  C16 <0> A   1     -25.787  -1.161  53.127  0.00  0.00    -0.040 C 
ATOM     11  C17 <0> A   1     -23.432  -2.537  51.110  0.00  0.00    +0.028 C 
ENDROOT
BRANCH   3  12
ATOM     12  C25 <0> A   1     -29.787  -2.550  52.585  0.00  0.00    -0.015 C 
ATOM     13  C26 <0> A   1     -30.743  -1.967  53.265  0.00  0.00    -0.075 C 
ATOM     14  C27 <0> A   1     -31.285  -2.616  54.512  0.00  0.00    +0.056 C 
ENDBRANCH   3  12
BRANCH   7  15
ATOM     15  C18 <0> A   1     -24.939  -4.872  51.204  0.00  0.00    +0.006 C 
ATOM     16  C19 <0> A   1     -24.746  -6.085  51.657  0.00  0.00    -0.046 C 
BRANCH  16  17
ATOM     17  C20 <0> A   1     -24.348  -7.188  50.711  0.00  0.00    +0.240 C 
ATOM     18  C21 <0> A   1     -25.153  -7.066  49.415  0.00  0.00    +0.047 C 
ATOM     19  C22 <0> A   1     -24.776  -8.214  48.472  0.00  0.00    +0.184 C 
ATOM     20  C23 <0> A   1     -25.084  -9.548  49.167  0.00  0.00    +0.022 C 
ATOM     21  C24 <0> A   1     -24.427  -9.536  50.529  0.00  0.00    +0.497 C 
ATOM     22  O3  <0> A   1     -23.750 -10.466  50.901  0.00  0.00    -0.451 OA
ATOM     23  O4  <0> A   1     -24.615  -8.457  51.317  0.00  0.00    -0.368 OA
BRANCH  19  24
ATOM     24  O5  <0> A   1     -23.383  -8.142  48.165  0.00  0.00    -0.562 OA
ATOM     25  H35 <0> A   1     -23.045  -8.914  47.690  0.00  0.00    +0.386 HD
ENDBRANCH  19  24
ENDBRANCH  16  17
ENDBRANCH   7  15
BRANCH   1  26
ATOM     26  O2  <0> A   1     -28.172  -4.466  52.158  0.00  0.00    -0.328 OA
BRANCH  26  27
ATOM     27  C6  <0> A   1     -28.597  -5.721  51.947  0.00  0.00    +0.464 C 
ATOM     28  O1  <0> A   1     -28.160  -6.359  51.018  0.00  0.00    -0.498 OA
BRANCH  27  29
ATOM     29  C3  <0> A   1     -29.618  -6.336  52.869  0.00  0.00    -0.051 C 
ATOM     30  C4  <0> A   1     -31.022  -5.919  52.426  0.00  0.00    +0.060 C 
ATOM     31  C5  <0> A   1     -29.371  -5.853  54.299  0.00  0.00    +0.058 C 
BRANCH  29  33
ATOM     32  C1  <0> A   1     -30.218  -8.469  54.023  0.00  0.00    +0.022 C 
ATOM     33  C2  <0> A   1     -29.500  -7.860  52.817  0.00  0.00    +0.036 C 
ENDBRANCH  29  33
ENDBRANCH  27  29
ENDBRANCH  26  27
ENDBRANCH   1  26
TORSDOF 8
ENDMDL
MODEL 9
REMARK VINA RESULT:      -6.7      2.770      6.491
REMARK  Name = CHEMBL76073
REMARK  13 active torsions:
REMARK  status: ('A' for Active; 'I' for Inactive)
REMARK    1  A    between atoms: C1_1  and  C2_2
REMARK    2  A    between atoms: C2_2  and  C3_3
REMARK    3  A    between atoms: C3_3  and  C4_4
REMARK    4  A    between atoms: C3_3  and  C5_5
REMARK    5  A    between atoms: C3_3  and  C6_6
REMARK    6  A    between atoms: C6_6  and  O2_8
REMARK    7  A    between atoms: O2_8  and  C7_9
REMARK    8  A    between atoms: C9_12  and  C25_38
REMARK    9  A    between atoms: C13_19  and  C18_26
REMARK   10  A    between atoms: C14_21  and  C17_25
REMARK   11  A    between atoms: C19_27  and  C20_28
REMARK   12  A    between atoms: C22_31  and  O5_37
REMARK   13  A    between atoms: C26_39  and  C27_40
REMARK                            x       y       z     vdW  Elec       q    Type
REMARK                         _______ _______ _______ _____ _____    ______ ____
ROOT
ATOM      1  C7  <0> A   1     -28.796  -6.657  52.980  0.00  0.00    +0.184 C 
ATOM      2  C8  <0> A   1     -29.317  -6.188  54.342  0.00  0.00    +0.023 C 
ATOM      3  C9  <0> A   1     -30.381  -5.106  54.153  0.00  0.00    +0.018 C 
ATOM      4  C10 <0> A   1     -31.539  -5.650  53.310  0.00  0.00    +0.035 C 
ATOM      5  C11 <0> A   1     -30.994  -6.095  51.955  0.00  0.00    +0.039 C 
ATOM      6  C12 <0> A   1     -29.966  -7.212  52.168  0.00  0.00    +0.019 C 
ATOM      7  C13 <0> A   1     -29.502  -7.711  50.799  0.00  0.00    +0.031 C 
ATOM      8  C14 <0> A   1     -30.683  -8.412  50.122  0.00  0.00    +0.028 C 
ATOM      9  C15 <0> A   1     -31.930  -7.587  50.234  0.00  0.00    -0.049 C 
ATOM     10  C16 <0> A   1     -32.078  -6.591  51.051  0.00  0.00    -0.040 C 
ATOM     11  C17 <0> A   1     -30.915  -9.767  50.793  0.00  0.00    +0.028 C 
ENDROOT
BRANCH   3  12
ATOM     12  C25 <0> A   1     -29.769  -3.921  53.453  0.00  0.00    -0.015 C 
ATOM     13  C26 <0> A   1     -29.897  -2.721  53.962  0.00  0.00    -0.075 C 
ATOM     14  C27 <0> A   1     -29.405  -1.520  53.197  0.00  0.00    +0.056 C 
ENDBRANCH   3  12
BRANCH   7  15
ATOM     15  C18 <0> A   1     -28.362  -8.682  50.971  0.00  0.00    +0.006 C 
ATOM     16  C19 <0> A   1     -27.330  -8.628  50.167  0.00  0.00    -0.046 C 
BRANCH  16  17
ATOM     17  C20 <0> A   1     -26.190  -9.599  50.339  0.00  0.00    +0.240 C 
ATOM     18  C21 <0> A   1     -24.922  -8.835  50.730  0.00  0.00    +0.047 C 
ATOM     19  C22 <0> A   1     -23.756  -9.820  50.863  0.00  0.00    +0.184 C 
ATOM     20  C23 <0> A   1     -23.554 -10.533  49.519  0.00  0.00    +0.022 C 
ATOM     21  C24 <0> A   1     -24.885 -11.103  49.079  0.00  0.00    +0.497 C 
ATOM     22  O3  <0> A   1     -24.979 -12.251  48.714  0.00  0.00    -0.451 OA
ATOM     23  O4  <0> A   1     -25.963 -10.293  49.107  0.00  0.00    -0.368 OA
BRANCH  19  24
ATOM     24  O5  <0> A   1     -24.054 -10.781  51.877  0.00  0.00    -0.562 OA
ATOM     25  H35 <0> A   1     -23.839 -11.691  51.632  0.00  0.00    +0.386 HD
ENDBRANCH  19  24
ENDBRANCH  16  17
ENDBRANCH   7  15
BRANCH   1  26
ATOM     26  O2  <0> A   1     -28.211  -5.554  52.284  0.00  0.00    -0.328 OA
BRANCH  26  27
ATOM     27  C6  <0> A   1     -26.872  -5.535  52.191  0.00  0.00    +0.464 C 
ATOM     28  O1  <0> A   1     -26.213  -6.355  52.784  0.00  0.00    -0.498 OA
BRANCH  27  29
ATOM     29  C3  <0> A   1     -26.191  -4.491  51.344  0.00  0.00    -0.051 C 
ATOM     30  C4  <0> A   1     -24.893  -5.064  50.773  0.00  0.00    +0.060 C 
ATOM     31  C5  <0> A   1     -25.873  -3.265  52.202  0.00  0.00    +0.058 C 
BRANCH  29  33
ATOM     32  C1  <0> A   1     -27.326  -2.568  50.222  0.00  0.00    +0.022 C 
ATOM     33  C2  <0> A   1     -27.116  -4.083  50.196  0.00  0.00    +0.036 C 
ENDBRANCH  29  33
ENDBRANCH  27  29
ENDBRANCH  26  27
ENDBRANCH   1  26
TORSDOF 8
ENDMDL
MODEL 10
REMARK VINA RESULT:      -6.7      1.896      2.891
REMARK  Name = CHEMBL76073
REMARK  13 active torsions:
REMARK  status: ('A' for Active; 'I' for Inactive)
REMARK    1  A    between atoms: C1_1  and  C2_2
REMARK    2  A    between atoms: C2_2  and  C3_3
REMARK    3  A    between atoms: C3_3  and  C4_4
REMARK    4  A    between atoms: C3_3  and  C5_5
REMARK    5  A    between atoms: C3_3  and  C6_6
REMARK    6  A    between atoms: C6_6  and  O2_8
REMARK    7  A    between atoms: O2_8  and  C7_9
REMARK    8  A    between atoms: C9_12  and  C25_38
REMARK    9  A    between atoms: C13_19  and  C18_26
REMARK   10  A    between atoms: C14_21  and  C17_25
REMARK   11  A    between atoms: C19_27  and  C20_28
REMARK   12  A    between atoms: C22_31  and  O5_37
REMARK   13  A    between atoms: C26_39  and  C27_40
REMARK                            x       y       z     vdW  Elec       q    Type
REMARK                         _______ _______ _______ _____ _____    ______ ____
ROOT
ATOM      1  C7  <0> A   1     -27.616  -2.947  51.276  0.00  0.00    +0.184 C 
ATOM      2  C8  <0> A   1     -28.402  -1.654  51.030  0.00  0.00    +0.023 C 
ATOM      3  C9  <0> A   1     -28.351  -0.766  52.274  0.00  0.00    +0.018 C 
ATOM      4  C10 <0> A   1     -26.896  -0.435  52.624  0.00  0.00    +0.035 C 
ATOM      5  C11 <0> A   1     -26.143  -1.738  52.877  0.00  0.00    +0.039 C 
ATOM      6  C12 <0> A   1     -26.167  -2.590  51.604  0.00  0.00    +0.019 C 
ATOM      7  C13 <0> A   1     -25.329  -3.846  51.844  0.00  0.00    +0.031 C 
ATOM      8  C14 <0> A   1     -23.864  -3.421  51.985  0.00  0.00    +0.028 C 
ATOM      9  C15 <0> A   1     -23.734  -2.247  52.907  0.00  0.00    -0.049 C 
ATOM     10  C16 <0> A   1     -24.723  -1.495  53.280  0.00  0.00    -0.040 C 
ATOM     11  C17 <0> A   1     -23.316  -3.042  50.608  0.00  0.00    +0.028 C 
ENDROOT
BRANCH   3  12
ATOM     12  C25 <0> A   1     -28.990  -1.488  53.431  0.00  0.00    -0.015 C 
ATOM     13  C26 <0> A   1     -29.818  -0.854  54.223  0.00  0.00    -0.075 C 
ATOM     14  C27 <0> A   1     -30.351  -1.534  55.458  0.00  0.00    +0.056 C 
ENDBRANCH   3  12
BRANCH   7  15
ATOM     15  C18 <0> A   1     -25.478  -4.789  50.678  0.00  0.00    +0.006 C 
ATOM     16  C19 <0> A   1     -25.580  -6.077  50.886  0.00  0.00    -0.046 C 
BRANCH  16  17
ATOM     17  C20 <0> A   1     -25.728  -7.020  49.719  0.00  0.00    +0.240 C 
ATOM     18  C21 <0> A   1     -26.320  -8.345  50.206  0.00  0.00    +0.047 C 
ATOM     19  C22 <0> A   1     -26.431  -9.316  49.025  0.00  0.00    +0.184 C 
ATOM     20  C23 <0> A   1     -25.032  -9.542  48.436  0.00  0.00    +0.022 C 
ATOM     21  C24 <0> A   1     -24.410  -8.191  48.157  0.00  0.00    +0.497 C 
ATOM     22  O3  <0> A   1     -23.900  -7.951  47.088  0.00  0.00    -0.451 OA
ATOM     23  O4  <0> A   1     -24.445  -7.261  49.133  0.00  0.00    -0.368 OA
BRANCH  19  24
ATOM     24  O5  <0> A   1     -27.288  -8.760  48.028  0.00  0.00    -0.562 OA
ATOM     25  H35 <0> A   1     -28.227  -8.782  48.259  0.00  0.00    +0.386 HD
ENDBRANCH  19  24
ENDBRANCH  16  17
ENDBRANCH   7  15
BRANCH   1  26
ATOM     26  O2  <0> A   1     -28.194  -3.658  52.373  0.00  0.00    -0.328 OA
BRANCH  26  27
ATOM     27  C6  <0> A   1     -28.926  -4.744  52.076  0.00  0.00    +0.464 C 
ATOM     28  O1  <0> A   1     -29.337  -4.907  50.953  0.00  0.00    -0.498 OA
BRANCH  27  29
ATOM     29  C3  <0> A   1     -29.233  -5.760  53.146  0.00  0.00    -0.051 C 
ATOM     30  C4  <0> A   1     -27.931  -6.414  53.617  0.00  0.00    +0.060 C 
ATOM     31  C5  <0> A   1     -30.166  -6.832  52.580  0.00  0.00    +0.058 C 
BRANCH  29  33
ATOM     32  C1  <0> A   1     -31.343  -4.689  53.949  0.00  0.00    +0.022 C 
ATOM     33  C2  <0> A   1     -29.910  -5.066  54.329  0.00  0.00    +0.036 C 
ENDBRANCH  29  33
ENDBRANCH  27  29
ENDBRANCH  26  27
ENDBRANCH   1  26
TORSDOF 8
ENDMDL
