REMARK VINA RESULT:      -7.8     12.228     15.981
REMARK  Name = CHEMBL66368
REMARK  12 active torsions:
REMARK  status: ('A' for Active; 'I' for Inactive)
REMARK    1  A    between atoms: C1_1  and  C2_2
REMARK    2  A    between atoms: C2_2  and  C3_3
REMARK    3  A    between atoms: C2_2  and  C4_4
REMARK    4  A    between atoms: C5_5  and  C20_25
REMARK    5  A    between atoms: C6_6  and  C14_18
REMARK    6  A    between atoms: C21_26  and  C22_27
REMARK    7  A    between atoms: C22_27  and  C23_28
REMARK    8  A    between atoms: C22_27  and  O4_36
REMARK    9  A    between atoms: C23_28  and  C24_29
REMARK   10  A    between atoms: C24_29  and  C25_31
REMARK   11  A    between atoms: C24_29  and  O3_35
REMARK   12  A    between atoms: C25_31  and  C26_32
REMARK                            x       y       z     vdW  Elec       q    Type
REMARK                         _______ _______ _______ _____ _____    ______ ____
ROOT
ATOM      1  C4  <0> A   1     -23.458   1.356  51.424  0.00  0.00    +0.131 C 
ATOM      2  C5  <0> A   1     -23.874   0.026  51.214  0.00  0.00    -0.154 C 
ATOM      3  C6  <0> A   1     -25.259   0.006  51.324  0.00  0.00    +0.154 C 
ATOM      4  N1  <0> A   1     -25.656   1.287  51.591  0.00  0.00    -0.294 N 
ATOM      5  N2  <0> A   1     -24.512   2.092  51.650  0.00  0.00    -0.268 NA
ATOM      6  C7  <0> A   1     -26.965   1.715  51.776  0.00  0.00    +0.390 C 
ATOM      7  N3  <0> A   1     -28.072   1.012  51.743  0.00  0.00    -0.522 NA
ATOM      8  C8  <0> A   1     -29.288   1.563  51.943  0.00  0.00    +0.100 A 
ATOM      9  C9  <0> A   1     -30.549   0.923  51.933  0.00  0.00    +0.073 A 
ATOM     10  C10 <0> A   1     -31.698   1.636  52.155  0.00  0.00    +0.030 A 
ATOM     11  C11 <0> A   1     -31.668   3.003  52.396  0.00  0.00    +0.044 A 
ATOM     12  C12 <0> A   1     -30.453   3.661  52.412  0.00  0.00    +0.074 A 
ATOM     13  C13 <0> A   1     -29.296   2.955  52.191  0.00  0.00    -0.157 A 
ATOM     14  S1  <0> A   1     -27.567   3.360  52.127  0.00  0.00    +0.069 S 
ENDROOT
BRANCH   3  15
ATOM     15  C14 <0> A   1     -26.136  -1.172  51.180  0.00  0.00    -0.061 A 
ATOM     16  C15 <0> A   1     -26.663  -1.505  49.930  0.00  0.00    +0.095 A 
ATOM     17  C16 <0> A   1     -27.482  -2.607  49.800  0.00  0.00    -0.018 A 
ATOM     18  C17 <0> A   1     -27.781  -3.385  50.908  0.00  0.00    +0.120 A 
ATOM     19  C18 <0> A   1     -27.261  -3.060  52.151  0.00  0.00    -0.025 A 
ATOM     20  C19 <0> A   1     -26.437  -1.963  52.291  0.00  0.00    +0.109 A 
ATOM     21  F1  <0> A   1     -28.583  -4.464  50.777  0.00  0.00    -0.137 F 
ENDBRANCH   3  15
BRANCH   1  23
ATOM     22  C1  <0> A   1     -21.894   2.954  50.349  0.00  0.00    +0.042 C 
ATOM     23  C2  <0> A   1     -22.033   1.847  51.396  0.00  0.00    +0.084 C 
ATOM     24  C3  <0> A   1     -21.657   2.397  52.774  0.00  0.00    +0.042 C 
ENDBRANCH   1  23
BRANCH   2  25
ATOM     25  C20 <0> A   1     -23.001  -1.130  50.930  0.00  0.00    +0.039 C 
ATOM     26  C21 <0> A   1     -22.531  -1.867  51.928  0.00  0.00    -0.044 C 
BRANCH  26  27
ATOM     27  C22 <0> A   1     -21.641  -3.048  51.637  0.00  0.00    +0.252 C 
BRANCH  27  28
ATOM     28  O4  <0> A   1     -21.432  -3.152  50.227  0.00  0.00    -0.538 OA
ATOM     29  H25 <0> A   1     -21.718  -2.375  49.729  0.00  0.00    +0.366 HD
ENDBRANCH  27  28
BRANCH  27  30
ATOM     30  C23 <0> A   1     -20.294  -2.855  52.339  0.00  0.00    -0.041 C 
BRANCH  30  31
ATOM     31  C24 <0> A   1     -20.350  -3.487  53.732  0.00  0.00    +0.231 C 
BRANCH  31  32
ATOM     32  O3  <0> A   1     -21.080  -4.713  53.669  0.00  0.00    -0.528 OA
ATOM     33  H24 <0> A   1     -21.348  -4.966  52.775  0.00  0.00    +0.350 HD
ENDBRANCH  31  32
BRANCH  31  34
ATOM     34  C25 <0> A   1     -18.929  -3.765  54.223  0.00  0.00    -0.102 C 
BRANCH  34  35
ATOM     35  C26 <0> A   1     -18.679  -5.250  54.224  0.00  0.00    +0.490 C 
ATOM     36  O1  <0> A   1     -18.068  -5.767  53.304  0.00  0.00    -0.681 OA
ATOM     37  O2  <0> A   1     -19.088  -5.937  55.146  0.00  0.00    -0.713 OA
ENDBRANCH  34  35
ENDBRANCH  31  34
ENDBRANCH  30  31
ENDBRANCH  27  30
ENDBRANCH  26  27
ENDBRANCH   2  25
TORSDOF 10
