REMARK VINA RESULT:      -7.6      0.000      0.000
REMARK  Name = CHEMBL293944
REMARK  16 active torsions:
REMARK  status: ('A' for Active; 'I' for Inactive)
REMARK    1  A    between atoms: C1_1  and  C2_2
REMARK    2  A    between atoms: C2_2  and  C3_3
REMARK    3  A    between atoms: C3_3  and  C4_5
REMARK    4  A    between atoms: C3_3  and  C5_6
REMARK    5  A    between atoms: C5_6  and  O2_8
REMARK    6  A    between atoms: O2_8  and  C6_9
REMARK    7  A    between atoms: C8_12  and  C24_37
REMARK    8  A    between atoms: C12_18  and  C17_25
REMARK    9  A    between atoms: C13_20  and  C16_24
REMARK   10  A    between atoms: C17_25  and  C18_26
REMARK   11  A    between atoms: C18_26  and  C19_27
REMARK   12  A    between atoms: C19_27  and  C20_29
REMARK   13  A    between atoms: C20_29  and  C21_30
REMARK   14  A    between atoms: C21_30  and  C22_32
REMARK   15  A    between atoms: C21_30  and  O6_36
REMARK   16  A    between atoms: C22_32  and  C23_33
REMARK                            x       y       z     vdW  Elec       q    Type
REMARK                         _______ _______ _______ _____ _____    ______ ____
ROOT
ATOM      1  C6  <0> A   1      -3.861   5.327  49.184  0.00  0.00    +0.187 C 
ATOM      2  C7  <0> A   1      -3.976   4.913  50.658  0.00  0.00    +0.002 C 
ATOM      3  C8  <0> A   1      -3.480   6.049  51.552  0.00  0.00    -0.013 C 
ATOM      4  C9  <0> A   1      -2.013   6.340  51.221  0.00  0.00    +0.028 C 
ATOM      5  C10 <0> A   1      -1.887   6.733  49.756  0.00  0.00    +0.033 C 
ATOM      6  C11 <0> A   1      -2.401   5.608  48.846  0.00  0.00    +0.020 C 
ATOM      7  C12 <0> A   1      -2.198   6.069  47.407  0.00  0.00    -0.008 C 
ATOM      8  C13 <0> A   1      -2.962   7.345  47.089  0.00  0.00    +0.020 C 
ATOM      9  C14 <0> A   1      -3.148   8.228  48.282  0.00  0.00    -0.041 C 
ATOM     10  C15 <0> A   1      -2.671   7.979  49.463  0.00  0.00    -0.047 C 
ATOM     11  C16 <0> A   1      -4.314   7.020  46.453  0.00  0.00    +0.022 C 
ATOM     12  C24 <0> A   1      -3.597   5.634  53.020  0.00  0.00    +0.018 C 
ENDROOT
BRANCH   1  13
ATOM     13  O2  <0> A   1      -4.381   4.258  48.391  0.00  0.00    -0.337 OA
BRANCH  13  14
ATOM     14  C5  <0> A   1      -5.717   4.165  48.297  0.00  0.00    +0.467 C 
ATOM     15  O1  <0> A   1      -6.411   4.437  49.247  0.00  0.00    -0.508 OA
BRANCH  14  16
ATOM     16  C3  <0> A   1      -6.351   3.721  47.003  0.00  0.00    +0.024 C 
ATOM     17  C4  <0> A   1      -7.121   2.420  47.234  0.00  0.00    +0.058 C 
BRANCH  16  19
ATOM     18  C1  <0> A   1      -7.096   5.031  45.012  0.00  0.00    +0.023 C 
ATOM     19  C2  <0> A   1      -7.312   4.803  46.509  0.00  0.00    +0.032 C 
ENDBRANCH  16  19
ENDBRANCH  14  16
ENDBRANCH  13  14
ENDBRANCH   1  13
BRANCH   7  20
ATOM     20  C17 <0> A   1      -2.536   4.973  46.397  0.00  0.00    +0.044 C 
BRANCH  20  21
ATOM     21  C18 <0> A   1      -1.259   4.219  46.017  0.00  0.00    +0.015 C 
BRANCH  21  22
ATOM     22  C19 <0> A   1      -1.470   3.502  44.708  0.00  0.00    +0.351 C 
ATOM     23  O3  <0> A   1      -0.556   2.906  44.192  0.00  0.00    -0.430 OA
BRANCH  22  24
ATOM     24  C20 <0> A   1      -2.823   3.529  44.043  0.00  0.00    -0.020 C 
BRANCH  24  25
ATOM     25  C21 <0> A   1      -3.362   2.103  43.928  0.00  0.00    +0.241 C 
BRANCH  25  26
ATOM     26  O6  <0> A   1      -2.632   1.244  44.807  0.00  0.00    -0.532 OA
ATOM     27  H34 <0> A   1      -2.431   0.377  44.430  0.00  0.00    +0.350 HD
ENDBRANCH  25  26
BRANCH  25  28
ATOM     28  C22 <0> A   1      -4.843   2.084  44.313  0.00  0.00    -0.098 C 
BRANCH  28  29
ATOM     29  C23 <0> A   1      -5.415   0.715  44.050  0.00  0.00    +0.491 C 
ATOM     30  O4  <0> A   1      -4.675  -0.253  43.993  0.00  0.00    -0.679 OA
ATOM     31  O5  <0> A   1      -6.616   0.575  43.895  0.00  0.00    -0.713 OA
ENDBRANCH  28  29
ENDBRANCH  25  28
ENDBRANCH  24  25
ENDBRANCH  22  24
ENDBRANCH  21  22
ENDBRANCH  20  21
ENDBRANCH   7  20
TORSDOF 12
