REMARK VINA RESULT:      -7.6     29.461     31.929
REMARK  Name = CHEMBL312626
REMARK  9 active torsions:
REMARK  status: ('A' for Active; 'I' for Inactive)
REMARK    1  A    between atoms: C1_1  and  C2_2
REMARK    2  A    between atoms: C4_5  and  O4_29
REMARK    3  A    between atoms: C6_9  and  C13_18
REMARK    4  A    between atoms: C7_11  and  C12_17
REMARK    5  A    between atoms: C13_18  and  C14_19
REMARK    6  A    between atoms: C14_19  and  C15_20
REMARK    7  A    between atoms: C17_22  and  O3_28
REMARK    8  A    between atoms: O4_29  and  C20_30
REMARK    9  A    between atoms: C20_30  and  C21_31
REMARK                            x       y       z     vdW  Elec       q    Type
REMARK                         _______ _______ _______ _____ _____    ______ ____
ROOT
ATOM      1  C1  <0> A   1     -31.827  18.525  32.307  0.00  0.00    +0.028 C 
ATOM      2  C2  <0> A   1     -32.324  19.749  33.080  0.00  0.00    +0.020 C 
ATOM      3  C3  <0> A   1     -31.129  20.525  33.649  0.00  0.00    +0.009 C 
ATOM      4  C4  <0> A   1     -31.659  21.751  34.390  0.00  0.00    +0.153 C 
ATOM      5  C5  <0> A   1     -32.599  21.369  35.509  0.00  0.00    +0.039 C 
ATOM      6  C6  <0> A   1     -31.901  21.376  36.871  0.00  0.00    +0.012 C 
ATOM      7  C7  <0> A   1     -32.956  21.213  37.966  0.00  0.00    +0.017 C 
ATOM      8  C8  <0> A   1     -33.869  20.059  37.685  0.00  0.00    -0.033 C 
ATOM      9  C9  <0> A   1     -34.032  19.514  36.492  0.00  0.00    -0.011 C 
ATOM     10  C10 <0> A   1     -33.252  20.029  35.346  0.00  0.00    -0.085 C 
ATOM     11  C11 <0> A   1     -33.180  19.308  34.239  0.00  0.00    -0.032 C 
ATOM     12  C12 <0> A   1     -33.787  22.495  38.052  0.00  0.00    +0.028 C 
ENDROOT
BRANCH   6  13
ATOM     13  C13 <0> A   1     -31.160  22.701  37.061  0.00  0.00    +0.074 C 
BRANCH  13  14
ATOM     14  C14 <0> A   1     -30.161  22.566  38.212  0.00  0.00    +0.030 C 
BRANCH  14  15
ATOM     15  C15 <0> A   1     -29.810  23.955  38.748  0.00  0.00    +0.198 C 
ATOM     16  C16 <0> A   1     -31.024  24.546  39.472  0.00  0.00    +0.034 C 
ATOM     17  C17 <0> A   1     -30.682  25.954  39.971  0.00  0.00    +0.181 C 
ATOM     18  C18 <0> A   1     -30.303  26.828  38.768  0.00  0.00    +0.014 C 
ATOM     19  C19 <0> A   1     -29.237  26.105  37.973  0.00  0.00    +0.497 C 
ATOM     20  O1  <0> A   1     -28.227  26.672  37.630  0.00  0.00    -0.454 OA
ATOM     21  O2  <0> A   1     -29.447  24.810  37.658  0.00  0.00    -0.363 OA
BRANCH  17  22
ATOM     22  O3  <0> A   1     -29.582  25.885  40.881  0.00  0.00    -0.558 OA
ATOM     23  H27 <0> A   1     -28.764  26.270  40.537  0.00  0.00    +0.384 HD
ENDBRANCH  17  22
ENDBRANCH  14  15
ENDBRANCH  13  14
ENDBRANCH   6  13
BRANCH   4  24
ATOM     24  O4  <0> A   1     -30.557  22.476  34.938  0.00  0.00    -0.345 OA
BRANCH  24  25
ATOM     25  C20 <0> A   1     -30.269  23.698  34.256  0.00  0.00    +0.206 C 
BRANCH  25  26
ATOM     26  C21 <0> A   1     -28.785  23.804  34.019  0.00  0.00    -0.101 A 
ATOM     27  C22 <0> A   1     -27.932  24.050  35.078  0.00  0.00    +0.070 A 
ATOM     28  C23 <0> A   1     -26.570  24.146  34.862  0.00  0.00    -0.015 A 
ATOM     29  C24 <0> A   1     -26.061  23.997  33.583  0.00  0.00    +0.108 A 
ATOM     30  C25 <0> A   1     -26.916  23.750  32.523  0.00  0.00    -0.025 A 
ATOM     31  C26 <0> A   1     -28.276  23.650  32.743  0.00  0.00    +0.059 A 
ATOM     32  F1  <0> A   1     -24.729  24.091  33.372  0.00  0.00    -0.140 F 
ENDBRANCH  25  26
ENDBRANCH  24  25
ENDBRANCH   4  24
TORSDOF 7
