REMARK VINA RESULT:      -7.4     17.178     20.047
REMARK  Name = CHEMBL333760
REMARK  13 active torsions:
REMARK  status: ('A' for Active; 'I' for Inactive)
REMARK    1  A    between atoms: C1_1  and  C2_2
REMARK    2  A    between atoms: C2_2  and  C3_3
REMARK    3  A    between atoms: C2_2  and  C4_4
REMARK    4  A    between atoms: C5_6  and  C20_29
REMARK    5  A    between atoms: C6_7  and  C14_22
REMARK    6  A    between atoms: N2_8  and  C7_9
REMARK    7  A    between atoms: C8_10  and  C9_11
REMARK    8  A    between atoms: C9_11  and  C10_13
REMARK    9  A    between atoms: C9_11  and  O4_21
REMARK   10  A    between atoms: C10_13  and  C11_14
REMARK   11  A    between atoms: C11_14  and  C12_16
REMARK   12  A    between atoms: C11_14  and  O3_20
REMARK   13  A    between atoms: C12_16  and  C13_17
REMARK                            x       y       z     vdW  Elec       q    Type
REMARK                         _______ _______ _______ _____ _____    ______ ____
ROOT
ATOM      1  C4  <0> A   1     -27.734  -5.217  50.638  0.00  0.00    +0.236 C 
ATOM      2  N1  <0> A   1     -28.281  -4.039  50.521  0.00  0.00    -0.465 NA
ATOM      3  C5  <0> A   1     -27.376  -3.088  50.821  0.00  0.00    +0.059 C 
ATOM      4  C6  <0> A   1     -26.192  -3.726  51.143  0.00  0.00    +0.030 C 
ATOM      5  N2  <0> A   1     -26.439  -5.077  51.027  0.00  0.00    -0.400 N 
ENDROOT
BRANCH   4   6
ATOM      6  C14 <0> A   1     -24.920  -3.089  51.537  0.00  0.00    -0.032 A 
ATOM      7  C15 <0> A   1     -23.800  -3.186  50.707  0.00  0.00    +0.060 A 
ATOM      8  C16 <0> A   1     -22.615  -2.589  51.079  0.00  0.00    -0.007 A 
ATOM      9  C17 <0> A   1     -22.532  -1.895  52.277  0.00  0.00    +0.108 A 
ATOM     10  C18 <0> A   1     -23.638  -1.797  53.105  0.00  0.00    -0.010 A 
ATOM     11  C19 <0> A   1     -24.832  -2.384  52.740  0.00  0.00    +0.072 A 
ATOM     12  F1  <0> A   1     -21.368  -1.313  52.638  0.00  0.00    -0.136 F 
ENDBRANCH   4   6
BRANCH   3  13
ATOM     13  C20 <0> A   1     -27.606  -1.625  50.806  0.00  0.00    -0.009 A 
ATOM     14  C21 <0> A   1     -26.837  -0.804  49.980  0.00  0.00    +0.057 A 
ATOM     15  C22 <0> A   1     -27.056   0.557  49.970  0.00  0.00    -0.015 A 
ATOM     16  C23 <0> A   1     -28.036   1.111  50.777  0.00  0.00    +0.097 A 
ATOM     17  C24 <0> A   1     -28.802   0.300  51.599  0.00  0.00    -0.017 A 
ATOM     18  C25 <0> A   1     -28.596  -1.064  51.612  0.00  0.00    +0.073 A 
ATOM     19  F2  <0> A   1     -28.246   2.445  50.763  0.00  0.00    -0.141 F 
ENDBRANCH   3  13
BRANCH   1  21
ATOM     20  C1  <0> A   1     -29.097  -7.008  51.680  0.00  0.00    +0.048 C 
ATOM     21  C2  <0> A   1     -28.432  -6.529  50.387  0.00  0.00    +0.077 C 
ATOM     22  C3  <0> A   1     -29.497  -6.342  49.304  0.00  0.00    +0.048 C 
ENDBRANCH   1  21
BRANCH   5  23
ATOM     23  C7  <0> A   1     -25.530  -6.108  51.262  0.00  0.00    +0.181 C 
ATOM     24  C8  <0> A   1     -24.956  -6.726  50.249  0.00  0.00    -0.029 C 
BRANCH  24  25
ATOM     25  C9  <0> A   1     -23.973  -7.839  50.503  0.00  0.00    +0.265 C 
BRANCH  25  26
ATOM     26  O4  <0> A   1     -24.208  -8.395  51.798  0.00  0.00    -0.536 OA
ATOM     27  H17 <0> A   1     -24.098  -7.764  52.523  0.00  0.00    +0.367 HD
ENDBRANCH  25  26
BRANCH  25  28
ATOM     28  C10 <0> A   1     -24.150  -8.928  49.441  0.00  0.00    -0.037 C 
BRANCH  28  29
ATOM     29  C11 <0> A   1     -24.349 -10.280  50.127  0.00  0.00    +0.233 C 
BRANCH  29  30
ATOM     30  O3  <0> A   1     -25.747 -10.543  50.268  0.00  0.00    -0.527 OA
ATOM     31  H16 <0> A   1     -26.140 -10.160  51.065  0.00  0.00    +0.351 HD
ENDBRANCH  29  30
BRANCH  29  32
ATOM     32  C12 <0> A   1     -23.706 -11.381  49.280  0.00  0.00    -0.101 C 
BRANCH  32  33
ATOM     33  C13 <0> A   1     -24.767 -12.349  48.826  0.00  0.00    +0.491 C 
ATOM     34  O1  <0> A   1     -25.027 -13.332  49.501  0.00  0.00    -0.681 OA
ATOM     35  O2  <0> A   1     -25.368 -12.151  47.783  0.00  0.00    -0.712 OA
ENDBRANCH  32  33
ENDBRANCH  29  32
ENDBRANCH  28  29
ENDBRANCH  25  28
ENDBRANCH  24  25
ENDBRANCH   5  23
TORSDOF 11
