REMARK VINA RESULT:      -7.5      1.954      2.282
REMARK  Name = CHEMBL466326
REMARK  14 active torsions:
REMARK  status: ('A' for Active; 'I' for Inactive)
REMARK    1  A    between atoms: C1_1  and  C2_2
REMARK    2  A    between atoms: C2_2  and  C3_3
REMARK    3  A    between atoms: C2_2  and  C4_4
REMARK    4  A    between atoms: C5_5  and  C18_25
REMARK    5  A    between atoms: C6_6  and  C12_18
REMARK    6  A    between atoms: N3_10  and  C8_11
REMARK    7  A    between atoms: N6_16  and  C11_17
REMARK    8  A    between atoms: C19_26  and  C20_27
REMARK    9  A    between atoms: C20_27  and  C21_29
REMARK   10  A    between atoms: C20_27  and  O4_37
REMARK   11  A    between atoms: C21_29  and  C22_30
REMARK   12  A    between atoms: C22_30  and  C23_32
REMARK   13  A    between atoms: C22_30  and  O3_36
REMARK   14  A    between atoms: C23_32  and  C24_33
REMARK                            x       y       z     vdW  Elec       q    Type
REMARK                         _______ _______ _______ _____ _____    ______ ____
ROOT
ATOM      1  C4  <0> A   1     -15.723   6.791  46.467  0.00  0.00    +0.238 A 
ATOM      2  C5  <0> A   1     -15.092   8.028  46.630  0.00  0.00    -0.181 A 
ATOM      3  C6  <0> A   1     -15.519   8.858  47.686  0.00  0.00    +0.268 A 
ATOM      4  N1  <0> A   1     -16.500   8.434  48.479  0.00  0.00    -0.550 NA
ATOM      5  C7  <0> A   1     -17.066   7.255  48.283  0.00  0.00    +0.570 A 
ATOM      6  N2  <0> A   1     -16.694   6.450  47.297  0.00  0.00    -0.545 NA
ATOM      7  N3  <0> A   1     -18.084   6.850  49.131  0.00  0.00    -0.517 N 
ATOM      8  C8  <0> A   1     -18.727   5.548  48.935  0.00  0.00    +0.343 C 
ATOM      9  C9  <0> A   1     -18.495   7.676  50.164  0.00  0.00    +0.517 C 
ATOM     10  N4  <0> A   1     -19.503   8.522  50.126  0.00  0.00    -0.527 NA
ATOM     11  C10 <0> A   1     -19.607   9.149  51.298  0.00  0.00    +0.429 C 
ATOM     12  N5  <0> A   1     -18.672   8.717  52.100  0.00  0.00    -0.304 NA
ATOM     13  N6  <0> A   1     -17.937   7.753  51.391  0.00  0.00    -0.368 N 
ATOM     14  C11 <0> A   1     -16.789   6.987  51.882  0.00  0.00    +0.360 C 
ENDROOT
BRANCH   3  15
ATOM     15  C12 <0> A   1     -14.888  10.179  47.908  0.00  0.00    -0.075 A 
ATOM     16  C13 <0> A   1     -13.654  10.265  48.553  0.00  0.00    +0.098 A 
ATOM     17  C14 <0> A   1     -13.070  11.498  48.757  0.00  0.00    -0.015 A 
ATOM     18  C15 <0> A   1     -13.708  12.650  48.324  0.00  0.00    +0.122 A 
ATOM     19  C16 <0> A   1     -14.935  12.569  47.683  0.00  0.00    -0.024 A 
ATOM     20  C17 <0> A   1     -15.524  11.341  47.470  0.00  0.00    +0.091 A 
ATOM     21  F1  <0> A   1     -13.133  13.856  48.526  0.00  0.00    -0.135 F 
ENDBRANCH   3  15
BRANCH   1  23
ATOM     22  C1  <0> A   1     -14.868   4.521  45.950  0.00  0.00    +0.044 C 
ATOM     23  C2  <0> A   1     -15.308   5.861  45.356  0.00  0.00    +0.051 C 
ATOM     24  C3  <0> A   1     -16.489   5.636  44.410  0.00  0.00    +0.044 C 
ENDBRANCH   1  23
BRANCH   2  25
ATOM     25  C18 <0> A   1     -14.007   8.451  45.722  0.00  0.00    +0.012 C 
ATOM     26  C19 <0> A   1     -14.201   9.460  44.884  0.00  0.00    -0.036 C 
BRANCH  26  27
ATOM     27  C20 <0> A   1     -13.093   9.893  43.957  0.00  0.00    +0.252 C 
BRANCH  27  28
ATOM     28  O4  <0> A   1     -11.935   9.089  44.192  0.00  0.00    -0.537 OA
ATOM     29  H28 <0> A   1     -11.837   8.352  43.573  0.00  0.00    +0.366 HD
ENDBRANCH  27  28
BRANCH  27  30
ATOM     30  C21 <0> A   1     -13.548   9.724  42.507  0.00  0.00    -0.041 C 
BRANCH  30  31
ATOM     31  C22 <0> A   1     -13.002  10.879  41.664  0.00  0.00    +0.231 C 
BRANCH  31  32
ATOM     32  O3  <0> A   1     -11.630  10.634  41.351  0.00  0.00    -0.528 OA
ATOM     33  H27 <0> A   1     -11.029  10.753  42.099  0.00  0.00    +0.350 HD
ENDBRANCH  31  32
BRANCH  31  34
ATOM     34  C23 <0> A   1     -13.809  10.989  40.368  0.00  0.00    -0.102 C 
BRANCH  34  35
ATOM     35  C24 <0> A   1     -12.868  11.012  39.192  0.00  0.00    +0.491 C 
ATOM     36  O1  <0> A   1     -12.561   9.971  38.635  0.00  0.00    -0.681 OA
ATOM     37  O2  <0> A   1     -12.413  12.072  38.795  0.00  0.00    -0.713 OA
ENDBRANCH  34  35
ENDBRANCH  31  34
ENDBRANCH  30  31
ENDBRANCH  27  30
ENDBRANCH  26  27
ENDBRANCH   2  25
TORSDOF 10
