REMARK VINA RESULT:      -7.9     15.845     19.764
REMARK  Name = CHEMBL254036
REMARK  16 active torsions:
REMARK  status: ('A' for Active; 'I' for Inactive)
REMARK    1  A    between atoms: C1_1  and  C2_2
REMARK    2  A    between atoms: C2_2  and  C3_3
REMARK    3  A    between atoms: C2_2  and  C4_4
REMARK    4  A    between atoms: C5_5  and  C21_26
REMARK    5  A    between atoms: N2_7  and  C15_19
REMARK    6  A    between atoms: C6_8  and  C7_9
REMARK    7  A    between atoms: N3_11  and  C8_12
REMARK    8  A    between atoms: C8_12  and  C9_13
REMARK    9  A    between atoms: C21_26  and  C22_27
REMARK   10  A    between atoms: C22_27  and  C23_28
REMARK   11  A    between atoms: C23_28  and  C24_30
REMARK   12  A    between atoms: C23_28  and  O5_38
REMARK   13  A    between atoms: C24_30  and  C25_31
REMARK   14  A    between atoms: C25_31  and  C26_33
REMARK   15  A    between atoms: C25_31  and  O4_37
REMARK   16  A    between atoms: C26_33  and  C27_34
REMARK                            x       y       z     vdW  Elec       q    Type
REMARK                         _______ _______ _______ _____ _____    ______ ____
ROOT
ATOM      1  C4  <0> A   1     -26.291  -4.319  50.842  0.00  0.00    -0.123 C 
ATOM      2  C5  <0> A   1     -24.939  -3.985  50.943  0.00  0.00    +0.056 C 
ATOM      3  N1  <0> A   1     -24.239  -5.074  50.747  0.00  0.00    -0.273 NA
ATOM      4  N2  <0> A   1     -25.008  -6.080  50.528  0.00  0.00    -0.230 N 
ATOM      5  C6  <0> A   1     -26.315  -5.679  50.580  0.00  0.00    -0.035 C 
ENDROOT
BRANCH   4   6
ATOM      6  C15 <0> A   1     -24.574  -7.389  50.280  0.00  0.00    +0.120 A 
ATOM      7  C16 <0> A   1     -24.217  -8.215  51.337  0.00  0.00    +0.057 A 
ATOM      8  C17 <0> A   1     -23.789  -9.505  51.090  0.00  0.00    +0.015 A 
ATOM      9  C18 <0> A   1     -23.717  -9.974  49.788  0.00  0.00    +0.109 A 
ATOM     10  C19 <0> A   1     -24.072  -9.152  48.733  0.00  0.00    +0.012 A 
ATOM     11  C20 <0> A   1     -24.505  -7.862  48.976  0.00  0.00    +0.080 A 
ATOM     12  F1  <0> A   1     -23.297 -11.235  49.549  0.00  0.00    -0.132 F 
ENDBRANCH   4   6
BRANCH   5  13
ATOM     13  C7  <0> A   1     -27.505  -6.521  50.391  0.00  0.00    +0.602 C 
ATOM     14  O1  <0> A   1     -27.986  -6.655  49.282  0.00  0.00    -0.514 OA
ATOM     15  N3  <0> A   1     -28.065  -7.144  51.448  0.00  0.00    -0.713 N 
ATOM     16  H10 <0> A   1     -27.728  -6.979  52.343  0.00  0.00    +0.405 HD
BRANCH  15  17
ATOM     17  C8  <0> A   1     -29.181  -8.070  51.246  0.00  0.00    +0.324 C 
BRANCH  17  18
ATOM     18  C9  <0> A   1     -29.745  -8.477  52.583  0.00  0.00    -0.112 A 
ATOM     19  C10 <0> A   1     -30.016  -9.807  52.843  0.00  0.00    +0.027 A 
ATOM     20  C11 <0> A   1     -30.533 -10.181  54.069  0.00  0.00    +0.004 A 
ATOM     21  C12 <0> A   1     -30.779  -9.223  55.036  0.00  0.00    +0.014 A 
ATOM     22  C13 <0> A   1     -30.508  -7.893  54.775  0.00  0.00    +0.002 A 
ATOM     23  C14 <0> A   1     -29.986  -7.520  53.551  0.00  0.00    +0.024 A 
ENDBRANCH  17  18
ENDBRANCH  15  17
ENDBRANCH   5  13
BRANCH   1  25
ATOM     24  C1  <0> A   1     -27.421  -2.723  52.366  0.00  0.00    +0.023 C 
ATOM     25  C2  <0> A   1     -27.474  -3.397  50.994  0.00  0.00    +0.066 C 
ATOM     26  C3  <0> A   1     -27.432  -2.329  49.899  0.00  0.00    +0.030 C 
ENDBRANCH   1  25
BRANCH   2  27
ATOM     27  C21 <0> A   1     -24.383  -2.614  51.228  0.00  0.00    +0.141 C 
BRANCH  27  28
ATOM     28  C22 <0> A   1     -22.932  -2.541  50.747  0.00  0.00    -0.007 C 
BRANCH  28  29
ATOM     29  C23 <0> A   1     -22.026  -2.150  51.915  0.00  0.00    +0.212 C 
BRANCH  29  30
ATOM     30  O5  <0> A   1     -22.754  -2.258  53.140  0.00  0.00    -0.542 OA
ATOM     31  H31 <0> A   1     -23.110  -3.140  53.309  0.00  0.00    +0.364 HD
ENDBRANCH  29  30
BRANCH  29  32
ATOM     32  C24 <0> A   1     -20.816  -3.085  51.957  0.00  0.00    -0.052 C 
BRANCH  32  33
ATOM     33  C25 <0> A   1     -20.470  -3.406  53.413  0.00  0.00    +0.230 C 
BRANCH  33  34
ATOM     34  O4  <0> A   1     -20.970  -4.703  53.746  0.00  0.00    -0.528 OA
ATOM     35  H30 <0> A   1     -21.916  -4.720  53.946  0.00  0.00    +0.350 HD
ENDBRANCH  33  34
BRANCH  33  36
ATOM     36  C26 <0> A   1     -18.951  -3.383  53.593  0.00  0.00    -0.103 C 
BRANCH  36  37
ATOM     37  C27 <0> A   1     -18.487  -4.714  54.125  0.00  0.00    +0.490 C 
ATOM     38  O2  <0> A   1     -18.233  -5.623  53.353  0.00  0.00    -0.681 OA
ATOM     39  O3  <0> A   1     -18.367  -4.883  55.326  0.00  0.00    -0.714 OA
ENDBRANCH  36  37
ENDBRANCH  33  36
ENDBRANCH  32  33
ENDBRANCH  29  32
ENDBRANCH  28  29
ENDBRANCH  27  28
ENDBRANCH   2  27
TORSDOF 14
