REMARK VINA RESULT:      -7.9      5.339      8.503
REMARK  Name = CHEMBL1164546
REMARK  16 active torsions:
REMARK  status: ('A' for Active; 'I' for Inactive)
REMARK    1  A    between atoms: C1_1  and  C2_2
REMARK    2  A    between atoms: C2_2  and  C3_4
REMARK    3  A    between atoms: C2_2  and  O8_43
REMARK    4  A    between atoms: C3_4  and  C4_6
REMARK    5  A    between atoms: C3_4  and  N3_17
REMARK    6  A    between atoms: N1_8  and  C5_9
REMARK    7  A    between atoms: C5_9  and  C6_10
REMARK    8  A    between atoms: N2_12  and  C7_13
REMARK    9  A    between atoms: C7_13  and  C8_14
REMARK   10  A    between atoms: C9_18  and  C10_20
REMARK   11  A    between atoms: C14_26  and  C15_28
REMARK   12  A    between atoms: C15_28  and  C16_30
REMARK   13  A    between atoms: C15_28  and  N5_38
REMARK   14  A    between atoms: C16_30  and  C17_31
REMARK   15  A    between atoms: C23_39  and  C24_41
REMARK   16  A    between atoms: C24_41  and  N6_42
REMARK                            x       y       z     vdW  Elec       q    Type
REMARK                         _______ _______ _______ _____ _____    ______ ____
ROOT
ATOM      1  C10 <0> A   1     -14.604   9.973  48.801  0.00  0.00    +0.228 C 
ATOM      2  C11 <0> A   1     -13.535   9.765  49.893  0.00  0.00    +0.059 C 
ATOM      3  C12 <0> A   1     -14.106   8.581  50.718  0.00  0.00    +0.049 C 
ATOM      4  C13 <0> A   1     -14.780   7.729  49.614  0.00  0.00    +0.252 C 
ATOM      5  N4  <0> A   1     -15.354   8.715  48.673  0.00  0.00    -0.598 N 
ATOM      6  C14 <0> A   1     -16.390   8.499  47.838  0.00  0.00    +0.531 C 
ATOM      7  O6  <0> A   1     -16.775   9.387  47.108  0.00  0.00    -0.504 OA
ENDROOT
BRANCH   1   9
ATOM      8  N3  <0> A   1     -13.011   9.481  46.974  0.00  0.00    -0.711 N 
ATOM      9  C9  <0> A   1     -13.940  10.309  47.491  0.00  0.00    +0.510 C 
ATOM     10  O5  <0> A   1     -14.242  11.325  46.902  0.00  0.00    -0.511 OA
ATOM     11  H14 <0> A   1     -12.769   8.669  47.445  0.00  0.00    +0.411 HD
BRANCH   8  12
ATOM     12  C3  <0> A   1     -12.366   9.808  45.700  0.00  0.00    +0.221 C 
BRANCH  12  13
ATOM     13  C4  <0> A   1     -12.581   8.679  44.724  0.00  0.00    +0.521 C 
ATOM     14  O1  <0> A   1     -13.514   7.919  44.873  0.00  0.00    -0.537 OA
ATOM     15  N1  <0> A   1     -11.736   8.515  43.686  0.00  0.00    -0.702 N 
ATOM     16  H8  <0> A   1     -10.989   9.124  43.569  0.00  0.00    +0.412 HD
BRANCH  15  17
ATOM     17  C5  <0> A   1     -11.945   7.418  42.738  0.00  0.00    +0.304 C 
BRANCH  17  18
ATOM     18  C6  <0> A   1     -12.719   7.925  41.548  0.00  0.00    +0.497 C 
ATOM     19  O2  <0> A   1     -13.615   7.256  41.078  0.00  0.00    -0.561 OA
ATOM     20  N2  <0> A   1     -12.415   9.121  41.006  0.00  0.00    -0.688 N 
ATOM     21  H11 <0> A   1     -11.699   9.656  41.383  0.00  0.00    +0.412 HD
BRANCH  20  22
ATOM     22  C7  <0> A   1     -13.166   9.613  39.849  0.00  0.00    +0.187 C 
BRANCH  22  23
ATOM     23  C8  <0> A   1     -13.179  11.120  39.862  0.00  0.00    +0.489 C 
ATOM     24  O3  <0> A   1     -13.477  11.735  38.852  0.00  0.00    -0.690 OA
ATOM     25  O4  <0> A   1     -12.890  11.724  40.880  0.00  0.00    -0.684 OA
ENDBRANCH  22  23
ENDBRANCH  20  22
ENDBRANCH  17  18
ENDBRANCH  15  17
ENDBRANCH  12  13
BRANCH  12  27
ATOM     26  C1  <0> A   1     -10.649  10.998  47.071  0.00  0.00    +0.025 C 
ATOM     27  C2  <0> A   1     -10.865  10.009  45.924  0.00  0.00    +0.208 C 
BRANCH  27  28
ATOM     28  O8  <0> A   1     -10.261   8.756  46.256  0.00  0.00    -0.549 OA
ATOM     29  H32 <0> A   1      -9.494   8.534  45.711  0.00  0.00    +0.371 HD
ENDBRANCH  27  28
ENDBRANCH  12  27
ENDBRANCH   8  12
ENDBRANCH   1   9
BRANCH   6  30
ATOM     30  C15 <0> A   1     -17.067   7.154  47.812  0.00  0.00    +0.266 C 
BRANCH  30  31
ATOM     31  N5  <0> A   1     -18.236   7.178  48.696  0.00  0.00    -0.695 N 
ATOM     32  C23 <0> A   1     -18.465   6.152  49.539  0.00  0.00    +0.496 C 
ATOM     33  O7  <0> A   1     -17.704   5.208  49.566  0.00  0.00    -0.484 OA
ATOM     34  H27 <0> A   1     -18.844   7.934  48.675  0.00  0.00    +0.414 HD
BRANCH  32  35
ATOM     35  C24 <0> A   1     -19.667   6.178  50.448  0.00  0.00    +0.294 C 
BRANCH  35  36
ATOM     36  N6  <0> A   1     -20.470   7.374  50.164  0.00  0.00    -0.621 N 
ATOM     37  H30 <0> A   1     -21.434   7.108  50.028  0.00  0.00    +0.444 HD
ATOM     38  H31 <0> A   1     -20.404   8.016  50.940  0.00  0.00    +0.445 HD
ATOM     39  H33 <0> A   1     -20.124   7.822  49.328  0.00  0.00    +0.441 HD
ENDBRANCH  35  36
ENDBRANCH  32  35
ENDBRANCH  30  31
BRANCH  30  40
ATOM     40  C16 <0> A   1     -17.516   6.836  46.384  0.00  0.00    +0.110 C 
BRANCH  40  41
ATOM     41  C17 <0> A   1     -16.515   5.917  45.735  0.00  0.00    -0.095 A 
ATOM     42  C18 <0> A   1     -15.684   5.137  46.519  0.00  0.00    +0.053 A 
ATOM     43  C19 <0> A   1     -14.765   4.293  45.924  0.00  0.00    -0.003 A 
ATOM     44  C20 <0> A   1     -14.676   4.229  44.544  0.00  0.00    +0.103 A 
ATOM     45  C21 <0> A   1     -15.508   5.009  43.761  0.00  0.00    -0.018 A 
ATOM     46  C22 <0> A   1     -16.430   5.849  44.357  0.00  0.00    +0.031 A 
ATOM     47  F1  <0> A   1     -13.777   3.404  43.963  0.00  0.00    -0.135 F 
ENDBRANCH  40  41
ENDBRANCH  30  40
ENDBRANCH   6  30
TORSDOF 15
