REMARK VINA RESULT:      -7.0     17.429     20.687
REMARK  Name = CHEMBL331680
REMARK  15 active torsions:
REMARK  status: ('A' for Active; 'I' for Inactive)
REMARK    1  A    between atoms: C1_1  and  C2_2
REMARK    2  A    between atoms: C2_2  and  C3_3
REMARK    3  A    between atoms: C2_2  and  C4_4
REMARK    4  A    between atoms: C6_6  and  C22_30
REMARK    5  A    between atoms: C7_7  and  C16_23
REMARK    6  A    between atoms: N1_8  and  C8_9
REMARK    7  A    between atoms: C9_10  and  C10_11
REMARK    8  A    between atoms: C10_11  and  C11_13
REMARK    9  A    between atoms: C10_11  and  O4_22
REMARK   10  A    between atoms: C11_13  and  C12_14
REMARK   11  A    between atoms: C12_14  and  C13_16
REMARK   12  A    between atoms: C12_14  and  O3_21
REMARK   13  A    between atoms: C13_16  and  C14_17
REMARK   14  A    between atoms: C14_17  and  O2_19
REMARK   15  A    between atoms: O2_19  and  C15_20
REMARK                            x       y       z     vdW  Elec       q    Type
REMARK                         _______ _______ _______ _____ _____    ______ ____
ROOT
ATOM      1  C4  <0> A   1     -24.247  -2.667  51.922  0.00  0.00    +0.038 C 
ATOM      2  C5  <0> A   1     -24.767  -1.426  51.959  0.00  0.00    -0.017 C 
ATOM      3  C6  <0> A   1     -26.168  -1.540  51.789  0.00  0.00    -0.114 C 
ATOM      4  C7  <0> A   1     -26.448  -2.891  51.653  0.00  0.00    +0.101 C 
ATOM      5  N1  <0> A   1     -25.257  -3.568  51.730  0.00  0.00    -0.391 N 
ENDROOT
BRANCH   4   6
ATOM      6  C16 <0> A   1     -27.782  -3.490  51.454  0.00  0.00    -0.037 A 
ATOM      7  C17 <0> A   1     -28.532  -3.912  52.554  0.00  0.00    +0.053 A 
ATOM      8  C18 <0> A   1     -29.778  -4.471  52.362  0.00  0.00    -0.029 A 
ATOM      9  C19 <0> A   1     -30.286  -4.615  51.081  0.00  0.00    +0.108 A 
ATOM     10  C20 <0> A   1     -29.545  -4.198  49.985  0.00  0.00    -0.031 A 
ATOM     11  C21 <0> A   1     -28.301  -3.633  50.166  0.00  0.00    +0.129 A 
ATOM     12  F1  <0> A   1     -31.507  -5.164  50.899  0.00  0.00    -0.141 F 
ENDBRANCH   4   6
BRANCH   3  13
ATOM     13  C22 <0> A   1     -27.147  -0.430  51.763  0.00  0.00    +0.208 A 
ATOM     14  C23 <0> A   1     -27.276   0.352  50.614  0.00  0.00    -0.030 A 
ATOM     15  C24 <0> A   1     -28.195   1.385  50.606  0.00  0.00    +0.064 A 
ATOM     16  C25 <0> A   1     -28.956   1.606  51.745  0.00  0.00    -0.052 A 
ATOM     17  C26 <0> A   1     -28.777   0.794  52.849  0.00  0.00    +0.258 A 
ATOM     18  N2  <0> A   1     -27.898  -0.189  52.830  0.00  0.00    -0.481 NA
ENDBRANCH   3  13
BRANCH   1  20
ATOM     19  C1  <0> A   1     -22.052  -2.650  50.769  0.00  0.00    +0.041 C 
ATOM     20  C2  <0> A   1     -22.786  -3.009  52.062  0.00  0.00    +0.051 C 
ATOM     21  C3  <0> A   1     -22.187  -2.216  53.225  0.00  0.00    +0.033 C 
ENDBRANCH   1  20
BRANCH   5  22
ATOM     22  C8  <0> A   1     -25.103  -4.950  51.634  0.00  0.00    +0.201 C 
ATOM     23  C9  <0> A   1     -25.071  -5.529  50.449  0.00  0.00    -0.054 C 
BRANCH  23  24
ATOM     24  C10 <0> A   1     -24.905  -7.023  50.345  0.00  0.00    +0.268 C 
BRANCH  24  25
ATOM     25  O4  <0> A   1     -23.832  -7.322  49.449  0.00  0.00    -0.538 OA
ATOM     26  H21 <0> A   1     -23.023  -6.821  49.623  0.00  0.00    +0.370 HD
ENDBRANCH  24  25
BRANCH  24  27
ATOM     27  C11 <0> A   1     -24.590  -7.599  51.727  0.00  0.00    -0.015 C 
BRANCH  27  28
ATOM     28  C12 <0> A   1     -23.591  -8.749  51.587  0.00  0.00    +0.233 C 
BRANCH  28  29
ATOM     29  O3  <0> A   1     -22.627  -8.672  52.638  0.00  0.00    -0.530 OA
ATOM     30  H20 <0> A   1     -22.552  -7.796  53.041  0.00  0.00    +0.366 HD
ENDBRANCH  28  29
BRANCH  28  31
ATOM     31  C13 <0> A   1     -24.334 -10.083  51.672  0.00  0.00    +0.073 C 
BRANCH  31  32
ATOM     32  C14 <0> A   1     -24.587 -10.607  50.281  0.00  0.00    +0.456 C 
ATOM     33  O1  <0> A   1     -25.691 -10.529  49.798  0.00  0.00    -0.486 OA
BRANCH  32  34
ATOM     34  O2  <0> A   1     -23.584 -11.159  49.581  0.00  0.00    -0.359 OA
ATOM     35  C15 <0> A   1     -23.946 -12.040  48.515  0.00  0.00    +0.258 C 
ENDBRANCH  32  34
ENDBRANCH  31  32
ENDBRANCH  28  31
ENDBRANCH  27  28
ENDBRANCH  24  27
ENDBRANCH  23  24
ENDBRANCH   5  22
TORSDOF 12
