REMARK VINA RESULT:      -7.3     10.317     13.178
REMARK  Name = CHEMBL100165
REMARK  16 active torsions:
REMARK  status: ('A' for Active; 'I' for Inactive)
REMARK    1  A    between atoms: C1_1  and  C2_2
REMARK    2  A    between atoms: C2_2  and  C3_3
REMARK    3  A    between atoms: C2_2  and  C4_4
REMARK    4  A    between atoms: C6_6  and  C19_25
REMARK    5  A    between atoms: C7_7  and  O1_13
REMARK    6  A    between atoms: C8_8  and  C10_10
REMARK    7  A    between atoms: C10_10  and  C11_11
REMARK    8  A    between atoms: C10_10  and  C12_12
REMARK    9  A    between atoms: O1_13  and  C13_14
REMARK   10  A    between atoms: C13_14  and  C14_15
REMARK   11  A    between atoms: C14_15  and  C15_16
REMARK   12  A    between atoms: C14_15  and  O5_24
REMARK   13  A    between atoms: C15_16  and  C16_17
REMARK   14  A    between atoms: C16_17  and  C17_19
REMARK   15  A    between atoms: C16_17  and  O4_23
REMARK   16  A    between atoms: C17_19  and  C18_20
REMARK                            x       y       z     vdW  Elec       q    Type
REMARK                         _______ _______ _______ _____ _____    ______ ____
ROOT
ATOM      1  C4  <0> A   1      -2.763   3.393  45.045  0.00  0.00    -0.081 A 
ATOM      2  C5  <0> A   1      -2.444   4.371  45.966  0.00  0.00    +0.032 A 
ATOM      3  C6  <0> A   1      -3.442   4.926  46.764  0.00  0.00    -0.063 A 
ATOM      4  C7  <0> A   1      -4.762   4.488  46.627  0.00  0.00    +0.109 A 
ATOM      5  C8  <0> A   1      -5.069   3.505  45.700  0.00  0.00    -0.085 A 
ATOM      6  C9  <0> A   1      -4.071   2.966  44.908  0.00  0.00    +0.026 A 
ENDROOT
BRANCH   3   7
ATOM      7  C19 <0> A   1      -3.105   5.977  47.755  0.00  0.00    -0.056 A 
ATOM      8  C20 <0> A   1      -2.680   5.620  49.033  0.00  0.00    +0.079 A 
ATOM      9  C21 <0> A   1      -2.367   6.600  49.953  0.00  0.00    -0.014 A 
ATOM     10  C22 <0> A   1      -2.474   7.937  49.607  0.00  0.00    +0.102 A 
ATOM     11  C23 <0> A   1      -2.897   8.296  48.337  0.00  0.00    -0.020 A 
ATOM     12  C24 <0> A   1      -3.206   7.323  47.410  0.00  0.00    +0.050 A 
ATOM     13  F1  <0> A   1      -2.167   8.894  50.510  0.00  0.00    -0.139 F 
ENDBRANCH   3   7
BRANCH   1  15
ATOM     14  C1  <0> A   1      -1.906   3.205  42.726  0.00  0.00    +0.026 C 
ATOM     15  C2  <0> A   1      -1.683   2.793  44.183  0.00  0.00    +0.023 C 
ATOM     16  C3  <0> A   1      -0.317   3.298  44.651  0.00  0.00    +0.025 C 
ENDBRANCH   1  15
BRANCH   5  17
ATOM     17  C10 <0> A   1      -6.490   3.030  45.548  0.00  0.00    +0.032 C 
ATOM     18  C11 <0> A   1      -7.238   3.953  44.584  0.00  0.00    +0.028 C 
ATOM     19  C12 <0> A   1      -6.493   1.603  44.994  0.00  0.00    +0.024 C 
ENDBRANCH   5  17
BRANCH   4  20
ATOM     20  O1  <0> A   1      -5.742   5.023  47.401  0.00  0.00    -0.316 OA
BRANCH  20  21
ATOM     21  C13 <0> A   1      -6.532   4.113  48.168  0.00  0.00    +0.149 C 
BRANCH  21  22
ATOM     22  C14 <0> A   1      -5.792   3.758  49.460  0.00  0.00    +0.225 C 
BRANCH  22  23
ATOM     23  O5  <0> A   1      -5.862   4.860  50.367  0.00  0.00    -0.531 OA
ATOM     24  H26 <0> A   1      -6.332   5.630  50.015  0.00  0.00    +0.362 HD
ENDBRANCH  22  23
BRANCH  22  25
ATOM     25  C15 <0> A   1      -6.441   2.529  50.099  0.00  0.00    -0.043 C 
BRANCH  25  26
ATOM     26  C16 <0> A   1      -5.485   1.922  51.126  0.00  0.00    +0.235 C 
BRANCH  26  27
ATOM     27  O4  <0> A   1      -4.292   2.707  51.188  0.00  0.00    -0.526 OA
ATOM     28  H25 <0> A   1      -4.411   3.626  50.909  0.00  0.00    +0.350 HD
ENDBRANCH  26  27
BRANCH  26  29
ATOM     29  C17 <0> A   1      -6.156   1.907  52.502  0.00  0.00    -0.101 C 
BRANCH  29  30
ATOM     30  C18 <0> A   1      -5.543   2.975  53.371  0.00  0.00    +0.491 C 
ATOM     31  O2  <0> A   1      -5.902   4.134  53.259  0.00  0.00    -0.680 OA
ATOM     32  O3  <0> A   1      -4.686   2.678  54.188  0.00  0.00    -0.713 OA
ENDBRANCH  29  30
ENDBRANCH  26  29
ENDBRANCH  25  26
ENDBRANCH  22  25
ENDBRANCH  21  22
ENDBRANCH  20  21
ENDBRANCH   4  20
TORSDOF 12
