REMARK VINA RESULT:      -7.5     13.961     17.544
REMARK  Name = CHEMBL143347
REMARK  12 active torsions:
REMARK  status: ('A' for Active; 'I' for Inactive)
REMARK    1  A    between atoms: C1_1  and  C2_2
REMARK    2  A    between atoms: C2_2  and  C3_3
REMARK    3  A    between atoms: C2_2  and  C4_4
REMARK    4  A    between atoms: C5_5  and  C19_22
REMARK    5  A    between atoms: C6_6  and  C13_15
REMARK    6  A    between atoms: C20_23  and  C21_24
REMARK    7  A    between atoms: C21_24  and  C22_25
REMARK    8  A    between atoms: C21_24  and  O4_33
REMARK    9  A    between atoms: C22_25  and  C23_26
REMARK   10  A    between atoms: C23_26  and  C24_28
REMARK   11  A    between atoms: C23_26  and  O3_32
REMARK   12  A    between atoms: C24_28  and  C25_29
REMARK                            x       y       z     vdW  Elec       q    Type
REMARK                         _______ _______ _______ _____ _____    ______ ____
ROOT
ATOM      1  C4  <0> A   1     -24.161   1.150  51.573  0.00  0.00    +0.189 A 
ATOM      2  C5  <0> A   1     -24.750  -0.108  51.378  0.00  0.00    -0.076 A 
ATOM      3  C6  <0> A   1     -26.147  -0.218  51.373  0.00  0.00    +0.019 A 
ATOM      4  C7  <0> A   1     -26.903   0.965  51.567  0.00  0.00    -0.082 A 
ATOM      5  C8  <0> A   1     -28.304   0.940  51.575  0.00  0.00    +0.058 A 
ATOM      6  C9  <0> A   1     -28.998   2.098  51.766  0.00  0.00    -0.033 A 
ATOM      7  C10 <0> A   1     -28.329   3.308  51.951  0.00  0.00    +0.042 A 
ATOM      8  C11 <0> A   1     -26.970   3.366  51.947  0.00  0.00    +0.070 A 
ATOM      9  C12 <0> A   1     -26.221   2.192  51.756  0.00  0.00    +0.134 A 
ATOM     10  N1  <0> A   1     -24.882   2.227  51.756  0.00  0.00    -0.465 NA
ATOM     11 Cl1  <0> A   1     -30.734   2.066  51.775  0.00  0.00    -0.066 Cl
ENDROOT
BRANCH   3  12
ATOM     12  C13 <0> A   1     -26.811  -1.524  51.170  0.00  0.00    -0.064 A 
ATOM     13  C14 <0> A   1     -27.096  -2.341  52.265  0.00  0.00    +0.073 A 
ATOM     14  C15 <0> A   1     -27.715  -3.558  52.072  0.00  0.00    -0.006 A 
ATOM     15  C16 <0> A   1     -28.054  -3.970  50.792  0.00  0.00    +0.110 A 
ATOM     16  C17 <0> A   1     -27.772  -3.163  49.701  0.00  0.00    -0.011 A 
ATOM     17  C18 <0> A   1     -27.159  -1.941  49.884  0.00  0.00    +0.062 A 
ATOM     18  F1  <0> A   1     -28.661  -5.164  50.607  0.00  0.00    -0.136 F 
ENDBRANCH   3  12
BRANCH   1  20
ATOM     19  C1  <0> A   1     -22.232   2.433  50.686  0.00  0.00    +0.041 C 
ATOM     20  C2  <0> A   1     -22.658   1.265  51.578  0.00  0.00    +0.039 C 
ATOM     21  C3  <0> A   1     -22.170   1.510  53.008  0.00  0.00    +0.040 C 
ENDBRANCH   1  20
BRANCH   2  22
ATOM     22  C19 <0> A   1     -23.907  -1.304  51.181  0.00  0.00    +0.010 C 
ATOM     23  C20 <0> A   1     -23.508  -2.014  52.229  0.00  0.00    -0.037 C 
BRANCH  23  24
ATOM     24  C21 <0> A   1     -22.647  -3.234  52.027  0.00  0.00    +0.252 C 
BRANCH  24  25
ATOM     25  O4  <0> A   1     -22.845  -3.745  50.707  0.00  0.00    -0.536 OA
ATOM     26  H24 <0> A   1     -23.680  -4.218  50.589  0.00  0.00    +0.366 HD
ENDBRANCH  24  25
BRANCH  24  27
ATOM     27  C22 <0> A   1     -21.176  -2.857  52.213  0.00  0.00    -0.041 C 
BRANCH  27  28
ATOM     28  C23 <0> A   1     -20.656  -3.460  53.519  0.00  0.00    +0.232 C 
BRANCH  28  29
ATOM     29  O3  <0> A   1     -21.094  -4.817  53.625  0.00  0.00    -0.527 OA
ATOM     30  H23 <0> A   1     -20.575  -5.439  53.099  0.00  0.00    +0.350 HD
ENDBRANCH  28  29
BRANCH  28  31
ATOM     31  C24 <0> A   1     -19.126  -3.417  53.528  0.00  0.00    -0.102 C 
BRANCH  31  32
ATOM     32  C25 <0> A   1     -18.590  -4.702  54.102  0.00  0.00    +0.490 C 
ATOM     33  O1  <0> A   1     -18.507  -4.842  55.310  0.00  0.00    -0.681 OA
ATOM     34  O2  <0> A   1     -18.241  -5.603  53.357  0.00  0.00    -0.713 OA
ENDBRANCH  31  32
ENDBRANCH  28  31
ENDBRANCH  27  28
ENDBRANCH  24  27
ENDBRANCH  23  24
ENDBRANCH   2  22
TORSDOF 10
