REMARK  Name = CHEMBL333760
REMARK  13 active torsions:
REMARK  status: ('A' for Active; 'I' for Inactive)
REMARK    1  A    between atoms: C1_1  and  C2_2
REMARK    2  A    between atoms: C2_2  and  C3_3
REMARK    3  A    between atoms: C2_2  and  C4_4
REMARK    4  A    between atoms: C5_6  and  C20_29
REMARK    5  A    between atoms: C6_7  and  C14_22
REMARK    6  A    between atoms: N2_8  and  C7_9
REMARK    7  A    between atoms: C8_10  and  C9_11
REMARK    8  A    between atoms: C9_11  and  C10_13
REMARK    9  A    between atoms: C9_11  and  O4_21
REMARK   10  A    between atoms: C10_13  and  C11_14
REMARK   11  A    between atoms: C11_14  and  C12_16
REMARK   12  A    between atoms: C11_14  and  O3_20
REMARK   13  A    between atoms: C12_16  and  C13_17
REMARK                            x       y       z     vdW  Elec       q    Type
REMARK                         _______ _______ _______ _____ _____    ______ ____
ROOT
ATOM      1  C4  <0> A   1      -1.412  -0.526   0.013  0.00  0.00    +0.236 C 
ATOM      2  N1  <0> A   1      -2.296  -0.288   0.941  0.00  0.00    -0.465 NA
ATOM      3  C5  <0> A   1      -3.452  -0.906   0.635  0.00  0.00    +0.059 C 
ATOM      4  C6  <0> A   1      -3.265  -1.570  -0.564  0.00  0.00    +0.030 C 
ATOM      5  N2  <0> A   1      -1.966  -1.313  -0.947  0.00  0.00    -0.400 N 
ENDROOT
BRANCH   4   6
ATOM      6  C14 <0> A   1      -4.258  -2.386  -1.290  0.00  0.00    -0.032 A 
ATOM      7  C15 <0> A   1      -4.410  -2.241  -2.671  0.00  0.00    +0.060 A 
ATOM      8  C16 <0> A   1      -5.339  -3.006  -3.344  0.00  0.00    -0.007 A 
ATOM      9  C17 <0> A   1      -6.123  -3.916  -2.652  0.00  0.00    +0.108 A 
ATOM     10  C18 <0> A   1      -5.978  -4.063  -1.282  0.00  0.00    -0.010 A 
ATOM     11  C19 <0> A   1      -5.047  -3.309  -0.599  0.00  0.00    +0.072 A 
ATOM     12  F1  <0> A   1      -7.033  -4.662  -3.316  0.00  0.00    -0.136 F 
ENDBRANCH   4   6
BRANCH   3  13
ATOM     13  C20 <0> A   1      -4.697  -0.881   1.437  0.00  0.00    -0.009 A 
ATOM     14  C21 <0> A   1      -5.939  -0.888   0.801  0.00  0.00    +0.057 A 
ATOM     15  C22 <0> A   1      -7.095  -0.865   1.553  0.00  0.00    -0.015 A 
ATOM     16  C23 <0> A   1      -7.025  -0.835   2.936  0.00  0.00    +0.097 A 
ATOM     17  C24 <0> A   1      -5.794  -0.827   3.572  0.00  0.00    -0.017 A 
ATOM     18  C25 <0> A   1      -4.632  -0.857   2.830  0.00  0.00    +0.073 A 
ATOM     19  F2  <0> A   1      -8.161  -0.812   3.667  0.00  0.00    -0.141 F 
ENDBRANCH   3  13
BRANCH   1  21
ATOM     20  C1  <0> A   1      -0.019   1.526   0.010  0.00  0.00    +0.048 C 
ATOM     21  C2  <0> A   1       0.002  -0.004   0.002  0.00  0.00    +0.077 C 
ATOM     22  C3  <0> A   1       0.742  -0.511   1.242  0.00  0.00    +0.048 C 
ENDBRANCH   1  21
BRANCH   5  23
ATOM     23  C7  <0> A   1      -1.337  -1.777  -2.102  0.00  0.00    +0.181 C 
ATOM     24  C8  <0> A   1      -1.389  -3.057  -2.413  0.00  0.00    -0.029 C 
BRANCH  24  25
ATOM     25  C9  <0> A   1      -0.710  -3.558  -3.661  0.00  0.00    +0.265 C 
BRANCH  25  26
ATOM     26  O4  <0> A   1       0.015  -2.488  -4.271  0.00  0.00    -0.536 OA
ATOM     27  H17 <0> A   1       0.701  -2.106  -3.707  0.00  0.00    +0.367 HD
ENDBRANCH  25  26
BRANCH  25  28
ATOM     28  C10 <0> A   1       0.258  -4.687  -3.297  0.00  0.00    -0.037 C 
BRANCH  28  29
ATOM     29  C11 <0> A   1       0.854  -5.279  -4.575  0.00  0.00    +0.233 C 
BRANCH  29  30
ATOM     30  O3  <0> A   1       1.654  -4.292  -5.230  0.00  0.00    -0.527 OA
ATOM     31  H16 <0> A   1       2.391  -3.966  -4.695  0.00  0.00    +0.351 HD
ENDBRANCH  29  30
BRANCH  29  32
ATOM     32  C12 <0> A   1       1.724  -6.487  -4.220  0.00  0.00    -0.101 C 
BRANCH  32  33
ATOM     33  C13 <0> A   1       2.212  -7.144  -5.485  0.00  0.00    +0.491 C 
ATOM     34  O1  <0> A   1       1.894  -6.688  -6.571  0.00  0.00    -0.681 OA
ATOM     35  O2  <0> A   1       2.925  -8.131  -5.424  0.00  0.00    -0.712 OA
ENDBRANCH  32  33
ENDBRANCH  29  32
ENDBRANCH  28  29
ENDBRANCH  25  28
ENDBRANCH  24  25
ENDBRANCH   5  23
TORSDOF 11
