REMARK VINA RESULT:      -7.8      8.952     12.418
REMARK  Name = CHEMBL398523
REMARK  15 active torsions:
REMARK  status: ('A' for Active; 'I' for Inactive)
REMARK    1  A    between atoms: C1_1  and  C2_2
REMARK    2  A    between atoms: C2_2  and  C3_3
REMARK    3  A    between atoms: C2_2  and  C4_4
REMARK    4  A    between atoms: C5_5  and  C25_30
REMARK    5  A    between atoms: N1_6  and  C19_23
REMARK    6  A    between atoms: C6_8  and  C7_9
REMARK    7  A    between atoms: C12_16  and  C13_17
REMARK    8  A    between atoms: C25_30  and  C26_31
REMARK    9  A    between atoms: C26_31  and  C27_32
REMARK   10  A    between atoms: C27_32  and  C28_34
REMARK   11  A    between atoms: C27_32  and  O5_42
REMARK   12  A    between atoms: C28_34  and  C29_35
REMARK   13  A    between atoms: C29_35  and  C30_37
REMARK   14  A    between atoms: C29_35  and  O4_41
REMARK   15  A    between atoms: C30_37  and  C31_38
REMARK                            x       y       z     vdW  Elec       q    Type
REMARK                         _______ _______ _______ _____ _____    ______ ____
ROOT
ATOM      1  C4  <0> A   1     -27.761  -7.368  50.695  0.00  0.00    -0.123 C 
ATOM      2  C5  <0> A   1     -26.652  -7.849  50.087  0.00  0.00    +0.031 C 
ATOM      3  N1  <0> A   1     -26.728  -9.205  50.131  0.00  0.00    -0.236 N 
ATOM      4  N2  <0> A   1     -27.809  -9.567  50.723  0.00  0.00    -0.263 NA
ATOM      5  C6  <0> A   1     -28.494  -8.507  51.105  0.00  0.00    +0.002 C 
ENDROOT
BRANCH   5   6
ATOM      6  C7  <0> A   1     -29.785  -8.508  51.822  0.00  0.00    +0.594 C 
ATOM      7  O1  <0> A   1     -29.818  -8.282  53.015  0.00  0.00    -0.481 OA
ATOM      8  N3  <0> A   1     -30.927  -8.759  51.152  0.00  0.00    -0.597 N 
ATOM      9  C8  <0> A   1     -30.893  -9.169  49.742  0.00  0.00    +0.274 C 
ATOM     10  C9  <0> A   1     -31.796  -8.232  48.933  0.00  0.00    +0.009 C 
ATOM     11  C10 <0> A   1     -33.197  -8.222  49.552  0.00  0.00    +0.009 C 
ATOM     12  C11 <0> A   1     -33.119  -7.700  50.987  0.00  0.00    +0.021 C 
ATOM     13  C12 <0> A   1     -32.230  -8.636  51.820  0.00  0.00    +0.268 C 
BRANCH  13  14
ATOM     14  C13 <0> A   1     -32.037  -8.059  53.199  0.00  0.00    -0.055 A 
ATOM     15  C14 <0> A   1     -31.933  -6.691  53.368  0.00  0.00    +0.040 A 
ATOM     16  C15 <0> A   1     -31.757  -6.162  54.633  0.00  0.00    -0.005 A 
ATOM     17  C16 <0> A   1     -31.685  -7.001  55.729  0.00  0.00    -0.006 A 
ATOM     18  C17 <0> A   1     -31.789  -8.370  55.560  0.00  0.00    -0.006 A 
ATOM     19  C18 <0> A   1     -31.969  -8.898  54.296  0.00  0.00    -0.003 A 
ENDBRANCH  13  14
ENDBRANCH   5   6
BRANCH   3  20
ATOM     20  C19 <0> A   1     -25.768 -10.081  49.605  0.00  0.00    +0.117 A 
ATOM     21  C20 <0> A   1     -25.621 -10.205  48.230  0.00  0.00    +0.068 A 
ATOM     22  C21 <0> A   1     -24.675 -11.069  47.713  0.00  0.00    +0.020 A 
ATOM     23  C22 <0> A   1     -23.873 -11.809  48.565  0.00  0.00    +0.112 A 
ATOM     24  C23 <0> A   1     -24.019 -11.687  49.937  0.00  0.00    +0.008 A 
ATOM     25  C24 <0> A   1     -24.960 -10.820  50.458  0.00  0.00    +0.070 A 
ATOM     26  F1  <0> A   1     -22.948 -12.653  48.057  0.00  0.00    -0.131 F 
ENDBRANCH   3  20
BRANCH   1  28
ATOM     27  C1  <0> A   1     -29.560  -5.687  50.391  0.00  0.00    +0.028 C 
ATOM     28  C2  <0> A   1     -28.134  -5.922  50.897  0.00  0.00    +0.060 C 
ATOM     29  C3  <0> A   1     -28.061  -5.580  52.387  0.00  0.00    +0.025 C 
ENDBRANCH   1  28
BRANCH   2  30
ATOM     30  C25 <0> A   1     -25.541  -7.034  49.477  0.00  0.00    +0.127 C 
BRANCH  30  31
ATOM     31  C26 <0> A   1     -24.314  -7.079  50.391  0.00  0.00    -0.008 C 
BRANCH  31  32
ATOM     32  C27 <0> A   1     -24.437  -5.994  51.462  0.00  0.00    +0.214 C 
BRANCH  32  33
ATOM     33  O5  <0> A   1     -23.199  -5.879  52.168  0.00  0.00    -0.540 OA
ATOM     34  H37 <0> A   1     -22.796  -5.001  52.116  0.00  0.00    +0.363 HD
ENDBRANCH  32  33
BRANCH  32  35
ATOM     35  C28 <0> A   1     -24.770  -4.656  50.798  0.00  0.00    -0.052 C 
BRANCH  35  36
ATOM     36  C29 <0> A   1     -23.841  -3.570  51.343  0.00  0.00    +0.231 C 
BRANCH  36  37
ATOM     37  O4  <0> A   1     -22.759  -3.368  50.431  0.00  0.00    -0.528 OA
ATOM     38  H36 <0> A   1     -23.027  -3.005  49.577  0.00  0.00    +0.349 HD
ENDBRANCH  36  37
BRANCH  36  39
ATOM     39  C30 <0> A   1     -24.622  -2.265  51.505  0.00  0.00    -0.103 C 
BRANCH  39  40
ATOM     40  C31 <0> A   1     -23.917  -1.162  50.759  0.00  0.00    +0.491 C 
ATOM     41  O2  <0> A   1     -22.887  -0.685  51.204  0.00  0.00    -0.681 OA
ATOM     42  O3  <0> A   1     -24.376  -0.747  49.708  0.00  0.00    -0.713 OA
ENDBRANCH  39  40
ENDBRANCH  36  39
ENDBRANCH  35  36
ENDBRANCH  32  35
ENDBRANCH  31  32
ENDBRANCH  30  31
ENDBRANCH   2  30
TORSDOF 13
