REMARK VINA RESULT:      -7.1      9.572     11.214
REMARK  Name = CHEMBL47006
REMARK  6 active torsions:
REMARK  status: ('A' for Active; 'I' for Inactive)
REMARK    1  A    between atoms: C3_3  and  C5_6
REMARK    2  A    between atoms: C5_6  and  O1_7
REMARK    3  A    between atoms: O1_7  and  C6_8
REMARK    4  A    between atoms: C11_13  and  C12_14
REMARK    5  A    between atoms: C13_15  and  C14_16
REMARK    6  A    between atoms: C16_18  and  O4_24
REMARK                            x       y       z     vdW  Elec       q    Type
REMARK                         _______ _______ _______ _____ _____    ______ ____
ROOT
ATOM      1  C6  <0> A   1     -12.880  11.420  45.642  0.00  0.00    +0.169 A 
ATOM      2  C7  <0> A   1     -12.402  12.607  46.173  0.00  0.00    -0.051 A 
ATOM      3  C8  <0> A   1     -12.540  12.866  47.525  0.00  0.00    +0.017 A 
ATOM      4  C9  <0> A   1     -13.155  11.944  48.356  0.00  0.00    +0.013 A 
ATOM      5  C10 <0> A   1     -13.636  10.757  47.840  0.00  0.00    +0.017 A 
ATOM      6  C11 <0> A   1     -13.508  10.488  46.477  0.00  0.00    -0.075 A 
ATOM      7 Cl1  <0> A   1     -14.405   9.604  48.886  0.00  0.00    -0.036 Cl
ATOM      8 Cl2  <0> A   1     -11.938  14.356  48.184  0.00  0.00    -0.048 Cl
ENDROOT
BRANCH   6   9
ATOM      9  C12 <0> A   1     -14.026   9.223  45.918  0.00  0.00    +0.056 C 
ATOM     10  C13 <0> A   1     -13.247   8.151  45.871  0.00  0.00    -0.009 C 
BRANCH  10  11
ATOM     11  C14 <0> A   1     -13.776   6.859  45.301  0.00  0.00    +0.243 C 
ATOM     12  C15 <0> A   1     -14.098   7.049  43.816  0.00  0.00    +0.051 C 
ATOM     13  C16 <0> A   1     -14.674   5.747  43.251  0.00  0.00    +0.186 C 
ATOM     14  C17 <0> A   1     -15.946   5.390  44.028  0.00  0.00    +0.023 C 
ATOM     15  C18 <0> A   1     -15.622   5.409  45.506  0.00  0.00    +0.498 C 
ATOM     16  O2  <0> A   1     -15.938   4.491  46.224  0.00  0.00    -0.451 OA
ATOM     17  O3  <0> A   1     -14.969   6.482  45.998  0.00  0.00    -0.367 OA
BRANCH  13  18
ATOM     18  O4  <0> A   1     -13.713   4.698  43.390  0.00  0.00    -0.564 OA
ATOM     19  H16 <0> A   1     -13.034   4.874  44.054  0.00  0.00    +0.387 HD
ENDBRANCH  13  18
ENDBRANCH  10  11
ENDBRANCH   6   9
BRANCH   1  20
ATOM     20  O1  <0> A   1     -12.745  11.165  44.314  0.00  0.00    -0.291 OA
BRANCH  20  21
ATOM     21  C5  <0> A   1     -13.491  11.989  43.417  0.00  0.00    +0.318 C 
BRANCH  21  24
ATOM     22  C1  <0> A   1     -14.274  10.805  39.881  0.00  0.00    -0.026 C 
ATOM     23  C2  <0> A   1     -14.431  11.519  41.055  0.00  0.00    +0.017 C 
ATOM     24  C3  <0> A   1     -13.538  11.338  42.059  0.00  0.00    -0.168 C 
ATOM     25  S1  <0> A   1     -12.430  10.129  41.354  0.00  0.00    +0.061 S 
ATOM     26  C4  <0> A   1     -13.232   9.945  39.769  0.00  0.00    +0.030 C 
ENDBRANCH  21  24
ENDBRANCH  20  21
ENDBRANCH   1  20
TORSDOF 6
