REMARK VINA RESULT:      -7.8     15.671     20.332
REMARK  Name = CHEMBL331453
REMARK  13 active torsions:
REMARK  status: ('A' for Active; 'I' for Inactive)
REMARK    1  A    between atoms: C1_1  and  C2_2
REMARK    2  A    between atoms: C2_2  and  C3_3
REMARK    3  A    between atoms: C2_2  and  C4_4
REMARK    4  A    between atoms: C5_5  and  C27_34
REMARK    5  A    between atoms: C6_6  and  C21_28
REMARK    6  A    between atoms: C7_7  and  C15_21
REMARK    7  A    between atoms: N1_8  and  C8_9
REMARK    8  A    between atoms: C8_9  and  C9_10
REMARK    9  A    between atoms: C9_10  and  C10_11
REMARK   10  A    between atoms: C12_14  and  O3_20
REMARK   11  A    between atoms: C27_34  and  O5_36
REMARK   12  A    between atoms: O5_36  and  C28_37
REMARK   13  A    between atoms: C28_37  and  C29_38
REMARK                            x       y       z     vdW  Elec       q    Type
REMARK                         _______ _______ _______ _____ _____    ______ ____
ROOT
ATOM      1  C4  <0> A   1     -29.267  -4.553  52.722  0.00  0.00    +0.106 C 
ATOM      2  C5  <0> A   1     -28.613  -3.391  52.374  0.00  0.00    -0.188 C 
ATOM      3  C6  <0> A   1     -27.342  -3.804  51.754  0.00  0.00    -0.060 C 
ATOM      4  C7  <0> A   1     -27.341  -5.185  51.782  0.00  0.00    +0.065 C 
ATOM      5  N1  <0> A   1     -28.504  -5.607  52.372  0.00  0.00    -0.418 N 
ENDROOT
BRANCH   4   6
ATOM      6  C15 <0> A   1     -26.266  -6.058  51.268  0.00  0.00    -0.032 A 
ATOM      7  C16 <0> A   1     -25.342  -6.624  52.151  0.00  0.00    +0.050 A 
ATOM      8  C17 <0> A   1     -24.340  -7.438  51.666  0.00  0.00    -0.011 A 
ATOM      9  C18 <0> A   1     -24.250  -7.697  50.308  0.00  0.00    +0.107 A 
ATOM     10  C19 <0> A   1     -25.165  -7.139  49.428  0.00  0.00    -0.008 A 
ATOM     11  C20 <0> A   1     -26.173  -6.327  49.901  0.00  0.00    +0.078 A 
ATOM     12  F1  <0> A   1     -23.267  -8.496  49.838  0.00  0.00    -0.137 F 
ENDBRANCH   4   6
BRANCH   3  13
ATOM     13  C21 <0> A   1     -26.285  -2.921  51.213  0.00  0.00    -0.018 A 
ATOM     14  C22 <0> A   1     -24.970  -3.047  51.661  0.00  0.00    +0.023 A 
ATOM     15  C23 <0> A   1     -23.989  -2.221  51.153  0.00  0.00    +0.002 A 
ATOM     16  C24 <0> A   1     -24.307  -1.268  50.202  0.00  0.00    +0.004 A 
ATOM     17  C25 <0> A   1     -25.610  -1.138  49.754  0.00  0.00    +0.004 A 
ATOM     18  C26 <0> A   1     -26.598  -1.962  50.249  0.00  0.00    +0.020 A 
ENDBRANCH   3  13
BRANCH   1  20
ATOM     19  C1  <0> A   1     -31.655  -5.124  52.382  0.00  0.00    +0.041 C 
ATOM     20  C2  <0> A   1     -30.614  -4.632  53.390  0.00  0.00    +0.048 C 
ATOM     21  C3  <0> A   1     -30.544  -5.608  54.567  0.00  0.00    +0.043 C 
ENDBRANCH   1  20
BRANCH   2  22
ATOM     22  C27 <0> A   1     -29.088  -2.016  52.580  0.00  0.00    +0.554 C 
ATOM     23  O4  <0> A   1     -29.939  -1.551  51.848  0.00  0.00    -0.495 OA
BRANCH  22  24
ATOM     24  O5  <0> A   1     -28.581  -1.270  53.582  0.00  0.00    -0.338 OA
BRANCH  24  25
ATOM     25  C28 <0> A   1     -28.103   0.033  53.243  0.00  0.00    +0.259 C 
BRANCH  25  26
ATOM     26  C29 <0> A   1     -26.613   0.095  53.464  0.00  0.00    -0.096 A 
ATOM     27  C30 <0> A   1     -25.850   1.021  52.778  0.00  0.00    +0.030 A 
ATOM     28  C31 <0> A   1     -24.484   1.077  52.982  0.00  0.00    +0.003 A 
ATOM     29  C32 <0> A   1     -23.881   0.208  53.872  0.00  0.00    +0.015 A 
ATOM     30  C33 <0> A   1     -24.644  -0.718  54.559  0.00  0.00    +0.002 A 
ATOM     31  C34 <0> A   1     -26.011  -0.771  54.358  0.00  0.00    +0.028 A 
ENDBRANCH  25  26
ENDBRANCH  24  25
ENDBRANCH  22  24
ENDBRANCH   2  22
BRANCH   5  32
ATOM     32  C8  <0> A   1     -28.868  -7.008  52.590  0.00  0.00    +0.300 C 
BRANCH  32  33
ATOM     33  C9  <0> A   1     -29.412  -7.602  51.288  0.00  0.00    +0.052 C 
BRANCH  33  34
ATOM     34  C10 <0> A   1     -30.122  -8.923  51.587  0.00  0.00    +0.204 C 
ATOM     35  C11 <0> A   1     -31.068  -8.736  52.777  0.00  0.00    +0.046 C 
ATOM     36  C12 <0> A   1     -31.747 -10.072  53.100  0.00  0.00    +0.187 C 
ATOM     37  C13 <0> A   1     -30.668 -11.109  53.435  0.00  0.00    +0.025 C 
ATOM     38  C14 <0> A   1     -29.650 -11.113  52.316  0.00  0.00    +0.497 C 
ATOM     39  O1  <0> A   1     -29.291 -12.147  51.806  0.00  0.00    -0.448 OA
ATOM     40  O2  <0> A   1     -29.153  -9.927  51.905  0.00  0.00    -0.370 OA
BRANCH  36  41
ATOM     41  O3  <0> A   1     -32.502 -10.510  51.968  0.00  0.00    -0.564 OA
ATOM     42  H18 <0> A   1     -33.459 -10.425  52.078  0.00  0.00    +0.388 HD
ENDBRANCH  36  41
ENDBRANCH  33  34
ENDBRANCH  32  33
ENDBRANCH   5  32
TORSDOF 11
