REMARK VINA RESULT:      -7.2      4.018      6.955
REMARK  Name = CHEMBL419542
REMARK  11 active torsions:
REMARK  status: ('A' for Active; 'I' for Inactive)
REMARK    1  A    between atoms: C6_6  and  C7_7
REMARK    2  A    between atoms: C7_7  and  C17_27
REMARK    3  A    between atoms: C8_8  and  C9_9
REMARK    4  A    between atoms: C8_8  and  C16_22
REMARK    5  A    between atoms: C10_10  and  C11_11
REMARK    6  A    between atoms: C11_11  and  C12_13
REMARK    7  A    between atoms: C11_11  and  O4_21
REMARK    8  A    between atoms: C12_13  and  C13_14
REMARK    9  A    between atoms: C13_14  and  C14_16
REMARK   10  A    between atoms: C13_14  and  O3_20
REMARK   11  A    between atoms: C14_16  and  C15_17
REMARK                            x       y       z     vdW  Elec       q    Type
REMARK                         _______ _______ _______ _____ _____    ______ ____
ROOT
ATOM      1  C7  <0> A   1     -13.406   8.524  43.777  0.00  0.00    +0.014 C 
ATOM      2  C8  <0> A   1     -14.099   7.488  44.320  0.00  0.00    -0.039 C 
ENDROOT
BRANCH   1   8
ATOM      3  C1  <0> A   1     -11.657   9.472  45.277  0.00  0.00    +0.070 A 
ATOM      4  C2  <0> A   1     -11.185  10.484  46.085  0.00  0.00    -0.012 A 
ATOM      5  C3  <0> A   1     -11.936  11.634  46.271  0.00  0.00    +0.110 A 
ATOM      6  C4  <0> A   1     -13.166  11.772  45.647  0.00  0.00    -0.007 A 
ATOM      7  C5  <0> A   1     -13.648  10.766  44.837  0.00  0.00    +0.068 A 
ATOM      8  C6  <0> A   1     -12.895   9.606  44.646  0.00  0.00    -0.064 A 
ATOM      9  F2  <0> A   1     -11.469  12.623  47.064  0.00  0.00    -0.136 F 
ENDBRANCH   1   8
BRANCH   1  10
ATOM     10  C17 <0> A   1     -13.166   8.569  42.319  0.00  0.00    -0.078 A 
ATOM     11  C18 <0> A   1     -12.427   7.560  41.699  0.00  0.00    +0.058 A 
ATOM     12  C19 <0> A   1     -12.205   7.607  40.339  0.00  0.00    -0.009 A 
ATOM     13  C20 <0> A   1     -12.714   8.655  39.587  0.00  0.00    +0.108 A 
ATOM     14  C21 <0> A   1     -13.449   9.659  40.198  0.00  0.00    -0.008 A 
ATOM     15  C22 <0> A   1     -13.681   9.618  41.556  0.00  0.00    +0.078 A 
ATOM     16  F1  <0> A   1     -12.494   8.696  38.255  0.00  0.00    -0.136 F 
ENDBRANCH   1  10
BRANCH   2  17
ATOM     17  C16 <0> A   1     -14.619   6.385  43.435  0.00  0.00    +0.246 C 
ATOM     18  N1  <0> A   1     -15.996   6.022  43.816  0.00  0.00    -0.116 NA
ATOM     19  N2  <0> A   1     -15.956   4.834  44.162  0.00  0.00    -0.041 NA
ATOM     20  N3  <0> A   1     -14.671   4.306  44.064  0.00  0.00    -0.042 NA
ATOM     21  N4  <0> A   1     -13.856   5.144  43.653  0.00  0.00    -0.118 NA
ENDBRANCH   2  17
BRANCH   2  22
ATOM     22  C9  <0> A   1     -14.336   7.442  45.762  0.00  0.00    +0.012 C 
ATOM     23  C10 <0> A   1     -15.316   8.170  46.300  0.00  0.00    -0.065 C 
BRANCH  23  24
ATOM     24  C11 <0> A   1     -15.561   8.124  47.786  0.00  0.00    +0.258 C 
BRANCH  24  25
ATOM     25  O4  <0> A   1     -16.414   9.207  48.162  0.00  0.00    -0.533 OA
ATOM     26  H14 <0> A   1     -17.297   8.933  48.446  0.00  0.00    +0.365 HD
ENDBRANCH  24  25
BRANCH  24  27
ATOM     27  C12 <0> A   1     -16.231   6.798  48.152  0.00  0.00    -0.037 C 
BRANCH  27  28
ATOM     28  C13 <0> A   1     -17.648   6.766  47.578  0.00  0.00    +0.233 C 
BRANCH  28  29
ATOM     29  O3  <0> A   1     -17.655   6.003  46.370  0.00  0.00    -0.528 OA
ATOM     30  H13 <0> A   1     -16.774   5.795  46.030  0.00  0.00    +0.350 HD
ENDBRANCH  28  29
BRANCH  28  31
ATOM     31  C14 <0> A   1     -18.595   6.123  48.593  0.00  0.00    -0.099 C 
BRANCH  31  32
ATOM     32  C15 <0> A   1     -19.999   6.130  48.044  0.00  0.00    +0.491 C 
ATOM     33  O1  <0> A   1     -20.258   6.774  47.041  0.00  0.00    -0.681 OA
ATOM     34  O2  <0> A   1     -20.875   5.494  48.603  0.00  0.00    -0.712 OA
ENDBRANCH  31  32
ENDBRANCH  28  31
ENDBRANCH  27  28
ENDBRANCH  24  27
ENDBRANCH  23  24
ENDBRANCH   2  22
TORSDOF 11
