REMARK VINA RESULT:      -8.1     32.686     35.058
REMARK  Name = CHEMBL47301
REMARK  7 active torsions:
REMARK  status: ('A' for Active; 'I' for Inactive)
REMARK    1  A    between atoms: C4_4  and  C7_7
REMARK    2  A    between atoms: C7_7  and  C8_8
REMARK    3  A    between atoms: C8_8  and  O1_9
REMARK    4  A    between atoms: O1_9  and  C9_10
REMARK    5  A    between atoms: C14_15  and  C15_16
REMARK    6  A    between atoms: C16_17  and  C17_18
REMARK    7  A    between atoms: C19_20  and  O4_26
REMARK                            x       y       z     vdW  Elec       q    Type
REMARK                         _______ _______ _______ _____ _____    ______ ____
ROOT
ATOM      1  C9  <0> A   1     -25.311  -6.060  51.958  0.00  0.00    +0.171 A 
ATOM      2  C10 <0> A   1     -24.321  -5.242  51.438  0.00  0.00    -0.051 A 
ATOM      3  C11 <0> A   1     -24.576  -3.901  51.214  0.00  0.00    +0.017 A 
ATOM      4  C12 <0> A   1     -25.819  -3.366  51.507  0.00  0.00    +0.011 A 
ATOM      5  C13 <0> A   1     -26.816  -4.168  52.025  0.00  0.00    +0.016 A 
ATOM      6  C14 <0> A   1     -26.572  -5.525  52.250  0.00  0.00    -0.078 A 
ATOM      7 Cl1  <0> A   1     -28.373  -3.492  52.391  0.00  0.00    -0.037 Cl
ATOM      8 Cl2  <0> A   1     -23.328  -2.882  50.563  0.00  0.00    -0.049 Cl
ENDROOT
BRANCH   6   9
ATOM      9  C15 <0> A   1     -27.636  -6.390  52.798  0.00  0.00    +0.057 C 
ATOM     10  C16 <0> A   1     -28.479  -7.003  51.978  0.00  0.00    -0.011 C 
BRANCH  10  11
ATOM     11  C17 <0> A   1     -29.566  -7.886  52.537  0.00  0.00    +0.243 C 
ATOM     12  C18 <0> A   1     -30.934  -7.339  52.121  0.00  0.00    +0.051 C 
ATOM     13  C19 <0> A   1     -32.036  -8.215  52.725  0.00  0.00    +0.186 C 
ATOM     14  C20 <0> A   1     -31.900  -8.199  54.253  0.00  0.00    +0.023 C 
ATOM     15  C21 <0> A   1     -30.472  -8.553  54.607  0.00  0.00    +0.498 C 
ATOM     16  O2  <0> A   1     -30.229  -9.396  55.438  0.00  0.00    -0.451 OA
ATOM     17  O3  <0> A   1     -29.479  -7.903  53.967  0.00  0.00    -0.367 OA
BRANCH  13  18
ATOM     18  O4  <0> A   1     -31.901  -9.553  52.244  0.00  0.00    -0.564 OA
ATOM     19  H20 <0> A   1     -32.285 -10.221  52.829  0.00  0.00    +0.387 HD
ENDBRANCH  13  18
ENDBRANCH  10  11
ENDBRANCH   6   9
BRANCH   1  20
ATOM     20  O1  <0> A   1     -25.062  -7.377  52.178  0.00  0.00    -0.296 OA
BRANCH  20  21
ATOM     21  C8  <0> A   1     -24.204  -8.039  51.246  0.00  0.00    +0.198 C 
BRANCH  21  22
ATOM     22  C7  <0> A   1     -23.630  -9.302  51.891  0.00  0.00    +0.096 C 
BRANCH  22  26
ATOM     23  C1  <0> A   1     -24.429 -12.666  49.382  0.00  0.00    +0.005 A 
ATOM     24  C2  <0> A   1     -24.661 -12.748  50.742  0.00  0.00    +0.006 A 
ATOM     25  C3  <0> A   1     -24.402 -11.659  51.554  0.00  0.00    +0.010 A 
ATOM     26  C4  <0> A   1     -23.911 -10.489  51.006  0.00  0.00    -0.088 A 
ATOM     27  C5  <0> A   1     -23.678 -10.407  49.645  0.00  0.00    +0.011 A 
ATOM     28  C6  <0> A   1     -23.938 -11.495  48.834  0.00  0.00    +0.007 A 
ENDBRANCH  22  26
ENDBRANCH  21  22
ENDBRANCH  20  21
ENDBRANCH   1  20
TORSDOF 7
