REMARK VINA RESULT:      -7.3      2.022      4.552
REMARK  Name = CHEMBL353734
REMARK  10 active torsions:
REMARK  status: ('A' for Active; 'I' for Inactive)
REMARK    1  A    between atoms: C1_1  and  C2_2
REMARK    2  A    between atoms: C4_5  and  O4_28
REMARK    3  A    between atoms: C6_8  and  C13_17
REMARK    4  A    between atoms: C7_10  and  C12_16
REMARK    5  A    between atoms: C13_17  and  C14_18
REMARK    6  A    between atoms: C14_18  and  C15_19
REMARK    7  A    between atoms: C17_21  and  O3_27
REMARK    8  A    between atoms: O4_28  and  C20_29
REMARK    9  A    between atoms: C20_29  and  C21_31
REMARK   10  A    between atoms: C21_31  and  C22_32
REMARK                            x       y       z     vdW  Elec       q    Type
REMARK                         _______ _______ _______ _____ _____    ______ ____
ROOT
ATOM      1  C1  <0> A   1     -25.768   0.369  56.184  0.00  0.00    +0.033 C 
ATOM      2  C2  <0> A   1     -25.215   0.211  54.765  0.00  0.00    +0.025 C 
ATOM      3  C3  <0> A   1     -26.148  -0.688  53.941  0.00  0.00    +0.020 C 
ATOM      4  C4  <0> A   1     -25.580  -0.802  52.528  0.00  0.00    +0.176 C 
ATOM      5  C5  <0> A   1     -24.184  -1.378  52.526  0.00  0.00    +0.040 C 
ATOM      6  C6  <0> A   1     -24.182  -2.871  52.191  0.00  0.00    +0.013 C 
ATOM      7  C7  <0> A   1     -22.737  -3.325  51.979  0.00  0.00    +0.022 C 
ATOM      8  C8  <0> A   1     -21.849  -2.889  53.106  0.00  0.00    -0.032 C 
ATOM      9  C9  <0> A   1     -22.144  -1.912  53.945  0.00  0.00    -0.006 C 
ATOM     10  C10 <0> A   1     -23.427  -1.186  53.808  0.00  0.00    -0.086 C 
ATOM     11  C11 <0> A   1     -23.863  -0.453  54.816  0.00  0.00    -0.022 C 
ATOM     12  C12 <0> A   1     -22.212  -2.727  50.672  0.00  0.00    +0.029 C 
ENDROOT
BRANCH   6  13
ATOM     13  C13 <0> A   1     -24.991  -3.111  50.914  0.00  0.00    +0.057 C 
BRANCH  13  14
ATOM     14  C14 <0> A   1     -25.849  -4.367  51.083  0.00  0.00    +0.040 C 
BRANCH  14  15
ATOM     15  C15 <0> A   1     -25.018  -5.603  50.735  0.00  0.00    +0.194 C 
ATOM     16  C16 <0> A   1     -25.768  -6.448  49.701  0.00  0.00    +0.039 C 
ATOM     17  C17 <0> A   1     -24.952  -7.706  49.386  0.00  0.00    +0.183 C 
ATOM     18  C18 <0> A   1     -24.751  -8.505  50.681  0.00  0.00    +0.018 C 
ATOM     19  C19 <0> A   1     -24.191  -7.571  51.732  0.00  0.00    +0.495 C 
ATOM     20  O1  <0> A   1     -23.225  -7.880  52.388  0.00  0.00    -0.453 OA
ATOM     21  O2  <0> A   1     -24.802  -6.382  51.917  0.00  0.00    -0.366 OA
BRANCH  17  22
ATOM     22  O3  <0> A   1     -23.681  -7.331  48.851  0.00  0.00    -0.563 OA
ATOM     23  H27 <0> A   1     -22.939  -7.497  49.448  0.00  0.00    +0.386 HD
ENDBRANCH  17  22
ENDBRANCH  14  15
ENDBRANCH  13  14
ENDBRANCH   6  13
BRANCH   4  24
ATOM     24  O4  <0> A   1     -26.431  -1.647  51.751  0.00  0.00    -0.321 OA
BRANCH  24  25
ATOM     25  C20 <0> A   1     -27.529  -1.085  51.222  0.00  0.00    +0.449 C 
ATOM     26  O5  <0> A   1     -28.622  -1.532  51.480  0.00  0.00    -0.493 OA
BRANCH  25  27
ATOM     27  C21 <0> A   1     -27.400   0.105  50.307  0.00  0.00    +0.150 C 
BRANCH  27  28
ATOM     28  C22 <0> A   1     -27.908   1.337  51.010  0.00  0.00    -0.080 A 
ATOM     29  C23 <0> A   1     -29.267   1.538  51.157  0.00  0.00    +0.017 A 
ATOM     30  C24 <0> A   1     -29.733   2.669  51.802  0.00  0.00    +0.002 A 
ATOM     31  C25 <0> A   1     -28.840   3.598  52.301  0.00  0.00    +0.007 A 
ATOM     32  C26 <0> A   1     -27.480   3.396  52.154  0.00  0.00    +0.005 A 
ATOM     33  C27 <0> A   1     -27.014   2.264  51.513  0.00  0.00    +0.024 A 
ENDBRANCH  27  28
ENDBRANCH  25  27
ENDBRANCH  24  25
ENDBRANCH   4  24
TORSDOF 8
