REMARK VINA RESULT:      -7.8      3.795      6.698
REMARK  Name = CHEMBL253153
REMARK  15 active torsions:
REMARK  status: ('A' for Active; 'I' for Inactive)
REMARK    1  A    between atoms: C1_1  and  C2_2
REMARK    2  A    between atoms: C2_2  and  C3_3
REMARK    3  A    between atoms: C2_2  and  C4_4
REMARK    4  A    between atoms: C5_5  and  C24_29
REMARK    5  A    between atoms: N1_6  and  C18_22
REMARK    6  A    between atoms: C6_8  and  C7_9
REMARK    7  A    between atoms: C11_15  and  C12_16
REMARK    8  A    between atoms: C24_29  and  C25_30
REMARK    9  A    between atoms: C25_30  and  C26_31
REMARK   10  A    between atoms: C26_31  and  C27_33
REMARK   11  A    between atoms: C26_31  and  O5_41
REMARK   12  A    between atoms: C27_33  and  C28_34
REMARK   13  A    between atoms: C28_34  and  C29_36
REMARK   14  A    between atoms: C28_34  and  O4_40
REMARK   15  A    between atoms: C29_36  and  C30_37
REMARK                            x       y       z     vdW  Elec       q    Type
REMARK                         _______ _______ _______ _____ _____    ______ ____
ROOT
ATOM      1  C4  <0> A   1     -12.661   9.289  47.325  0.00  0.00    -0.124 C 
ATOM      2  C5  <0> A   1     -13.322   8.621  46.349  0.00  0.00    +0.027 C 
ATOM      3  N1  <0> A   1     -13.746   7.447  46.885  0.00  0.00    -0.234 N 
ATOM      4  N2  <0> A   1     -13.384   7.367  48.115  0.00  0.00    -0.257 NA
ATOM      5  C6  <0> A   1     -12.712   8.447  48.461  0.00  0.00    -0.001 C 
ENDROOT
BRANCH   5   6
ATOM      6  C7  <0> A   1     -12.124   8.729  49.787  0.00  0.00    +0.618 C 
ATOM      7  O1  <0> A   1     -11.014   8.316  50.060  0.00  0.00    -0.502 OA
ATOM      8  N3  <0> A   1     -12.820   9.443  50.694  0.00  0.00    -0.603 N 
ATOM      9  C8  <0> A   1     -14.173   9.997  50.498  0.00  0.00    +0.263 C 
ATOM     10  C9  <0> A   1     -14.747  10.151  51.928  0.00  0.00    +0.028 C 
ATOM     11  C10 <0> A   1     -13.491  10.591  52.724  0.00  0.00    +0.043 C 
ATOM     12  C11 <0> A   1     -12.358   9.795  52.044  0.00  0.00    +0.266 C 
BRANCH  12  13
ATOM     13  C12 <0> A   1     -11.117  10.645  51.957  0.00  0.00    -0.084 A 
ATOM     14  C13 <0> A   1     -11.099  11.756  51.134  0.00  0.00    +0.013 A 
ATOM     15  C14 <0> A   1      -9.961  12.538  51.053  0.00  0.00    -0.001 A 
ATOM     16  C15 <0> A   1      -8.842  12.209  51.796  0.00  0.00    -0.000 A 
ATOM     17  C16 <0> A   1      -8.862  11.099  52.620  0.00  0.00    +0.002 A 
ATOM     18  C17 <0> A   1     -10.001  10.320  52.703  0.00  0.00    +0.016 A 
ENDBRANCH  12  13
ENDBRANCH   5   6
BRANCH   3  19
ATOM     19  C18 <0> A   1     -14.473   6.466  46.196  0.00  0.00    +0.119 A 
ATOM     20  C19 <0> A   1     -13.850   5.293  45.794  0.00  0.00    +0.068 A 
ATOM     21  C20 <0> A   1     -14.568   4.328  45.116  0.00  0.00    +0.021 A 
ATOM     22  C21 <0> A   1     -15.909   4.529  44.838  0.00  0.00    +0.112 A 
ATOM     23  C22 <0> A   1     -16.534   5.699  45.239  0.00  0.00    +0.008 A 
ATOM     24  C23 <0> A   1     -15.820   6.664  45.923  0.00  0.00    +0.070 A 
ATOM     25  F1  <0> A   1     -16.610   3.584  44.176  0.00  0.00    -0.131 F 
ENDBRANCH   3  19
BRANCH   1  27
ATOM     26  C1  <0> A   1     -10.750  10.531  46.352  0.00  0.00    +0.028 C 
ATOM     27  C2  <0> A   1     -12.005  10.641  47.219  0.00  0.00    +0.061 C 
ATOM     28  C3  <0> A   1     -12.980  11.632  46.580  0.00  0.00    +0.025 C 
ENDBRANCH   1  27
BRANCH   2  29
ATOM     29  C24 <0> A   1     -13.545   9.091  44.935  0.00  0.00    +0.127 C 
BRANCH  29  30
ATOM     30  C25 <0> A   1     -12.473   8.493  44.023  0.00  0.00    -0.009 C 
BRANCH  30  31
ATOM     31  C26 <0> A   1     -12.364   9.329  42.747  0.00  0.00    +0.214 C 
BRANCH  31  32
ATOM     32  O5  <0> A   1     -11.652   8.591  41.752  0.00  0.00    -0.540 OA
ATOM     33  H35 <0> A   1     -11.752   7.632  41.827  0.00  0.00    +0.363 HD
ENDBRANCH  31  32
BRANCH  31  34
ATOM     34  C27 <0> A   1     -13.767   9.658  42.232  0.00  0.00    -0.052 C 
BRANCH  34  35
ATOM     35  C28 <0> A   1     -13.782  11.079  41.666  0.00  0.00    +0.231 C 
BRANCH  35  36
ATOM     36  O4  <0> A   1     -12.471  11.642  41.753  0.00  0.00    -0.528 OA
ATOM     37  H34 <0> A   1     -12.463  12.602  41.873  0.00  0.00    +0.349 HD
ENDBRANCH  35  36
BRANCH  35  38
ATOM     38  C29 <0> A   1     -14.224  11.041  40.201  0.00  0.00    -0.103 C 
BRANCH  38  39
ATOM     39  C30 <0> A   1     -13.010  10.976  39.312  0.00  0.00    +0.491 C 
ATOM     40  O2  <0> A   1     -12.561  11.997  38.818  0.00  0.00    -0.681 OA
ATOM     41  O3  <0> A   1     -12.476   9.903  39.085  0.00  0.00    -0.713 OA
ENDBRANCH  38  39
ENDBRANCH  35  38
ENDBRANCH  34  35
ENDBRANCH  31  34
ENDBRANCH  30  31
ENDBRANCH  29  30
ENDBRANCH   2  29
TORSDOF 13
