REMARK VINA RESULT:      -6.9      9.657     12.262
REMARK  Name = CHEMBL293944
REMARK  16 active torsions:
REMARK  status: ('A' for Active; 'I' for Inactive)
REMARK    1  A    between atoms: C1_1  and  C2_2
REMARK    2  A    between atoms: C2_2  and  C3_3
REMARK    3  A    between atoms: C3_3  and  C4_5
REMARK    4  A    between atoms: C3_3  and  C5_6
REMARK    5  A    between atoms: C5_6  and  O2_8
REMARK    6  A    between atoms: O2_8  and  C6_9
REMARK    7  A    between atoms: C8_12  and  C24_37
REMARK    8  A    between atoms: C12_18  and  C17_25
REMARK    9  A    between atoms: C13_20  and  C16_24
REMARK   10  A    between atoms: C17_25  and  C18_26
REMARK   11  A    between atoms: C18_26  and  C19_27
REMARK   12  A    between atoms: C19_27  and  C20_29
REMARK   13  A    between atoms: C20_29  and  C21_30
REMARK   14  A    between atoms: C21_30  and  C22_32
REMARK   15  A    between atoms: C21_30  and  O6_36
REMARK   16  A    between atoms: C22_32  and  C23_33
REMARK                            x       y       z     vdW  Elec       q    Type
REMARK                         _______ _______ _______ _____ _____    ______ ____
ROOT
ATOM      1  C6  <0> A   1     -14.896   8.698  46.887  0.00  0.00    +0.187 C 
ATOM      2  C7  <0> A   1     -16.104   9.049  47.768  0.00  0.00    +0.002 C 
ATOM      3  C8  <0> A   1     -16.374   7.909  48.750  0.00  0.00    -0.013 C 
ATOM      4  C9  <0> A   1     -16.677   6.632  47.960  0.00  0.00    +0.028 C 
ATOM      5  C10 <0> A   1     -15.492   6.287  47.070  0.00  0.00    +0.033 C 
ATOM      6  C11 <0> A   1     -15.196   7.433  46.091  0.00  0.00    +0.020 C 
ATOM      7  C12 <0> A   1     -14.030   6.985  45.217  0.00  0.00    -0.008 C 
ATOM      8  C13 <0> A   1     -12.774   6.694  46.024  0.00  0.00    +0.020 C 
ATOM      9  C14 <0> A   1     -13.068   6.225  47.413  0.00  0.00    -0.041 C 
ATOM     10  C15 <0> A   1     -14.260   6.030  47.888  0.00  0.00    -0.047 C 
ATOM     11  C16 <0> A   1     -11.857   7.917  46.058  0.00  0.00    +0.022 C 
ATOM     12  C24 <0> A   1     -17.577   8.262  49.627  0.00  0.00    +0.018 C 
ENDROOT
BRANCH   1  13
ATOM     13  O2  <0> A   1     -14.652   9.810  46.024  0.00  0.00    -0.337 OA
BRANCH  13  14
ATOM     14  C5  <0> A   1     -14.271  10.959  46.604  0.00  0.00    +0.467 C 
ATOM     15  O1  <0> A   1     -14.988  11.930  46.549  0.00  0.00    -0.508 OA
BRANCH  14  16
ATOM     16  C3  <0> A   1     -12.950  11.038  47.325  0.00  0.00    +0.024 C 
ATOM     17  C4  <0> A   1     -11.918  11.719  46.425  0.00  0.00    +0.058 C 
BRANCH  16  19
ATOM     18  C1  <0> A   1     -13.671  10.940  49.714  0.00  0.00    +0.023 C 
ATOM     19  C2  <0> A   1     -13.119  11.846  48.612  0.00  0.00    +0.032 C 
ENDBRANCH  16  19
ENDBRANCH  14  16
ENDBRANCH  13  14
ENDBRANCH   1  13
BRANCH   7  20
ATOM     20  C17 <0> A   1     -13.731   7.983  44.098  0.00  0.00    +0.044 C 
BRANCH  20  21
ATOM     21  C18 <0> A   1     -13.699   7.248  42.756  0.00  0.00    +0.015 C 
BRANCH  21  22
ATOM     22  C19 <0> A   1     -12.468   7.658  41.989  0.00  0.00    +0.351 C 
ATOM     23  O3  <0> A   1     -11.892   6.853  41.297  0.00  0.00    -0.430 OA
BRANCH  22  24
ATOM     24  C20 <0> A   1     -11.956   9.072  42.085  0.00  0.00    -0.020 C 
BRANCH  24  25
ATOM     25  C21 <0> A   1     -12.960  10.023  41.430  0.00  0.00    +0.241 C 
BRANCH  25  26
ATOM     26  O6  <0> A   1     -12.687  11.364  41.842  0.00  0.00    -0.532 OA
ATOM     27  H34 <0> A   1     -12.836  11.523  42.784  0.00  0.00    +0.350 HD
ENDBRANCH  25  26
BRANCH  25  28
ATOM     28  C22 <0> A   1     -12.839   9.923  39.908  0.00  0.00    -0.098 C 
BRANCH  28  29
ATOM     29  C23 <0> A   1     -13.038  11.286  39.297  0.00  0.00    +0.491 C 
ATOM     30  O4  <0> A   1     -12.072  11.969  39.003  0.00  0.00    -0.679 OA
ATOM     31  O5  <0> A   1     -14.166  11.704  39.095  0.00  0.00    -0.713 OA
ENDBRANCH  28  29
ENDBRANCH  25  28
ENDBRANCH  24  25
ENDBRANCH  22  24
ENDBRANCH  21  22
ENDBRANCH  20  21
ENDBRANCH   7  20
TORSDOF 12
