REMARK VINA RESULT:      -8.8      0.000      0.000
REMARK  Name = CHEMBL77486
REMARK  14 active torsions:
REMARK  status: ('A' for Active; 'I' for Inactive)
REMARK    1  A    between atoms: C1_1  and  C2_2
REMARK    2  A    between atoms: C2_2  and  C3_3
REMARK    3  A    between atoms: C3_3  and  C4_5
REMARK    4  A    between atoms: C3_3  and  C5_6
REMARK    5  A    between atoms: C5_6  and  O2_8
REMARK    6  A    between atoms: O2_8  and  C6_9
REMARK    7  A    between atoms: C8_12  and  C24_38
REMARK    8  A    between atoms: C12_19  and  C17_26
REMARK    9  A    between atoms: C13_21  and  C16_25
REMARK   10  A    between atoms: C17_26  and  C18_27
REMARK   11  A    between atoms: C18_27  and  C19_28
REMARK   12  A    between atoms: C21_31  and  O5_37
REMARK   13  A    between atoms: C25_39  and  C26_40
REMARK   14  A    between atoms: C26_40  and  C27_41
REMARK                            x       y       z     vdW  Elec       q    Type
REMARK                         _______ _______ _______ _____ _____    ______ ____
ROOT
ATOM      1  C6  <0> A   1     -13.884   7.892  47.282  0.00  0.00    +0.183 C 
ATOM      2  C7  <0> A   1     -12.364   7.973  47.455  0.00  0.00    +0.020 C 
ATOM      3  C8  <0> A   1     -11.765   8.906  46.401  0.00  0.00    +0.019 C 
ATOM      4  C9  <0> A   1     -12.381  10.303  46.525  0.00  0.00    +0.034 C 
ATOM      5  C10 <0> A   1     -13.891  10.192  46.332  0.00  0.00    +0.039 C 
ATOM      6  C11 <0> A   1     -14.474   9.291  47.429  0.00  0.00    +0.017 C 
ATOM      7  C12 <0> A   1     -15.996   9.270  47.279  0.00  0.00    +0.004 C 
ATOM      8  C13 <0> A   1     -16.528  10.666  47.617  0.00  0.00    +0.023 C 
ATOM      9  C14 <0> A   1     -15.723  11.725  46.926  0.00  0.00    -0.050 C 
ATOM     10  C15 <0> A   1     -14.561  11.529  46.385  0.00  0.00    -0.043 C 
ATOM     11  C16 <0> A   1     -16.450  10.881  49.130  0.00  0.00    +0.027 C 
ENDROOT
BRANCH   3  12
ATOM     12  C24 <0> A   1     -12.049   8.356  45.027  0.00  0.00    -0.009 C 
ATOM     13  C25 <0> A   1     -11.757   9.064  43.965  0.00  0.00    -0.061 C 
BRANCH  13  14
ATOM     14  C26 <0> A   1     -12.154   8.569  42.597  0.00  0.00    +0.104 C 
BRANCH  14  15
ATOM     15  C27 <0> A   1     -13.020   9.600  41.922  0.00  0.00    -0.075 A 
ATOM     16  C28 <0> A   1     -13.748  10.497  42.680  0.00  0.00    +0.005 A 
ATOM     17  C29 <0> A   1     -14.542  11.443  42.061  0.00  0.00    +0.002 A 
ATOM     18  C30 <0> A   1     -14.609  11.492  40.680  0.00  0.00    -0.006 A 
ATOM     19  C31 <0> A   1     -13.881  10.597  39.921  0.00  0.00    +0.002 A 
ATOM     20  C32 <0> A   1     -13.083   9.653  40.541  0.00  0.00    +0.001 A 
ENDBRANCH  14  15
ENDBRANCH  13  14
ENDBRANCH   3  12
BRANCH   1  21
ATOM     21  O2  <0> A   1     -14.191   7.376  45.985  0.00  0.00    -0.332 OA
BRANCH  21  22
ATOM     22  C5  <0> A   1     -14.312   6.043  45.872  0.00  0.00    +0.460 C 
ATOM     23  O1  <0> A   1     -14.532   5.371  46.852  0.00  0.00    -0.503 OA
BRANCH  22  24
ATOM     24  C3  <0> A   1     -14.172   5.385  44.524  0.00  0.00    +0.022 C 
ATOM     25  C4  <0> A   1     -14.349   3.873  44.672  0.00  0.00    +0.056 C 
BRANCH  24  27
ATOM     26  C1  <0> A   1     -16.627   5.533  44.085  0.00  0.00    +0.022 C 
ATOM     27  C2  <0> A   1     -15.240   5.934  43.576  0.00  0.00    +0.031 C 
ENDBRANCH  24  27
ENDBRANCH  22  24
ENDBRANCH  21  22
ENDBRANCH   1  21
BRANCH   7  28
ATOM     28  C17 <0> A   1     -16.595   8.241  48.239  0.00  0.00    +0.019 C 
BRANCH  28  29
ATOM     29  C18 <0> A   1     -17.490   7.275  47.461  0.00  0.00    +0.051 C 
BRANCH  29  30
ATOM     30  C19 <0> A   1     -18.838   7.144  48.171  0.00  0.00    +0.193 C 
ATOM     31  C20 <0> A   1     -18.694   7.595  49.627  0.00  0.00    +0.040 C 
ATOM     32  C21 <0> A   1     -20.036   7.423  50.347  0.00  0.00    +0.183 C 
ATOM     33  C22 <0> A   1     -20.446   5.945  50.286  0.00  0.00    +0.021 C 
ATOM     34  C23 <0> A   1     -20.379   5.494  48.843  0.00  0.00    +0.496 C 
ATOM     35  O3  <0> A   1     -21.299   4.896  48.336  0.00  0.00    -0.453 OA
ATOM     36  O4  <0> A   1     -19.264   5.777  48.139  0.00  0.00    -0.367 OA
BRANCH  32  37
ATOM     37  O5  <0> A   1     -21.030   8.224  49.705  0.00  0.00    -0.563 OA
ATOM     38  H35 <0> A   1     -21.122   8.052  48.758  0.00  0.00    +0.386 HD
ENDBRANCH  32  37
ENDBRANCH  29  30
ENDBRANCH  28  29
ENDBRANCH   7  28
TORSDOF 11
