REMARK VINA RESULT:      -7.6     15.120     18.899
REMARK  Name = CHEMBL322643
REMARK  13 active torsions:
REMARK  status: ('A' for Active; 'I' for Inactive)
REMARK    1  A    between atoms: C1_1  and  C2_2
REMARK    2  A    between atoms: C2_2  and  C3_3
REMARK    3  A    between atoms: C2_2  and  C4_4
REMARK    4  A    between atoms: C6_6  and  C22_29
REMARK    5  A    between atoms: C7_8  and  C16_22
REMARK    6  A    between atoms: C8_9  and  C9_10
REMARK    7  A    between atoms: C10_11  and  C11_12
REMARK    8  A    between atoms: C11_12  and  C12_13
REMARK    9  A    between atoms: C11_12  and  O4_21
REMARK   10  A    between atoms: C12_13  and  C13_14
REMARK   11  A    between atoms: C13_14  and  C14_16
REMARK   12  A    between atoms: C13_14  and  O3_20
REMARK   13  A    between atoms: C14_16  and  C15_17
REMARK                            x       y       z     vdW  Elec       q    Type
REMARK                         _______ _______ _______ _____ _____    ______ ____
ROOT
ATOM      1  C4  <0> A   1     -27.616  -5.176  52.221  0.00  0.00    -0.018 A 
ATOM      2  C5  <0> A   1     -26.833  -6.251  51.848  0.00  0.00    -0.019 A 
ATOM      3  C6  <0> A   1     -25.548  -6.025  51.353  0.00  0.00    +0.167 A 
ATOM      4  N1  <0> A   1     -25.069  -4.794  51.236  0.00  0.00    -0.469 NA
ATOM      5  C7  <0> A   1     -25.784  -3.734  51.581  0.00  0.00    +0.184 A 
ATOM      6  C8  <0> A   1     -27.089  -3.887  52.083  0.00  0.00    -0.083 A 
ENDROOT
BRANCH   5   7
ATOM      7  C16 <0> A   1     -25.207  -2.378  51.432  0.00  0.00    -0.062 A 
ATOM      8  C17 <0> A   1     -25.368  -1.675  50.238  0.00  0.00    +0.087 A 
ATOM      9  C18 <0> A   1     -24.830  -0.412  50.105  0.00  0.00    -0.017 A 
ATOM     10  C19 <0> A   1     -24.129   0.158  51.155  0.00  0.00    +0.113 A 
ATOM     11  C20 <0> A   1     -23.966  -0.536  52.344  0.00  0.00    -0.026 A 
ATOM     12  C21 <0> A   1     -24.505  -1.797  52.488  0.00  0.00    +0.082 A 
ATOM     13  F1  <0> A   1     -23.603   1.396  51.020  0.00  0.00    -0.137 F 
ENDBRANCH   5   7
BRANCH   3  14
ATOM     14  C22 <0> A   1     -24.706  -7.177  50.953  0.00  0.00    -0.046 A 
ATOM     15  C23 <0> A   1     -24.150  -8.008  51.924  0.00  0.00    +0.023 A 
ATOM     16  C24 <0> A   1     -23.366  -9.079  51.546  0.00  0.00    +0.002 A 
ATOM     17  C25 <0> A   1     -23.131  -9.329  50.205  0.00  0.00    +0.011 A 
ATOM     18  C26 <0> A   1     -23.681  -8.508  49.237  0.00  0.00    -0.001 A 
ATOM     19  C27 <0> A   1     -24.471  -7.437  49.603  0.00  0.00    +0.054 A 
ENDBRANCH   3  14
BRANCH   1  21
ATOM     20  C1  <0> A   1     -29.896  -5.972  51.659  0.00  0.00    +0.033 C 
ATOM     21  C2  <0> A   1     -29.008  -5.386  52.758  0.00  0.00    +0.030 C 
ATOM     22  C3  <0> A   1     -28.957  -6.353  53.943  0.00  0.00    +0.033 C 
ENDBRANCH   1  21
BRANCH   6  23
ATOM     23  C9  <0> A   1     -27.889  -2.706  52.462  0.00  0.00    -0.001 C 
ATOM     24  C10 <0> A   1     -28.800  -2.225  51.626  0.00  0.00    -0.031 C 
BRANCH  24  25
ATOM     25  C11 <0> A   1     -29.617  -1.019  52.014  0.00  0.00    +0.252 C 
BRANCH  25  26
ATOM     26  O4  <0> A   1     -30.997  -1.381  52.084  0.00  0.00    -0.537 OA
ATOM     27  H18 <0> A   1     -31.601  -0.691  51.777  0.00  0.00    +0.366 HD
ENDBRANCH  25  26
BRANCH  25  28
ATOM     28  C12 <0> A   1     -29.154  -0.509  53.379  0.00  0.00    -0.041 C 
BRANCH  28  29
ATOM     29  C13 <0> A   1     -28.538   0.883  53.222  0.00  0.00    +0.232 C 
BRANCH  29  30
ATOM     30  O3  <0> A   1     -27.137   0.757  52.969  0.00  0.00    -0.528 OA
ATOM     31  H17 <0> A   1     -26.914   0.656  52.033  0.00  0.00    +0.350 HD
ENDBRANCH  29  30
BRANCH  29  32
ATOM     32  C14 <0> A   1     -29.205   1.607  52.051  0.00  0.00    -0.102 C 
BRANCH  32  33
ATOM     33  C15 <0> A   1     -28.147   2.107  51.101  0.00  0.00    +0.491 C 
ATOM     34  O1  <0> A   1     -27.632   3.198  51.282  0.00  0.00    -0.681 OA
ATOM     35  O2  <0> A   1     -27.807   1.421  50.152  0.00  0.00    -0.713 OA
ENDBRANCH  32  33
ENDBRANCH  29  32
ENDBRANCH  28  29
ENDBRANCH  25  28
ENDBRANCH  24  25
ENDBRANCH   6  23
TORSDOF 11
