REMARK VINA RESULT:      -7.2      2.502      4.495
REMARK  Name = CHEMBL143143
REMARK  13 active torsions:
REMARK  status: ('A' for Active; 'I' for Inactive)
REMARK    1  A    between atoms: C1_1  and  C2_2
REMARK    2  A    between atoms: C2_2  and  C3_3
REMARK    3  A    between atoms: C2_2  and  C4_4
REMARK    4  A    between atoms: C7_7  and  C15_21
REMARK    5  A    between atoms: N1_8  and  C8_9
REMARK    6  A    between atoms: C8_9  and  C9_10
REMARK    7  A    between atoms: C9_10  and  C10_11
REMARK    8  A    between atoms: C10_11  and  C11_12
REMARK    9  A    between atoms: C10_11  and  O4_20
REMARK   10  A    between atoms: C11_12  and  C12_13
REMARK   11  A    between atoms: C12_13  and  C13_15
REMARK   12  A    between atoms: C12_13  and  O3_19
REMARK   13  A    between atoms: C13_15  and  C14_16
REMARK                            x       y       z     vdW  Elec       q    Type
REMARK                         _______ _______ _______ _____ _____    ______ ____
ROOT
ATOM      1  C4  <0> A   1     -14.832   8.585  47.616  0.00  0.00    +0.089 C 
ATOM      2  C5  <0> A   1     -15.226   7.295  47.562  0.00  0.00    -0.144 C 
ATOM      3  C6  <0> A   1     -14.766   6.757  46.348  0.00  0.00    -0.126 C 
ATOM      4  C7  <0> A   1     -14.098   7.748  45.692  0.00  0.00    +0.099 C 
ATOM      5  N1  <0> A   1     -14.145   8.876  46.473  0.00  0.00    -0.417 N 
ATOM      6 Br1  <0> A   1     -15.024   4.986  45.737  0.00  0.00    -0.015 Br
ATOM      7 Br2  <0> A   1     -16.218   6.376  48.884  0.00  0.00    -0.013 Br
ENDROOT
BRANCH   4   8
ATOM      8  C15 <0> A   1     -13.444   7.630  44.372  0.00  0.00    -0.041 A 
ATOM      9  C16 <0> A   1     -14.209   7.376  43.232  0.00  0.00    +0.056 A 
ATOM     10  C17 <0> A   1     -13.593   7.268  42.003  0.00  0.00    -0.007 A 
ATOM     11  C18 <0> A   1     -12.219   7.411  41.897  0.00  0.00    +0.110 A 
ATOM     12  C19 <0> A   1     -11.455   7.663  43.025  0.00  0.00    -0.007 A 
ATOM     13  C20 <0> A   1     -12.061   7.779  44.260  0.00  0.00    +0.080 A 
ATOM     14  F1  <0> A   1     -11.621   7.304  40.690  0.00  0.00    -0.136 F 
ENDBRANCH   4   8
BRANCH   1  16
ATOM     15  C1  <0> A   1     -13.833  10.321  49.078  0.00  0.00    +0.040 C 
ATOM     16  C2  <0> A   1     -15.109   9.545  48.744  0.00  0.00    +0.053 C 
ATOM     17  C3  <0> A   1     -16.206  10.524  48.322  0.00  0.00    +0.041 C 
ENDBRANCH   1  16
BRANCH   5  18
ATOM     18  C8  <0> A   1     -13.554  10.172  46.137  0.00  0.00    +0.302 C 
BRANCH  18  19
ATOM     19  C9  <0> A   1     -14.487  10.930  45.191  0.00  0.00    -0.014 C 
BRANCH  19  20
ATOM     20  C10 <0> A   1     -13.672  11.538  44.048  0.00  0.00    +0.218 C 
BRANCH  20  21
ATOM     21  O4  <0> A   1     -12.284  11.281  44.264  0.00  0.00    -0.541 OA
ATOM     22  H19 <0> A   1     -11.835  10.880  43.508  0.00  0.00    +0.367 HD
ENDBRANCH  20  21
BRANCH  20  23
ATOM     23  C11 <0> A   1     -14.107  10.909  42.721  0.00  0.00    -0.047 C 
BRANCH  23  24
ATOM     24  C12 <0> A   1     -13.242  11.464  41.588  0.00  0.00    +0.231 C 
BRANCH  24  25
ATOM     25  O3  <0> A   1     -11.968  10.817  41.598  0.00  0.00    -0.528 OA
ATOM     26  H18 <0> A   1     -11.375  11.128  42.296  0.00  0.00    +0.350 HD
ENDBRANCH  24  25
BRANCH  24  27
ATOM     27  C13 <0> A   1     -13.934  11.207  40.247  0.00  0.00    -0.102 C 
BRANCH  27  28
ATOM     28  C14 <0> A   1     -12.894  11.066  39.165  0.00  0.00    +0.491 C 
ATOM     29  O1  <0> A   1     -12.580   9.959  38.761  0.00  0.00    -0.681 OA
ATOM     30  O2  <0> A   1     -12.368  12.060  38.692  0.00  0.00    -0.712 OA
ENDBRANCH  27  28
ENDBRANCH  24  27
ENDBRANCH  23  24
ENDBRANCH  20  23
ENDBRANCH  19  20
ENDBRANCH  18  19
ENDBRANCH   5  18
TORSDOF 11
