REMARK VINA RESULT:      -7.6      3.492      9.395
REMARK  Name = CHEMBL398240
REMARK  17 active torsions:
REMARK  status: ('A' for Active; 'I' for Inactive)
REMARK    1  A    between atoms: C1_1  and  C2_2
REMARK    2  A    between atoms: C2_2  and  C3_3
REMARK    3  A    between atoms: C2_2  and  N1_4
REMARK    4  A    between atoms: C4_5  and  C27_32
REMARK    5  A    between atoms: C5_6  and  C21_25
REMARK    6  A    between atoms: C6_7  and  C15_19
REMARK    7  A    between atoms: C7_8  and  C8_9
REMARK    8  A    between atoms: N2_11  and  C9_12
REMARK    9  A    between atoms: C9_12  and  C10_13
REMARK   10  A    between atoms: C27_32  and  C28_33
REMARK   11  A    between atoms: C28_33  and  C29_34
REMARK   12  A    between atoms: C29_34  and  C30_36
REMARK   13  A    between atoms: C29_34  and  O5_44
REMARK   14  A    between atoms: C30_36  and  C31_37
REMARK   15  A    between atoms: C31_37  and  C32_39
REMARK   16  A    between atoms: C31_37  and  O4_43
REMARK   17  A    between atoms: C32_39  and  C33_40
REMARK                            x       y       z     vdW  Elec       q    Type
REMARK                         _______ _______ _______ _____ _____    ______ ____
ROOT
ATOM      1  N1  <0> A   1     -14.730   9.954  47.231  0.00  0.00    -0.402 N 
ATOM      2  C4  <0> A   1     -15.749   9.429  47.954  0.00  0.00    +0.073 C 
ATOM      3  C5  <0> A   1     -15.951   8.138  47.565  0.00  0.00    -0.122 C 
ATOM      4  C6  <0> A   1     -15.009   7.848  46.546  0.00  0.00    -0.058 C 
ATOM      5  C7  <0> A   1     -14.261   9.003  46.354  0.00  0.00    -0.030 C 
ENDROOT
BRANCH   3   6
ATOM      6  C21 <0> A   1     -16.971   7.208  48.108  0.00  0.00    -0.008 A 
ATOM      7  C22 <0> A   1     -16.641   6.336  49.144  0.00  0.00    +0.050 A 
ATOM      8  C23 <0> A   1     -17.594   5.473  49.645  0.00  0.00    -0.016 A 
ATOM      9  C24 <0> A   1     -18.876   5.471  49.120  0.00  0.00    +0.095 A 
ATOM     10  C25 <0> A   1     -19.208   6.335  48.090  0.00  0.00    -0.017 A 
ATOM     11  C26 <0> A   1     -18.264   7.207  47.587  0.00  0.00    +0.055 A 
ATOM     12  F1  <0> A   1     -19.804   4.623  49.615  0.00  0.00    -0.142 F 
ENDBRANCH   3   6
BRANCH   4  13
ATOM     13  C15 <0> A   1     -14.854   6.564  45.824  0.00  0.00    -0.012 A 
ATOM     14  C16 <0> A   1     -15.397   6.409  44.548  0.00  0.00    +0.024 A 
ATOM     15  C17 <0> A   1     -15.251   5.211  43.880  0.00  0.00    +0.001 A 
ATOM     16  C18 <0> A   1     -14.568   4.164  44.473  0.00  0.00    -0.003 A 
ATOM     17  C19 <0> A   1     -14.028   4.311  45.739  0.00  0.00    +0.003 A 
ATOM     18  C20 <0> A   1     -14.162   5.507  46.414  0.00  0.00    +0.013 A 
ENDBRANCH   4  13
BRANCH   5  19
ATOM     19  C8  <0> A   1     -13.170   9.177  45.392  0.00  0.00    +0.606 C 
ATOM     20  O1  <0> A   1     -12.078   8.687  45.617  0.00  0.00    -0.519 OA
ATOM     21  N2  <0> A   1     -13.374   9.879  44.261  0.00  0.00    -0.713 N 
ATOM     22  H10 <0> A   1     -14.223  10.325  44.113  0.00  0.00    +0.404 HD
BRANCH  21  23
ATOM     23  C9  <0> A   1     -12.314   9.970  43.254  0.00  0.00    +0.348 C 
BRANCH  23  24
ATOM     24  C10 <0> A   1     -12.898  10.452  41.951  0.00  0.00    +0.105 A 
ATOM     25  C11 <0> A   1     -14.155  11.026  41.937  0.00  0.00    -0.016 A 
ATOM     26  C12 <0> A   1     -14.683  11.467  40.734  0.00  0.00    +0.063 A 
ATOM     27  C13 <0> A   1     -13.923  11.314  39.583  0.00  0.00    -0.027 A 
ATOM     28  C14 <0> A   1     -12.674  10.731  39.675  0.00  0.00    +0.260 A 
ATOM     29  N3  <0> A   1     -12.201  10.328  40.839  0.00  0.00    -0.466 NA
ENDBRANCH  23  24
ENDBRANCH  21  23
ENDBRANCH   5  19
BRANCH   1  31
ATOM     30  C1  <0> A   1     -15.385  12.304  47.404  0.00  0.00    +0.046 C 
ATOM     31  C2  <0> A   1     -14.215  11.319  47.359  0.00  0.00    +0.229 C 
ATOM     32  C3  <0> A   1     -13.398  11.438  48.648  0.00  0.00    +0.042 C 
ENDBRANCH   1  31
BRANCH   2  33
ATOM     33  C27 <0> A   1     -16.531  10.154  49.018  0.00  0.00    +0.117 C 
BRANCH  33  34
ATOM     34  C28 <0> A   1     -16.003   9.760  50.398  0.00  0.00    -0.007 C 
BRANCH  34  35
ATOM     35  C29 <0> A   1     -17.169   9.323  51.285  0.00  0.00    +0.212 C 
BRANCH  35  36
ATOM     36  O5  <0> A   1     -17.192  10.119  52.471  0.00  0.00    -0.541 OA
ATOM     37  H35 <0> A   1     -17.937   9.928  53.058  0.00  0.00    +0.362 HD
ENDBRANCH  35  36
BRANCH  35  38
ATOM     38  C30 <0> A   1     -18.484   9.504  50.524  0.00  0.00    -0.051 C 
BRANCH  38  39
ATOM     39  C31 <0> A   1     -19.632   8.898  51.336  0.00  0.00    +0.230 C 
BRANCH  39  40
ATOM     40  O4  <0> A   1     -20.014   9.806  52.371  0.00  0.00    -0.528 OA
ATOM     41  H34 <0> A   1     -19.821   9.488  53.263  0.00  0.00    +0.349 HD
ENDBRANCH  39  40
BRANCH  39  42
ATOM     42  C32 <0> A   1     -20.827   8.642  50.416  0.00  0.00    -0.103 C 
BRANCH  42  43
ATOM     43  C33 <0> A   1     -21.981   9.515  50.837  0.00  0.00    +0.490 C 
ATOM     44  O2  <0> A   1     -22.094  10.639  50.377  0.00  0.00    -0.681 OA
ATOM     45  O3  <0> A   1     -22.800   9.098  51.638  0.00  0.00    -0.713 OA
ENDBRANCH  42  43
ENDBRANCH  39  42
ENDBRANCH  38  39
ENDBRANCH  35  38
ENDBRANCH  34  35
ENDBRANCH  33  34
ENDBRANCH   2  33
TORSDOF 15
