REMARK VINA RESULT:      -7.8      1.704      2.589
REMARK  Name = CHEMBL421614
REMARK  9 active torsions:
REMARK  status: ('A' for Active; 'I' for Inactive)
REMARK    1  A    between atoms: C1_1  and  C2_2
REMARK    2  A    between atoms: C2_2  and  C3_3
REMARK    3  A    between atoms: C2_2  and  C4_4
REMARK    4  A    between atoms: C5_5  and  C19_23
REMARK    5  A    between atoms: C6_6  and  C13_16
REMARK    6  A    between atoms: N1_7  and  C7_9
REMARK    7  A    between atoms: C19_23  and  C20_24
REMARK    8  A    between atoms: C20_24  and  C21_25
REMARK    9  A    between atoms: C23_28  and  O3_34
REMARK                            x       y       z     vdW  Elec       q    Type
REMARK                         _______ _______ _______ _____ _____    ______ ____
ROOT
ATOM      1  C4  <0> A   1     -28.091  -3.803  50.995  0.00  0.00    +0.098 C 
ATOM      2  C5  <0> A   1     -26.896  -3.566  51.673  0.00  0.00    -0.197 C 
ATOM      3  C6  <0> A   1     -26.825  -2.228  51.944  0.00  0.00    +0.128 C 
ATOM      4  N1  <0> A   1     -27.957  -1.653  51.442  0.00  0.00    -0.321 N 
ATOM      5  N2  <0> A   1     -28.723  -2.665  50.851  0.00  0.00    -0.270 NA
ENDROOT
BRANCH   4   6
ATOM      6  C7  <0> A   1     -28.290  -0.292  51.503  0.00  0.00    +0.144 A 
ATOM      7  C8  <0> A   1     -27.631   0.621  50.691  0.00  0.00    +0.044 A 
ATOM      8  C9  <0> A   1     -27.960   1.961  50.752  0.00  0.00    +0.016 A 
ATOM      9  C10 <0> A   1     -28.947   2.394  51.622  0.00  0.00    +0.100 A 
ATOM     10  C11 <0> A   1     -29.605   1.484  52.432  0.00  0.00    +0.013 A 
ATOM     11  C12 <0> A   1     -29.284   0.143  52.370  0.00  0.00    +0.063 A 
ATOM     12  F1  <0> A   1     -29.268   3.705  51.681  0.00  0.00    -0.133 F 
ENDBRANCH   4   6
BRANCH   3  13
ATOM     13  C13 <0> A   1     -25.728  -1.533  52.651  0.00  0.00    -0.051 A 
ATOM     14  C14 <0> A   1     -25.853  -1.225  54.006  0.00  0.00    +0.086 A 
ATOM     15  C15 <0> A   1     -24.826  -0.578  54.662  0.00  0.00    -0.004 A 
ATOM     16  C16 <0> A   1     -23.672  -0.232  53.977  0.00  0.00    +0.114 A 
ATOM     17  C17 <0> A   1     -23.543  -0.536  52.630  0.00  0.00    -0.010 A 
ATOM     18  C18 <0> A   1     -24.561  -1.188  51.967  0.00  0.00    +0.062 A 
ATOM     19  F2  <0> A   1     -22.670   0.403  54.622  0.00  0.00    -0.135 F 
ENDBRANCH   3  13
BRANCH   1  21
ATOM     20  C1  <0> A   1     -30.098  -5.125  50.382  0.00  0.00    +0.036 C 
ATOM     21  C2  <0> A   1     -28.572  -5.144  50.504  0.00  0.00    +0.075 C 
ATOM     22  C3  <0> A   1     -27.955  -5.437  49.136  0.00  0.00    +0.037 C 
ENDBRANCH   1  21
BRANCH   2  23
ATOM     23  C19 <0> A   1     -25.864  -4.601  52.041  0.00  0.00    +0.111 C 
BRANCH  23  24
ATOM     24  C20 <0> A   1     -24.769  -4.632  50.973  0.00  0.00    +0.056 C 
BRANCH  24  25
ATOM     25  C21 <0> A   1     -24.289  -6.071  50.777  0.00  0.00    +0.197 C 
ATOM     26  C22 <0> A   1     -24.962  -6.979  51.811  0.00  0.00    +0.040 C 
ATOM     27  C23 <0> A   1     -24.511  -8.427  51.585  0.00  0.00    +0.184 C 
ATOM     28  C24 <0> A   1     -24.906  -8.854  50.165  0.00  0.00    +0.020 C 
ATOM     29  C25 <0> A   1     -24.386  -7.815  49.196  0.00  0.00    +0.496 C 
ATOM     30  O1  <0> A   1     -23.765  -8.140  48.211  0.00  0.00    -0.453 OA
ATOM     31  O2  <0> A   1     -24.635  -6.516  49.461  0.00  0.00    -0.366 OA
BRANCH  27  32
ATOM     32  O3  <0> A   1     -23.092  -8.516  51.737  0.00  0.00    -0.563 OA
ATOM     33  H26 <0> A   1     -22.594  -8.067  51.040  0.00  0.00    +0.386 HD
ENDBRANCH  27  32
ENDBRANCH  24  25
ENDBRANCH  23  24
ENDBRANCH   2  23
TORSDOF 7
