REMARK VINA RESULT:      -7.6      3.257      4.052
REMARK  Name = CHEMBL511255
REMARK  12 active torsions:
REMARK  status: ('A' for Active; 'I' for Inactive)
REMARK    1  A    between atoms: C1_1  and  C2_2
REMARK    2  A    between atoms: C2_2  and  C3_3
REMARK    3  A    between atoms: C2_2  and  C4_4
REMARK    4  A    between atoms: C5_5  and  C17_23
REMARK    5  A    between atoms: C6_6  and  C11_16
REMARK    6  A    between atoms: C18_24  and  C19_25
REMARK    7  A    between atoms: C19_25  and  C20_27
REMARK    8  A    between atoms: C19_25  and  O5_35
REMARK    9  A    between atoms: C20_27  and  C21_28
REMARK   10  A    between atoms: C21_28  and  C22_30
REMARK   11  A    between atoms: C21_28  and  O4_34
REMARK   12  A    between atoms: C22_30  and  C23_31
REMARK                            x       y       z     vdW  Elec       q    Type
REMARK                         _______ _______ _______ _____ _____    ______ ____
ROOT
ATOM      1  C4  <0> A   1     -15.929   6.128  46.088  0.00  0.00    +0.240 A 
ATOM      2  C5  <0> A   1     -15.529   7.438  46.368  0.00  0.00    -0.174 A 
ATOM      3  C6  <0> A   1     -16.312   8.196  47.264  0.00  0.00    +0.264 A 
ATOM      4  N1  <0> A   1     -17.392   7.635  47.803  0.00  0.00    -0.544 NA
ATOM      5  C7  <0> A   1     -17.726   6.390  47.506  0.00  0.00    +0.564 A 
ATOM      6  N2  <0> A   1     -17.017   5.652  46.665  0.00  0.00    -0.543 NA
ATOM      7  N3  <0> A   1     -18.859   5.843  48.089  0.00  0.00    -0.595 N 
ATOM      8  C8  <0> A   1     -19.623   6.602  48.973  0.00  0.00    +0.348 C 
ATOM      9  C9  <0> A   1     -19.368   7.937  49.359  0.00  0.00    -0.091 C 
ATOM     10  C10 <0> A   1     -20.328   8.314  50.221  0.00  0.00    +0.258 C 
ATOM     11  O1  <0> A   1     -21.167   7.280  50.390  0.00  0.00    -0.076 OA
ATOM     12  N4  <0> A   1     -20.708   6.207  49.587  0.00  0.00    -0.362 NA
ATOM     13  H10 <0> A   1     -19.118   4.932  47.883  0.00  0.00    +0.435 HD
ENDROOT
BRANCH   3  14
ATOM     14  C11 <0> A   1     -15.939   9.589  47.598  0.00  0.00    -0.075 A 
ATOM     15  C12 <0> A   1     -16.487  10.652  46.880  0.00  0.00    +0.100 A 
ATOM     16  C13 <0> A   1     -16.137  11.948  47.195  0.00  0.00    -0.012 A 
ATOM     17  C14 <0> A   1     -15.243  12.195  48.225  0.00  0.00    +0.123 A 
ATOM     18  C15 <0> A   1     -14.696  11.143  48.942  0.00  0.00    -0.022 A 
ATOM     19  C16 <0> A   1     -15.045   9.844  48.638  0.00  0.00    +0.088 A 
ATOM     20  F1  <0> A   1     -14.903  13.467  48.530  0.00  0.00    -0.134 F 
ENDBRANCH   3  14
BRANCH   1  22
ATOM     21  C1  <0> A   1     -14.406   4.178  45.924  0.00  0.00    +0.045 C 
ATOM     22  C2  <0> A   1     -15.130   5.273  45.138  0.00  0.00    +0.052 C 
ATOM     23  C3  <0> A   1     -16.071   4.631  44.117  0.00  0.00    +0.045 C 
ENDBRANCH   1  22
BRANCH   2  24
ATOM     24  C17 <0> A   1     -14.322   8.014  45.743  0.00  0.00    +0.011 C 
ATOM     25  C18 <0> A   1     -13.118   7.664  46.177  0.00  0.00    -0.033 C 
BRANCH  25  26
ATOM     26  C19 <0> A   1     -11.887   8.253  45.539  0.00  0.00    +0.252 C 
BRANCH  26  27
ATOM     27  O5  <0> A   1     -11.444   7.400  44.482  0.00  0.00    -0.537 OA
ATOM     28  H24 <0> A   1     -10.815   6.721  44.762  0.00  0.00    +0.366 HD
ENDBRANCH  26  27
BRANCH  26  29
ATOM     29  C20 <0> A   1     -12.216   9.636  44.974  0.00  0.00    -0.041 C 
BRANCH  29  30
ATOM     30  C21 <0> A   1     -11.835  10.709  45.996  0.00  0.00    +0.232 C 
BRANCH  30  31
ATOM     31  O4  <0> A   1     -10.474  11.097  45.796  0.00  0.00    -0.528 OA
ATOM     32  H23 <0> A   1     -10.347  12.051  45.706  0.00  0.00    +0.350 HD
ENDBRANCH  30  31
BRANCH  30  33
ATOM     33  C22 <0> A   1     -12.745  11.927  45.820  0.00  0.00    -0.102 C 
BRANCH  33  34
ATOM     34  C23 <0> A   1     -12.032  13.161  46.312  0.00  0.00    +0.490 C 
ATOM     35  O2  <0> A   1     -12.003  13.414  47.504  0.00  0.00    -0.681 OA
ATOM     36  O3  <0> A   1     -11.486  13.907  45.517  0.00  0.00    -0.713 OA
ENDBRANCH  33  34
ENDBRANCH  30  33
ENDBRANCH  29  30
ENDBRANCH  26  29
ENDBRANCH  25  26
ENDBRANCH   2  24
TORSDOF 10
