REMARK VINA RESULT:      -7.1     20.334     23.358
REMARK  Name = CHEMBL170906
REMARK  9 active torsions:
REMARK  status: ('A' for Active; 'I' for Inactive)
REMARK    1  A    between atoms: C1_1  and  C2_2
REMARK    2  A    between atoms: C4_5  and  O4_28
REMARK    3  A    between atoms: C6_8  and  C13_17
REMARK    4  A    between atoms: C7_10  and  C12_16
REMARK    5  A    between atoms: C13_17  and  C14_18
REMARK    6  A    between atoms: C14_18  and  C15_19
REMARK    7  A    between atoms: C17_21  and  O3_27
REMARK    8  A    between atoms: O4_28  and  C20_29
REMARK    9  A    between atoms: C20_29  and  C21_31
REMARK                            x       y       z     vdW  Elec       q    Type
REMARK                         _______ _______ _______ _____ _____    ______ ____
ROOT
ATOM      1  C1  <0> A   1     -26.081   0.352  56.124  0.00  0.00    +0.033 C 
ATOM      2  C2  <0> A   1     -25.548   0.188  54.698  0.00  0.00    +0.025 C 
ATOM      3  C3  <0> A   1     -26.440  -0.788  53.918  0.00  0.00    +0.020 C 
ATOM      4  C4  <0> A   1     -25.895  -0.906  52.497  0.00  0.00    +0.174 C 
ATOM      5  C5  <0> A   1     -24.467  -1.398  52.480  0.00  0.00    +0.040 C 
ATOM      6  C6  <0> A   1     -24.380  -2.897  52.184  0.00  0.00    +0.013 C 
ATOM      7  C7  <0> A   1     -22.915  -3.268  51.954  0.00  0.00    +0.022 C 
ATOM      8  C8  <0> A   1     -22.033  -2.749  53.049  0.00  0.00    -0.032 C 
ATOM      9  C9  <0> A   1     -22.370  -1.768  53.868  0.00  0.00    -0.006 C 
ATOM     10  C10 <0> A   1     -23.698  -1.125  53.740  0.00  0.00    -0.086 C 
ATOM     11  C11 <0> A   1     -24.157  -0.392  54.737  0.00  0.00    -0.022 C 
ATOM     12  C12 <0> A   1     -22.453  -2.676  50.620  0.00  0.00    +0.029 C 
ENDROOT
BRANCH   6  13
ATOM     13  C13 <0> A   1     -25.198  -3.220  50.932  0.00  0.00    +0.058 C 
BRANCH  13  14
ATOM     14  C14 <0> A   1     -25.978  -4.518  51.154  0.00  0.00    +0.040 C 
BRANCH  14  15
ATOM     15  C15 <0> A   1     -25.096  -5.712  50.786  0.00  0.00    +0.193 C 
ATOM     16  C16 <0> A   1     -25.803  -6.563  49.728  0.00  0.00    +0.039 C 
ATOM     17  C17 <0> A   1     -24.935  -7.781  49.393  0.00  0.00    +0.183 C 
ATOM     18  C18 <0> A   1     -24.712  -8.599  50.672  0.00  0.00    +0.019 C 
ATOM     19  C19 <0> A   1     -24.198  -7.667  51.747  0.00  0.00    +0.495 C 
ATOM     20  O1  <0> A   1     -23.225  -7.952  52.404  0.00  0.00    -0.453 OA
ATOM     21  O2  <0> A   1     -24.857  -6.508  51.952  0.00  0.00    -0.366 OA
BRANCH  17  22
ATOM     22  O3  <0> A   1     -23.676  -7.343  48.876  0.00  0.00    -0.563 OA
ATOM     23  H27 <0> A   1     -22.912  -7.745  49.311  0.00  0.00    +0.386 HD
ENDBRANCH  17  22
ENDBRANCH  14  15
ENDBRANCH  13  14
ENDBRANCH   6  13
BRANCH   4  24
ATOM     24  O4  <0> A   1     -26.708  -1.823  51.761  0.00  0.00    -0.315 OA
BRANCH  24  25
ATOM     25  C20 <0> A   1     -27.850  -1.343  51.243  0.00  0.00    +0.480 C 
ATOM     26  O5  <0> A   1     -27.837  -0.325  50.592  0.00  0.00    -0.504 OA
BRANCH  25  27
ATOM     27  C21 <0> A   1     -29.147  -2.075  51.470  0.00  0.00    -0.041 C 
ATOM     28  C22 <0> A   1     -29.157  -3.183  52.525  0.00  0.00    +0.065 C 
ATOM     29  C23 <0> A   1     -29.860  -1.852  52.805  0.00  0.00    +0.074 C 
ENDBRANCH  25  27
ENDBRANCH  24  25
ENDBRANCH   4  24
TORSDOF 7
