REMARK VINA RESULT:      -7.4     13.941     17.623
REMARK  Name = CHEMBL63204
REMARK  12 active torsions:
REMARK  status: ('A' for Active; 'I' for Inactive)
REMARK    1  A    between atoms: C1_1  and  C2_2
REMARK    2  A    between atoms: C2_2  and  C3_3
REMARK    3  A    between atoms: C2_2  and  C4_4
REMARK    4  A    between atoms: C5_5  and  C18_22
REMARK    5  A    between atoms: C6_6  and  C12_15
REMARK    6  A    between atoms: C19_23  and  C20_24
REMARK    7  A    between atoms: C20_24  and  C21_25
REMARK    8  A    between atoms: C20_24  and  O4_33
REMARK    9  A    between atoms: C21_25  and  C22_26
REMARK   10  A    between atoms: C22_26  and  C23_28
REMARK   11  A    between atoms: C22_26  and  O3_32
REMARK   12  A    between atoms: C23_28  and  C24_29
REMARK                            x       y       z     vdW  Elec       q    Type
REMARK                         _______ _______ _______ _____ _____    ______ ____
ROOT
ATOM      1  C4  <0> A   1     -23.513   1.471  51.338  0.00  0.00    +0.116 C 
ATOM      2  C5  <0> A   1     -23.969   0.153  51.144  0.00  0.00    -0.169 C 
ATOM      3  C6  <0> A   1     -25.356   0.180  51.225  0.00  0.00    +0.148 C 
ATOM      4  N1  <0> A   1     -25.715   1.478  51.459  0.00  0.00    -0.321 N 
ATOM      5  N2  <0> A   1     -24.547   2.246  51.528  0.00  0.00    -0.275 NA
ATOM      6  C7  <0> A   1     -27.020   1.953  51.610  0.00  0.00    +0.368 A 
ATOM      7  C8  <0> A   1     -27.248   3.121  52.328  0.00  0.00    -0.015 A 
ATOM      8  C9  <0> A   1     -28.546   3.581  52.470  0.00  0.00    +0.089 A 
ATOM      9  C10 <0> A   1     -29.573   2.854  51.884  0.00  0.00    -0.041 A 
ATOM     10  C11 <0> A   1     -29.273   1.703  51.183  0.00  0.00    +0.295 A 
ATOM     11  N3  <0> A   1     -28.026   1.291  51.061  0.00  0.00    -0.490 NA
ENDROOT
BRANCH   3  12
ATOM     12  C12 <0> A   1     -26.269  -0.972  51.082  0.00  0.00    -0.033 A 
ATOM     13  C13 <0> A   1     -26.705  -1.664  52.215  0.00  0.00    +0.088 A 
ATOM     14  C14 <0> A   1     -27.557  -2.739  52.077  0.00  0.00    -0.011 A 
ATOM     15  C15 <0> A   1     -27.981  -3.134  50.817  0.00  0.00    +0.112 A 
ATOM     16  C16 <0> A   1     -27.551  -2.450  49.690  0.00  0.00    -0.021 A 
ATOM     17  C17 <0> A   1     -26.704  -1.370  49.817  0.00  0.00    +0.074 A 
ATOM     18  F1  <0> A   1     -28.816  -4.188  50.687  0.00  0.00    -0.138 F 
ENDBRANCH   3  12
BRANCH   1  20
ATOM     19  C1  <0> A   1     -21.957   3.267  50.629  0.00  0.00    +0.037 C 
ATOM     20  C2  <0> A   1     -22.072   1.914  51.333  0.00  0.00    +0.081 C 
ATOM     21  C3  <0> A   1     -21.574   2.044  52.774  0.00  0.00    +0.038 C 
ENDBRANCH   1  20
BRANCH   2  22
ATOM     22  C18 <0> A   1     -23.130  -1.037  50.901  0.00  0.00    +0.040 C 
ATOM     23  C19 <0> A   1     -22.721  -1.781  51.920  0.00  0.00    -0.054 C 
BRANCH  23  24
ATOM     24  C20 <0> A   1     -21.864  -2.996  51.672  0.00  0.00    +0.251 C 
BRANCH  24  25
ATOM     25  O4  <0> A   1     -21.814  -3.264  50.269  0.00  0.00    -0.538 OA
ATOM     26  H25 <0> A   1     -20.916  -3.307  49.910  0.00  0.00    +0.366 HD
ENDBRANCH  24  25
BRANCH  24  27
ATOM     27  C21 <0> A   1     -20.450  -2.738  52.194  0.00  0.00    -0.042 C 
BRANCH  27  28
ATOM     28  C22 <0> A   1     -20.294  -3.370  53.579  0.00  0.00    +0.230 C 
BRANCH  28  29
ATOM     29  O3  <0> A   1     -20.981  -4.623  53.611  0.00  0.00    -0.528 OA
ATOM     30  H24 <0> A   1     -20.416  -5.386  53.432  0.00  0.00    +0.350 HD
ENDBRANCH  28  29
BRANCH  28  31
ATOM     31  C23 <0> A   1     -18.810  -3.596  53.873  0.00  0.00    -0.102 C 
BRANCH  31  32
ATOM     32  C24 <0> A   1     -18.580  -5.046  54.215  0.00  0.00    +0.491 C 
ATOM     33  O1  <0> A   1     -18.784  -5.444  55.349  0.00  0.00    -0.681 OA
ATOM     34  O2  <0> A   1     -18.189  -5.819  53.358  0.00  0.00    -0.714 OA
ENDBRANCH  31  32
ENDBRANCH  28  31
ENDBRANCH  27  28
ENDBRANCH  24  27
ENDBRANCH  23  24
ENDBRANCH   2  22
TORSDOF 10
