REMARK VINA RESULT:      -7.0     16.295     18.791
REMARK  Name = CHEMBL76073
REMARK  13 active torsions:
REMARK  status: ('A' for Active; 'I' for Inactive)
REMARK    1  A    between atoms: C1_1  and  C2_2
REMARK    2  A    between atoms: C2_2  and  C3_3
REMARK    3  A    between atoms: C3_3  and  C4_4
REMARK    4  A    between atoms: C3_3  and  C5_5
REMARK    5  A    between atoms: C3_3  and  C6_6
REMARK    6  A    between atoms: C6_6  and  O2_8
REMARK    7  A    between atoms: O2_8  and  C7_9
REMARK    8  A    between atoms: C9_12  and  C25_38
REMARK    9  A    between atoms: C13_19  and  C18_26
REMARK   10  A    between atoms: C14_21  and  C17_25
REMARK   11  A    between atoms: C19_27  and  C20_28
REMARK   12  A    between atoms: C22_31  and  O5_37
REMARK   13  A    between atoms: C26_39  and  C27_40
REMARK                            x       y       z     vdW  Elec       q    Type
REMARK                         _______ _______ _______ _____ _____    ______ ____
ROOT
ATOM      1  C7  <0> A   1     -14.954   9.722  46.786  0.00  0.00    +0.184 C 
ATOM      2  C8  <0> A   1     -16.355  10.028  47.326  0.00  0.00    +0.023 C 
ATOM      3  C9  <0> A   1     -16.335  10.042  48.855  0.00  0.00    +0.018 C 
ATOM      4  C10 <0> A   1     -15.341  11.093  49.359  0.00  0.00    +0.035 C 
ATOM      5  C11 <0> A   1     -13.954  10.756  48.817  0.00  0.00    +0.039 C 
ATOM      6  C12 <0> A   1     -13.987  10.794  47.285  0.00  0.00    +0.019 C 
ATOM      7  C13 <0> A   1     -12.571  10.549  46.763  0.00  0.00    +0.031 C 
ATOM      8  C14 <0> A   1     -11.706  11.752  47.150  0.00  0.00    +0.028 C 
ATOM      9  C15 <0> A   1     -11.919  12.123  48.587  0.00  0.00    -0.049 C 
ATOM     10  C16 <0> A   1     -12.913  11.710  49.311  0.00  0.00    -0.040 C 
ATOM     11  C17 <0> A   1     -12.073  12.943  46.263  0.00  0.00    +0.028 C 
ENDROOT
BRANCH   3  12
ATOM     12  C25 <0> A   1     -15.924   8.684  49.362  0.00  0.00    -0.015 C 
ATOM     13  C26 <0> A   1     -16.792   7.927  49.986  0.00  0.00    -0.075 C 
ATOM     14  C27 <0> A   1     -16.349   6.630  50.613  0.00  0.00    +0.056 C 
ENDBRANCH   3  12
BRANCH   7  15
ATOM     15  C18 <0> A   1     -12.600  10.403  45.263  0.00  0.00    +0.006 C 
ATOM     16  C19 <0> A   1     -11.843   9.510  44.678  0.00  0.00    -0.046 C 
BRANCH  16  17
ATOM     17  C20 <0> A   1     -11.872   9.364  43.178  0.00  0.00    +0.240 C 
ATOM     18  C21 <0> A   1     -12.969  10.260  42.598  0.00  0.00    +0.047 C 
ATOM     19  C22 <0> A   1     -13.023  10.077  41.077  0.00  0.00    +0.184 C 
ATOM     20  C23 <0> A   1     -13.319   8.604  40.765  0.00  0.00    +0.022 C 
ATOM     21  C24 <0> A   1     -12.327   7.750  41.523  0.00  0.00    +0.497 C 
ATOM     22  O3  <0> A   1     -11.715   6.869  40.967  0.00  0.00    -0.451 OA
ATOM     23  O4  <0> A   1     -12.144   8.001  42.836  0.00  0.00    -0.368 OA
BRANCH  19  24
ATOM     24  O5  <0> A   1     -11.767  10.447  40.506  0.00  0.00    -0.562 OA
ATOM     25  H35 <0> A   1     -11.752  10.423  39.539  0.00  0.00    +0.386 HD
ENDBRANCH  19  24
ENDBRANCH  16  17
ENDBRANCH   7  15
BRANCH   1  26
ATOM     26  O2  <0> A   1     -14.529   8.440  47.251  0.00  0.00    -0.328 OA
BRANCH  26  27
ATOM     27  C6  <0> A   1     -14.545   7.434  46.362  0.00  0.00    +0.464 C 
ATOM     28  O1  <0> A   1     -14.641   7.672  45.182  0.00  0.00    -0.498 OA
BRANCH  27  29
ATOM     29  C3  <0> A   1     -14.444   6.007  46.838  0.00  0.00    -0.051 C 
ATOM     30  C4  <0> A   1     -15.846   5.460  47.112  0.00  0.00    +0.060 C 
ATOM     31  C5  <0> A   1     -13.617   5.956  48.124  0.00  0.00    +0.058 C 
BRANCH  29  33
ATOM     32  C1  <0> A   1     -14.741   4.086  45.268  0.00  0.00    +0.022 C 
ATOM     33  C2  <0> A   1     -13.767   5.158  45.762  0.00  0.00    +0.036 C 
ENDBRANCH  29  33
ENDBRANCH  27  29
ENDBRANCH  26  27
ENDBRANCH   1  26
TORSDOF 8
