REMARK  Name = CHEMBL298482
REMARK  6 active torsions:
REMARK  status: ('A' for Active; 'I' for Inactive)
REMARK    1  A    between atoms: C3_3  and  C5_6
REMARK    2  A    between atoms: C5_6  and  O2_7
REMARK    3  A    between atoms: O2_7  and  C6_8
REMARK    4  A    between atoms: C11_13  and  C12_14
REMARK    5  A    between atoms: C13_15  and  C14_16
REMARK    6  A    between atoms: C16_18  and  O5_24
REMARK                            x       y       z     vdW  Elec       q    Type
REMARK                         _______ _______ _______ _____ _____    ______ ____
ROOT
ATOM      1  C6  <0> A   1       5.436   0.575   1.478  0.00  0.00    +0.169 A 
ATOM      2  C7  <0> A   1       6.271   0.567   0.372  0.00  0.00    -0.050 A 
ATOM      3  C8  <0> A   1       7.644   0.534   0.540  0.00  0.00    +0.017 A 
ATOM      4  C9  <0> A   1       8.193   0.509   1.812  0.00  0.00    +0.014 A 
ATOM      5  C10 <0> A   1       7.373   0.517   2.923  0.00  0.00    +0.017 A 
ATOM      6  C11 <0> A   1       5.987   0.556   2.765  0.00  0.00    -0.074 A 
ATOM      7 Cl1  <0> A   1       8.066   0.485   4.514  0.00  0.00    -0.036 Cl
ATOM      8 Cl2  <0> A   1       8.684   0.523  -0.849  0.00  0.00    -0.047 Cl
ENDROOT
BRANCH   6   9
ATOM      9  C12 <0> A   1       5.104   0.571   3.949  0.00  0.00    +0.055 C 
ATOM     10  C13 <0> A   1       5.279  -0.318   4.918  0.00  0.00    -0.009 C 
BRANCH  10  11
ATOM     11  C14 <0> A   1       4.380  -0.303   6.127  0.00  0.00    +0.243 C 
ATOM     12  C15 <0> A   1       3.738  -1.681   6.304  0.00  0.00    +0.051 C 
ATOM     13  C16 <0> A   1       2.792  -1.650   7.509  0.00  0.00    +0.186 C 
ATOM     14  C17 <0> A   1       1.712  -0.589   7.264  0.00  0.00    +0.023 C 
ATOM     15  C18 <0> A   1       2.396   0.710   6.897  0.00  0.00    +0.498 C 
ATOM     16  O3  <0> A   1       2.096   1.746   7.441  0.00  0.00    -0.451 OA
ATOM     17  O4  <0> A   1       3.351   0.677   5.944  0.00  0.00    -0.367 OA
BRANCH  13  18
ATOM     18  O5  <0> A   1       3.530  -1.323   8.688  0.00  0.00    -0.564 OA
ATOM     19  H16 <0> A   1       2.992  -1.286   9.491  0.00  0.00    +0.387 HD
ENDBRANCH  13  18
ENDBRANCH  10  11
ENDBRANCH   6   9
BRANCH   1  20
ATOM     20  O2  <0> A   1       4.088   0.607   1.313  0.00  0.00    -0.292 OA
BRANCH  20  21
ATOM     21  C5  <0> A   1       3.599   0.625  -0.029  0.00  0.00    +0.326 C 
BRANCH  21  24
ATOM     22  C1  <0> A   1      -0.016   1.341   0.009  0.00  0.00    -0.065 C 
ATOM     23  C2  <0> A   1       1.331   1.769  -0.001  0.00  0.00    -0.016 C 
ATOM     24  C3  <0> A   1       2.092   0.660  -0.014  0.00  0.00    -0.032 C 
ATOM     25  O1  <0> A   1       1.282  -0.411  -0.012  0.00  0.00    -0.170 OA
ATOM     26  C4  <0> A   1       0.002  -0.004   0.002  0.00  0.00    +0.187 C 
ENDBRANCH  21  24
ENDBRANCH  20  21
ENDBRANCH   1  20
TORSDOF 6
