REMARK VINA RESULT:      -8.1     16.566     20.369
REMARK  Name = CHEMBL123826
REMARK  15 active torsions:
REMARK  status: ('A' for Active; 'I' for Inactive)
REMARK    1  A    between atoms: C1_1  and  C2_2
REMARK    2  A    between atoms: C2_2  and  C3_3
REMARK    3  A    between atoms: C2_2  and  C4_4
REMARK    4  A    between atoms: C2_2  and  C5_5
REMARK    5  A    between atoms: C8_8  and  C11_11
REMARK    6  A    between atoms: C11_11  and  C12_12
REMARK    7  A    between atoms: N2_19  and  C26_34
REMARK    8  A    between atoms: C18_20  and  C19_21
REMARK    9  A    between atoms: C20_22  and  C21_23
REMARK   10  A    between atoms: C21_23  and  C22_25
REMARK   11  A    between atoms: C21_23  and  O4_33
REMARK   12  A    between atoms: C22_25  and  C23_26
REMARK   13  A    between atoms: C23_26  and  C24_28
REMARK   14  A    between atoms: C23_26  and  O3_32
REMARK   15  A    between atoms: C24_28  and  C25_29
REMARK                            x       y       z     vdW  Elec       q    Type
REMARK                         _______ _______ _______ _____ _____    ______ ____
ROOT
ATOM      1  C12 <0> A   1     -24.594  -5.809  51.193  0.00  0.00    +0.091 C 
ATOM      2  C13 <0> A   1     -23.705  -4.566  51.326  0.00  0.00    +0.028 C 
ATOM      3  C14 <0> A   1     -24.408  -3.357  50.707  0.00  0.00    +0.016 C 
ATOM      4  C15 <0> A   1     -25.580  -2.928  51.599  0.00  0.00    +0.103 C 
ATOM      5  C16 <0> A   1     -26.415  -4.148  51.898  0.00  0.00    -0.211 C 
ATOM      6  C17 <0> A   1     -25.969  -5.463  51.713  0.00  0.00    +0.089 C 
ATOM      7  N1  <0> A   1     -26.925  -6.280  52.059  0.00  0.00    -0.260 NA
ATOM      8  N2  <0> A   1     -28.029  -5.527  52.484  0.00  0.00    -0.331 N 
ATOM      9  C18 <0> A   1     -27.698  -4.203  52.381  0.00  0.00    +0.123 C 
ENDROOT
BRANCH   8  10
ATOM     10  C26 <0> A   1     -29.252  -6.040  52.937  0.00  0.00    +0.150 A 
ATOM     11  C27 <0> A   1     -29.437  -6.307  54.287  0.00  0.00    +0.047 A 
ATOM     12  C28 <0> A   1     -30.643  -6.811  54.731  0.00  0.00    +0.016 A 
ATOM     13  C29 <0> A   1     -31.669  -7.050  53.831  0.00  0.00    +0.097 A 
ATOM     14  C30 <0> A   1     -31.486  -6.784  52.484  0.00  0.00    +0.006 A 
ATOM     15  C31 <0> A   1     -30.283  -6.275  52.037  0.00  0.00    +0.057 A 
ATOM     16  F1  <0> A   1     -32.848  -7.543  54.268  0.00  0.00    -0.135 F 
ENDBRANCH   8  10
BRANCH   9  17
ATOM     17  C19 <0> A   1     -28.557  -3.055  52.720  0.00  0.00    +0.027 C 
ATOM     18  C20 <0> A   1     -29.252  -2.442  51.769  0.00  0.00    -0.028 C 
BRANCH  18  19
ATOM     19  C21 <0> A   1     -30.131  -1.268  52.118  0.00  0.00    +0.254 C 
BRANCH  19  20
ATOM     20  O4  <0> A   1     -31.474  -1.717  52.304  0.00  0.00    -0.537 OA
ATOM     21  H32 <0> A   1     -31.753  -2.396  51.675  0.00  0.00    +0.368 HD
ENDBRANCH  19  20
BRANCH  19  22
ATOM     22  C22 <0> A   1     -29.625  -0.618  53.408  0.00  0.00    -0.040 C 
BRANCH  22  23
ATOM     23  C23 <0> A   1     -28.910   0.691  53.072  0.00  0.00    +0.232 C 
BRANCH  23  24
ATOM     24  O3  <0> A   1     -27.498   0.474  53.058  0.00  0.00    -0.528 OA
ATOM     25  H31 <0> A   1     -27.178   0.017  52.267  0.00  0.00    +0.351 HD
ENDBRANCH  23  24
BRANCH  23  26
ATOM     26  C24 <0> A   1     -29.364   1.182  51.695  0.00  0.00    -0.102 C 
BRANCH  26  27
ATOM     27  C25 <0> A   1     -28.175   1.707  50.932  0.00  0.00    +0.491 C 
ATOM     28  O1  <0> A   1     -27.738   2.819  51.173  0.00  0.00    -0.681 OA
ATOM     29  O2  <0> A   1     -27.651   1.019  50.072  0.00  0.00    -0.713 OA
ENDBRANCH  26  27
ENDBRANCH  23  26
ENDBRANCH  22  23
ENDBRANCH  19  22
ENDBRANCH  18  19
ENDBRANCH   9  17
BRANCH   1  30
ATOM     30  C11 <0> A   1     -24.005  -6.956  52.016  0.00  0.00    +0.079 C 
BRANCH  30  34
ATOM     31  C5  <0> A   1     -24.109 -10.554  49.715  0.00  0.00    -0.070 A 
ATOM     32  C6  <0> A   1     -23.973 -10.616  51.088  0.00  0.00    -0.011 A 
ATOM     33  C7  <0> A   1     -23.939  -9.451  51.834  0.00  0.00    +0.002 A 
ATOM     34  C8  <0> A   1     -24.040  -8.225  51.204  0.00  0.00    -0.091 A 
ATOM     35  C9  <0> A   1     -24.176  -8.163  49.830  0.00  0.00    +0.059 A 
ATOM     36  C10 <0> A   1     -24.206  -9.327  49.084  0.00  0.00    -0.007 A 
BRANCH  31  38
ATOM     37  C1  <0> A   1     -24.972 -11.593  47.636  0.00  0.00    +0.030 C 
ATOM     38  C2  <0> A   1     -24.146 -11.823  48.903  0.00  0.00    -0.029 C 
ATOM     39  C3  <0> A   1     -24.782 -12.941  49.732  0.00  0.00    +0.030 C 
ATOM     40  C4  <0> A   1     -22.720 -12.222  48.518  0.00  0.00    +0.028 C 
ENDBRANCH  31  38
ENDBRANCH  30  34
ENDBRANCH   1  30
TORSDOF 12
