REMARK VINA RESULT:      -7.7     15.474     20.509
REMARK  Name = CHEMBL122219
REMARK  13 active torsions:
REMARK  status: ('A' for Active; 'I' for Inactive)
REMARK    1  A    between atoms: C1_1  and  C2_2
REMARK    2  A    between atoms: C2_2  and  O1_3
REMARK    3  A    between atoms: O1_3  and  C3_4
REMARK    4  A    between atoms: C3_4  and  C4_6
REMARK    5  A    between atoms: C5_7  and  C24_33
REMARK    6  A    between atoms: C6_8  and  C21_30
REMARK    7  A    between atoms: N1_9  and  C14_18
REMARK    8  A    between atoms: C7_10  and  C8_11
REMARK    9  A    between atoms: C14_18  and  C15_19
REMARK   10  A    between atoms: C15_19  and  C16_20
REMARK   11  A    between atoms: C18_23  and  O5_29
REMARK   12  A    between atoms: C21_30  and  C22_31
REMARK   13  A    between atoms: C21_30  and  C23_32
REMARK                            x       y       z     vdW  Elec       q    Type
REMARK                         _______ _______ _______ _____ _____    ______ ____
ROOT
ATOM      1  C4  <0> A   1     -24.650  -3.709  51.483  0.00  0.00    -0.167 C 
ATOM      2  C5  <0> A   1     -25.637  -2.662  51.799  0.00  0.00    -0.087 C 
ATOM      3  C6  <0> A   1     -26.846  -3.277  51.847  0.00  0.00    +0.068 C 
ATOM      4  N1  <0> A   1     -26.687  -4.604  51.587  0.00  0.00    -0.419 N 
ATOM      5  C7  <0> A   1     -25.376  -4.890  51.360  0.00  0.00    +0.114 C 
ENDROOT
BRANCH   5   6
ATOM      6  C8  <0> A   1     -24.820  -6.220  51.042  0.00  0.00    -0.043 A 
ATOM      7  C9  <0> A   1     -24.765  -6.657  49.715  0.00  0.00    +0.056 A 
ATOM      8  C10 <0> A   1     -24.244  -7.900  49.424  0.00  0.00    -0.006 A 
ATOM      9  C11 <0> A   1     -23.776  -8.715  50.442  0.00  0.00    +0.110 A 
ATOM     10  C12 <0> A   1     -23.830  -8.287  51.759  0.00  0.00    -0.004 A 
ATOM     11  C13 <0> A   1     -24.343  -7.044  52.063  0.00  0.00    +0.073 A 
ATOM     12  F1  <0> A   1     -23.268  -9.932  50.150  0.00  0.00    -0.135 F 
ENDBRANCH   5   6
BRANCH   2  13
ATOM     13  C24 <0> A   1     -25.362  -1.222  52.021  0.00  0.00    -0.017 A 
ATOM     14  C25 <0> A   1     -25.058  -0.758  53.300  0.00  0.00    +0.020 A 
ATOM     15  C26 <0> A   1     -24.804   0.584  53.501  0.00  0.00    +0.003 A 
ATOM     16  C27 <0> A   1     -24.850   1.466  52.437  0.00  0.00    +0.003 A 
ATOM     17  C28 <0> A   1     -25.152   1.011  51.166  0.00  0.00    +0.003 A 
ATOM     18  C29 <0> A   1     -25.402  -0.329  50.952  0.00  0.00    +0.020 A 
ENDBRANCH   2  13
BRANCH   3  19
ATOM     19  C21 <0> A   1     -28.158  -2.596  52.139  0.00  0.00    +0.069 C 
ATOM     20  C22 <0> A   1     -28.036  -1.783  53.430  0.00  0.00    +0.031 C 
ATOM     21  C23 <0> A   1     -28.516  -1.661  50.980  0.00  0.00    +0.033 C 
ENDBRANCH   3  19
BRANCH   1  22
ATOM     22  C3  <0> A   1     -23.202  -3.540  51.323  0.00  0.00    +0.552 C 
ATOM     23  O2  <0> A   1     -22.763  -2.913  50.378  0.00  0.00    -0.499 OA
BRANCH  22  24
ATOM     24  O1  <0> A   1     -22.356  -4.079  52.226  0.00  0.00    -0.343 OA
BRANCH  24  26
ATOM     25  C1  <0> A   1     -21.739  -2.278  53.713  0.00  0.00    +0.061 C 
ATOM     26  C2  <0> A   1     -21.259  -3.269  52.652  0.00  0.00    +0.194 C 
ENDBRANCH  24  26
ENDBRANCH  22  24
ENDBRANCH   1  22
BRANCH   4  27
ATOM     27  C14 <0> A   1     -27.774  -5.586  51.554  0.00  0.00    +0.296 C 
BRANCH  27  28
ATOM     28  C15 <0> A   1     -28.134  -5.994  52.984  0.00  0.00    +0.052 C 
BRANCH  28  29
ATOM     29  C16 <0> A   1     -28.953  -7.287  52.954  0.00  0.00    +0.204 C 
ATOM     30  C17 <0> A   1     -30.133  -7.122  51.992  0.00  0.00    +0.046 C 
ATOM     31  C18 <0> A   1     -30.972  -8.404  51.996  0.00  0.00    +0.187 C 
ATOM     32  C19 <0> A   1     -31.479  -8.661  53.420  0.00  0.00    +0.024 C 
ATOM     33  C20 <0> A   1     -30.296  -8.616  54.361  0.00  0.00    +0.498 C 
ATOM     34  O3  <0> A   1     -30.114  -9.491  55.174  0.00  0.00    -0.449 OA
ATOM     35  O4  <0> A   1     -29.448  -7.570  54.267  0.00  0.00    -0.370 OA
BRANCH  31  36
ATOM     36  O5  <0> A   1     -30.168  -9.505  51.566  0.00  0.00    -0.564 OA
ATOM     37  H20 <0> A   1     -29.842 -10.060  52.288  0.00  0.00    +0.388 HD
ENDBRANCH  31  36
ENDBRANCH  28  29
ENDBRANCH  27  28
ENDBRANCH   4  27
TORSDOF 10
