REMARK VINA RESULT:      -8.4      0.000      0.000
REMARK  Name = CHEMBL481660
REMARK  17 active torsions:
REMARK  status: ('A' for Active; 'I' for Inactive)
REMARK    1  A    between atoms: C1_1  and  C2_2
REMARK    2  A    between atoms: C2_2  and  C3_3
REMARK    3  A    between atoms: C4_4  and  C18_25
REMARK    4  A    between atoms: N1_7  and  C7_8
REMARK    5  A    between atoms: C7_8  and  C8_9
REMARK    6  A    between atoms: C8_9  and  C9_10
REMARK    7  A    between atoms: C9_10  and  C10_12
REMARK    8  A    between atoms: C9_10  and  O4_20
REMARK    9  A    between atoms: C10_12  and  C11_13
REMARK   10  A    between atoms: C11_13  and  C12_15
REMARK   11  A    between atoms: C11_13  and  O3_19
REMARK   12  A    between atoms: C12_15  and  C13_16
REMARK   13  A    between atoms: N2_27  and  C19_28
REMARK   14  A    between atoms: C19_28  and  C20_30
REMARK   15  A    between atoms: C19_28  and  C21_32
REMARK   16  A    between atoms: C20_30  and  O6_31
REMARK   17  A    between atoms: C24_35  and  C27_38
REMARK                            x       y       z     vdW  Elec       q    Type
REMARK                         _______ _______ _______ _____ _____    ______ ____
ROOT
ATOM      1  C3  <0> A   1     -11.813   8.748  46.167  0.00  0.00    +0.080 C 
ATOM      2  C4  <0> A   1     -11.631   8.042  47.327  0.00  0.00    -0.221 C 
ATOM      3  C5  <0> A   1     -11.804   9.002  48.410  0.00  0.00    -0.129 C 
ATOM      4  C6  <0> A   1     -12.073  10.193  47.836  0.00  0.00    +0.020 C 
ATOM      5  N1  <0> A   1     -12.070  10.033  46.485  0.00  0.00    -0.424 N 
ATOM      6  C14 <0> A   1     -12.322  11.462  48.615  0.00  0.00    +0.100 C 
ATOM      7  C15 <0> A   1     -12.631  11.085  50.069  0.00  0.00    +0.024 C 
ATOM      8  C16 <0> A   1     -11.559  10.126  50.591  0.00  0.00    +0.012 C 
ATOM      9  C17 <0> A   1     -11.708   8.767  49.895  0.00  0.00    +0.089 C 
ENDROOT
BRANCH   2  10
ATOM     10  C18 <0> A   1     -11.324   6.606  47.453  0.00  0.00    +0.606 C 
ATOM     11  O5  <0> A   1     -12.212   5.783  47.341  0.00  0.00    -0.542 OA
ATOM     12  N2  <0> A   1     -10.060   6.206  47.691  0.00  0.00    -0.713 N 
ATOM     13  H27 <0> A   1      -9.351   6.862  47.779  0.00  0.00    +0.404 HD
BRANCH  12  14
ATOM     14  C19 <0> A   1      -9.755   4.778  47.815  0.00  0.00    +0.297 C 
BRANCH  14  15
ATOM     15  C21 <0> A   1      -8.414   4.494  47.188  0.00  0.00    -0.085 A 
ATOM     16  C22 <0> A   1      -7.832   5.431  46.352  0.00  0.00    +0.044 A 
ATOM     17  C23 <0> A   1      -6.605   5.176  45.775  0.00  0.00    +0.016 A 
ATOM     18  C24 <0> A   1      -5.952   3.972  46.035  0.00  0.00    -0.044 A 
ATOM     19  C25 <0> A   1      -6.544   3.032  46.876  0.00  0.00    +0.015 A 
ATOM     20  C26 <0> A   1      -7.769   3.300  47.453  0.00  0.00    +0.019 A 
BRANCH  18  21
ATOM     21  C27 <0> A   1      -4.633   3.692  45.416  0.00  0.00    -0.044 A 
ATOM     22  C28 <0> A   1      -4.557   2.938  44.246  0.00  0.00    +0.015 A 
ATOM     23  C29 <0> A   1      -3.327   2.680  43.673  0.00  0.00    +0.007 A 
ATOM     24  C30 <0> A   1      -2.173   3.170  44.259  0.00  0.00    +0.002 A 
ATOM     25  C31 <0> A   1      -2.243   3.918  45.419  0.00  0.00    +0.005 A 
ATOM     26  C32 <0> A   1      -3.468   4.186  45.997  0.00  0.00    +0.013 A 
ENDBRANCH  18  21
ENDBRANCH  14  15
BRANCH  14  27
ATOM     27  C20 <0> A   1      -9.717   4.391  49.295  0.00  0.00    +0.179 C 
BRANCH  27  28
ATOM     28  O6  <0> A   1     -11.052   4.308  49.798  0.00  0.00    -0.564 OA
ATOM     29  H30 <0> A   1     -11.200   4.816  50.608  0.00  0.00    +0.379 HD
ENDBRANCH  27  28
ENDBRANCH  14  27
ENDBRANCH  12  14
ENDBRANCH   2  10
BRANCH   1  31
ATOM     30  C1  <0> A   1     -13.088   7.587  44.384  0.00  0.00    +0.030 C 
ATOM     31  C2  <0> A   1     -11.734   8.185  44.771  0.00  0.00    +0.097 C 
ENDBRANCH   1  31
BRANCH   5  32
ATOM     32  C7  <0> A   1     -12.315  11.103  45.515  0.00  0.00    +0.290 C 
BRANCH  32  33
ATOM     33  C8  <0> A   1     -13.812  11.178  45.207  0.00  0.00    -0.018 C 
BRANCH  33  34
ATOM     34  C9  <0> A   1     -14.019  11.837  43.841  0.00  0.00    +0.216 C 
BRANCH  34  35
ATOM     35  O4  <0> A   1     -13.015  12.833  43.637  0.00  0.00    -0.541 OA
ATOM     36  H18 <0> A   1     -12.987  13.185  42.737  0.00  0.00    +0.366 HD
ENDBRANCH  34  35
BRANCH  34  37
ATOM     37  C10 <0> A   1     -13.917  10.777  42.743  0.00  0.00    -0.048 C 
BRANCH  37  38
ATOM     38  C11 <0> A   1     -13.083  11.324  41.583  0.00  0.00    +0.231 C 
BRANCH  38  39
ATOM     39  O3  <0> A   1     -11.836  10.629  41.522  0.00  0.00    -0.528 OA
ATOM     40  H17 <0> A   1     -11.353  10.759  40.693  0.00  0.00    +0.350 HD
ENDBRANCH  38  39
BRANCH  38  41
ATOM     41  C12 <0> A   1     -13.843  11.124  40.270  0.00  0.00    -0.102 C 
BRANCH  41  42
ATOM     42  C13 <0> A   1     -12.861  11.032  39.131  0.00  0.00    +0.490 C 
ATOM     43  O1  <0> A   1     -12.374  12.046  38.662  0.00  0.00    -0.681 OA
ATOM     44  O2  <0> A   1     -12.554   9.942  38.677  0.00  0.00    -0.713 OA
ENDBRANCH  41  42
ENDBRANCH  38  41
ENDBRANCH  37  38
ENDBRANCH  34  37
ENDBRANCH  33  34
ENDBRANCH  32  33
ENDBRANCH   5  32
TORSDOF 16
