REMARK VINA RESULT:      -7.2      0.000      0.000
REMARK  Name = CHEMBL39312
REMARK  12 active torsions:
REMARK  status: ('A' for Active; 'I' for Inactive)
REMARK    1  A    between atoms: C4_4  and  C7_7
REMARK    2  A    between atoms: C7_7  and  O1_8
REMARK    3  A    between atoms: O1_8  and  C8_9
REMARK    4  A    between atoms: C13_14  and  C14_15
REMARK    5  A    between atoms: C14_15  and  C15_16
REMARK    6  A    between atoms: C15_16  and  C16_17
REMARK    7  A    between atoms: C16_17  and  C17_19
REMARK    8  A    between atoms: C16_17  and  O5_27
REMARK    9  A    between atoms: C17_19  and  C18_20
REMARK   10  A    between atoms: C18_20  and  C19_22
REMARK   11  A    between atoms: C18_20  and  O4_26
REMARK   12  A    between atoms: C19_22  and  C20_23
REMARK                            x       y       z     vdW  Elec       q    Type
REMARK                         _______ _______ _______ _____ _____    ______ ____
ROOT
ATOM      1  C8  <0> A   1     -14.204   8.847  46.668  0.00  0.00    +0.159 A 
ATOM      2  C9  <0> A   1     -15.185   9.698  47.156  0.00  0.00    -0.056 A 
ATOM      3  C10 <0> A   1     -15.423  10.908  46.530  0.00  0.00    +0.009 A 
ATOM      4  C11 <0> A   1     -14.684  11.270  45.417  0.00  0.00    +0.006 A 
ATOM      5  C12 <0> A   1     -13.705  10.422  44.929  0.00  0.00    +0.011 A 
ATOM      6  C13 <0> A   1     -13.460   9.213  45.556  0.00  0.00    -0.094 A 
ATOM      7 Cl1  <0> A   1     -12.780  10.878  43.533  0.00  0.00    -0.040 Cl
ATOM      8 Cl2  <0> A   1     -16.650  11.974  47.139  0.00  0.00    -0.057 Cl
ENDROOT
BRANCH   1   9
ATOM      9  O1  <0> A   1     -13.969   7.657  47.282  0.00  0.00    -0.289 OA
BRANCH   9  10
ATOM     10  C7  <0> A   1     -15.102   6.826  47.540  0.00  0.00    +0.246 C 
BRANCH  10  14
ATOM     11  C1  <0> A   1     -15.809   4.293  44.174  0.00  0.00    +0.019 A 
ATOM     12  C2  <0> A   1     -14.776   4.009  45.048  0.00  0.00    +0.003 A 
ATOM     13  C3  <0> A   1     -14.547   4.829  46.137  0.00  0.00    +0.030 A 
ATOM     14  C4  <0> A   1     -15.350   5.932  46.352  0.00  0.00    -0.099 A 
ATOM     15  C5  <0> A   1     -16.384   6.217  45.478  0.00  0.00    +0.031 A 
ATOM     16  C6  <0> A   1     -16.613   5.396  44.390  0.00  0.00    +0.005 A 
ENDBRANCH  10  14
ENDBRANCH   9  10
ENDBRANCH   1   9
BRANCH   6  17
ATOM     17  C14 <0> A   1     -12.390   8.294  45.028  0.00  0.00    +0.097 C 
BRANCH  17  18
ATOM     18  C15 <0> A   1     -13.012   7.296  44.049  0.00  0.00    -0.007 C 
BRANCH  18  19
ATOM     19  C16 <0> A   1     -12.367   7.465  42.671  0.00  0.00    +0.211 C 
BRANCH  19  20
ATOM     20  O5  <0> A   1     -11.802   6.219  42.255  0.00  0.00    -0.540 OA
ATOM     21  H21 <0> A   1     -11.109   5.886  42.841  0.00  0.00    +0.364 HD
ENDBRANCH  19  20
BRANCH  19  22
ATOM     22  C17 <0> A   1     -13.428   7.907  41.662  0.00  0.00    -0.053 C 
BRANCH  22  23
ATOM     23  C18 <0> A   1     -12.795   8.850  40.637  0.00  0.00    +0.230 C 
BRANCH  23  24
ATOM     24  O4  <0> A   1     -12.220   8.083  39.576  0.00  0.00    -0.528 OA
ATOM     25  H20 <0> A   1     -12.111   8.574  38.751  0.00  0.00    +0.349 HD
ENDBRANCH  23  24
BRANCH  23  26
ATOM     26  C19 <0> A   1     -13.868   9.781  40.070  0.00  0.00    -0.103 C 
BRANCH  26  27
ATOM     27  C20 <0> A   1     -13.221  11.046  39.568  0.00  0.00    +0.490 C 
ATOM     28  O2  <0> A   1     -12.037  11.249  39.775  0.00  0.00    -0.681 OA
ATOM     29  O3  <0> A   1     -13.882  11.866  38.955  0.00  0.00    -0.714 OA
ENDBRANCH  26  27
ENDBRANCH  23  26
ENDBRANCH  22  23
ENDBRANCH  19  22
ENDBRANCH  18  19
ENDBRANCH  17  18
ENDBRANCH   6  17
TORSDOF 12
