REMARK  Name = CHEMBL154699
REMARK  6 active torsions:
REMARK  status: ('A' for Active; 'I' for Inactive)
REMARK    1  A    between atoms: C4_4  and  C7_7
REMARK    2  A    between atoms: C9_9  and  C25_30
REMARK    3  A    between atoms: C10_10  and  C18_19
REMARK    4  A    between atoms: C11_11  and  C12_13
REMARK    5  A    between atoms: C19_20  and  C20_21
REMARK    6  A    between atoms: C22_23  and  O3_29
REMARK                            x       y       z     vdW  Elec       q    Type
REMARK                         _______ _______ _______ _____ _____    ______ ____
ROOT
ATOM      1  C7  <0> A   1       3.698  -0.688  -0.038  0.00  0.00    +0.178 A 
ATOM      2  C8  <0> A   1       3.708  -2.080  -0.052  0.00  0.00    -0.015 A 
ATOM      3  C9  <0> A   1       4.931  -2.748  -0.068  0.00  0.00    +0.012 A 
ATOM      4  C10 <0> A   1       6.112  -1.975  -0.071  0.00  0.00    -0.099 A 
ATOM      5  C11 <0> A   1       6.008  -0.584  -0.057  0.00  0.00    +0.164 A 
ATOM      6  N1  <0> A   1       4.832   0.004  -0.046  0.00  0.00    -0.467 NA
ENDROOT
BRANCH   3   7
ATOM      7  C25 <0> A   1       4.990  -4.228  -0.083  0.00  0.00    -0.066 A 
ATOM      8  C26 <0> A   1       5.789  -4.888  -1.016  0.00  0.00    +0.075 A 
ATOM      9  C27 <0> A   1       5.840  -6.266  -1.025  0.00  0.00    -0.013 A 
ATOM     10  C28 <0> A   1       5.099  -6.995  -0.109  0.00  0.00    +0.109 A 
ATOM     11  C29 <0> A   1       4.303  -6.345   0.820  0.00  0.00    -0.013 A 
ATOM     12  C30 <0> A   1       4.250  -4.966   0.841  0.00  0.00    +0.061 A 
ATOM     13  F1  <0> A   1       5.152  -8.345  -0.123  0.00  0.00    -0.136 F 
ENDBRANCH   3   7
BRANCH   1  17
ATOM     14  C1  <0> A   1      -0.017   1.379   0.010  0.00  0.00    +0.017 A 
ATOM     15  C2  <0> A   1       1.169   2.092   0.002  0.00  0.00    +0.000 A 
ATOM     16  C3  <0> A   1       2.377   1.427  -0.013  0.00  0.00    +0.057 A 
ATOM     17  C4  <0> A   1       2.402   0.033  -0.021  0.00  0.00    -0.052 A 
ATOM     18  C5  <0> A   1       1.205  -0.680  -0.013  0.00  0.00    +0.024 A 
ATOM     19  C6  <0> A   1       0.002  -0.004   0.002  0.00  0.00    +0.003 A 
ENDBRANCH   1  17
BRANCH   5  20
ATOM     20  C12 <0> A   1       7.260   0.255  -0.059  0.00  0.00    +0.054 C 
ATOM     21  C13 <0> A   1       7.292   1.127   1.198  0.00  0.00    +0.026 C 
ATOM     22  C14 <0> A   1       8.563   1.979   1.196  0.00  0.00    +0.005 C 
ATOM     23  C15 <0> A   1       8.574   2.874  -0.045  0.00  0.00    +0.003 C 
ATOM     24  C16 <0> A   1       8.542   2.003  -1.303  0.00  0.00    +0.006 C 
ATOM     25  C17 <0> A   1       7.271   1.150  -1.300  0.00  0.00    +0.025 C 
ENDBRANCH   5  20
BRANCH   4  26
ATOM     26  C18 <0> A   1       7.435  -2.628  -0.088  0.00  0.00    +0.049 C 
ATOM     27  C19 <0> A   1       7.710  -3.592   0.782  0.00  0.00    -0.012 C 
BRANCH  27  28
ATOM     28  C20 <0> A   1       9.062  -4.259   0.765  0.00  0.00    +0.242 C 
ATOM     29  C21 <0> A   1       9.699  -4.159   2.153  0.00  0.00    +0.050 C 
ATOM     30  C22 <0> A   1      11.089  -4.801   2.121  0.00  0.00    +0.186 C 
ATOM     31  C23 <0> A   1      11.951  -4.067   1.087  0.00  0.00    +0.024 C 
ATOM     32  C24 <0> A   1      11.189  -4.020  -0.219  0.00  0.00    +0.498 C 
ATOM     33  O1  <0> A   1      11.714  -4.343  -1.258  0.00  0.00    -0.450 OA
ATOM     34  O2  <0> A   1       9.905  -3.606  -0.191  0.00  0.00    -0.369 OA
BRANCH  30  35
ATOM     35  O3  <0> A   1      10.972  -6.179   1.759  0.00  0.00    -0.563 OA
ATOM     36  H26 <0> A   1      11.817  -6.648   1.719  0.00  0.00    +0.387 HD
ENDBRANCH  30  35
ENDBRANCH  27  28
ENDBRANCH   4  26
TORSDOF 6
