REMARK VINA RESULT:      -7.3      4.138      6.573
REMARK  Name = CHEMBL389442
REMARK  15 active torsions:
REMARK  status: ('A' for Active; 'I' for Inactive)
REMARK    1  A    between atoms: C1_1  and  C2_2
REMARK    2  A    between atoms: C2_2  and  C3_3
REMARK    3  A    between atoms: C2_2  and  N1_4
REMARK    4  A    between atoms: C4_5  and  C28_33
REMARK    5  A    between atoms: C5_6  and  C22_26
REMARK    6  A    between atoms: N2_11  and  C15_18
REMARK    7  A    between atoms: C15_18  and  C16_19
REMARK    8  A    between atoms: C28_33  and  C29_34
REMARK    9  A    between atoms: C29_34  and  C30_35
REMARK   10  A    between atoms: C30_35  and  C31_37
REMARK   11  A    between atoms: C30_35  and  O5_45
REMARK   12  A    between atoms: C31_37  and  C32_38
REMARK   13  A    between atoms: C32_38  and  C33_40
REMARK   14  A    between atoms: C32_38  and  O4_44
REMARK   15  A    between atoms: C33_40  and  C34_41
REMARK                            x       y       z     vdW  Elec       q    Type
REMARK                         _______ _______ _______ _____ _____    ______ ____
ROOT
ATOM      1  N1  <0> A   1     -12.976  10.544  47.349  0.00  0.00    -0.391 N 
ATOM      2  C4  <0> A   1     -13.817  10.102  48.316  0.00  0.00    +0.107 C 
ATOM      3  C5  <0> A   1     -14.502   9.015  47.859  0.00  0.00    -0.131 C 
ATOM      4  C6  <0> A   1     -14.037   8.774  46.497  0.00  0.00    -0.046 C 
ATOM      5  C7  <0> A   1     -13.089   9.761  46.226  0.00  0.00    -0.043 C 
ATOM      6  C8  <0> A   1     -12.461   9.783  44.960  0.00  0.00    +0.575 C 
ATOM      7  O1  <0> A   1     -11.629  10.643  44.724  0.00  0.00    -0.515 OA
ATOM      8  N2  <0> A   1     -12.757   8.879  44.011  0.00  0.00    -0.516 N 
ATOM      9  C9  <0> A   1     -13.692   7.881  44.219  0.00  0.00    +0.167 A 
ATOM     10  C10 <0> A   1     -14.352   7.788  45.456  0.00  0.00    -0.054 A 
ATOM     11  C11 <0> A   1     -15.295   6.782  45.667  0.00  0.00    +0.065 A 
ATOM     12  C12 <0> A   1     -15.563   5.875  44.665  0.00  0.00    -0.017 A 
ATOM     13  C13 <0> A   1     -14.899   5.957  43.450  0.00  0.00    +0.045 A 
ATOM     14  C14 <0> A   1     -13.979   6.959  43.220  0.00  0.00    -0.031 A 
ENDROOT
BRANCH   3  15
ATOM     15  C22 <0> A   1     -15.519   8.231  48.602  0.00  0.00    -0.011 A 
ATOM     16  C23 <0> A   1     -15.134   7.127  49.359  0.00  0.00    +0.054 A 
ATOM     17  C24 <0> A   1     -16.083   6.400  50.048  0.00  0.00    -0.012 A 
ATOM     18  C25 <0> A   1     -17.417   6.766  49.987  0.00  0.00    +0.097 A 
ATOM     19  C26 <0> A   1     -17.806   7.863  49.235  0.00  0.00    -0.015 A 
ATOM     20  C27 <0> A   1     -16.862   8.599  48.547  0.00  0.00    +0.052 A 
ATOM     21  F2  <0> A   1     -18.345   6.052  50.662  0.00  0.00    -0.140 F 
ENDBRANCH   3  15
BRANCH   1  23
ATOM     22  C1  <0> A   1     -12.780  12.799  48.279  0.00  0.00    +0.045 C 
ATOM     23  C2  <0> A   1     -12.079  11.696  47.481  0.00  0.00    +0.228 C 
ATOM     24  C3  <0> A   1     -10.806  11.269  48.214  0.00  0.00    +0.046 C 
ENDBRANCH   1  23
BRANCH   8  25
ATOM     25  C15 <0> A   1     -12.072   8.954  42.718  0.00  0.00    +0.359 C 
BRANCH  25  26
ATOM     26  C16 <0> A   1     -12.937   9.699  41.733  0.00  0.00    -0.151 A 
ATOM     27  C17 <0> A   1     -13.634  10.822  42.136  0.00  0.00    +0.058 A 
ATOM     28  C18 <0> A   1     -14.427  11.504  41.233  0.00  0.00    -0.003 A 
ATOM     29  C19 <0> A   1     -14.523  11.065  39.925  0.00  0.00    +0.051 A 
ATOM     30  C20 <0> A   1     -13.826   9.943  39.520  0.00  0.00    -0.025 A 
ATOM     31  C21 <0> A   1     -13.027   9.261  40.423  0.00  0.00    +0.123 A 
ATOM     32  F1  <0> A   1     -12.341   8.168  40.026  0.00  0.00    -0.116 F 
ENDBRANCH  25  26
ENDBRANCH   8  25
BRANCH   2  33
ATOM     33  C28 <0> A   1     -13.971  10.716  49.684  0.00  0.00    +0.121 C 
BRANCH  33  34
ATOM     34  C29 <0> A   1     -13.097   9.958  50.685  0.00  0.00    -0.006 C 
BRANCH  34  35
ATOM     35  C30 <0> A   1     -12.334  10.959  51.555  0.00  0.00    +0.214 C 
BRANCH  35  36
ATOM     36  O5  <0> A   1     -12.965  11.056  52.834  0.00  0.00    -0.542 OA
ATOM     37  H33 <0> A   1     -13.642  11.745  52.886  0.00  0.00    +0.364 HD
ENDBRANCH  35  36
BRANCH  35  38
ATOM     38  C31 <0> A   1     -10.891  10.482  51.735  0.00  0.00    -0.051 C 
BRANCH  38  39
ATOM     39  C32 <0> A   1      -9.961  11.694  51.826  0.00  0.00    +0.231 C 
BRANCH  39  40
ATOM     40  O4  <0> A   1     -10.717  12.891  51.626  0.00  0.00    -0.528 OA
ATOM     41  H32 <0> A   1     -10.176  13.685  51.523  0.00  0.00    +0.349 HD
ENDBRANCH  39  40
BRANCH  39  42
ATOM     42  C33 <0> A   1      -9.305  11.730  53.208  0.00  0.00    -0.103 C 
BRANCH  42  43
ATOM     43  C34 <0> A   1      -9.962  12.796  54.047  0.00  0.00    +0.491 C 
ATOM     44  O2  <0> A   1      -9.427  13.882  54.182  0.00  0.00    -0.681 OA
ATOM     45  O3  <0> A   1     -11.030  12.571  54.591  0.00  0.00    -0.713 OA
ENDBRANCH  42  43
ENDBRANCH  39  42
ENDBRANCH  38  39
ENDBRANCH  35  38
ENDBRANCH  34  35
ENDBRANCH  33  34
ENDBRANCH   2  33
TORSDOF 13
