REMARK VINA RESULT:      -7.5      9.769     13.247
REMARK  Name = CHEMBL170906
REMARK  9 active torsions:
REMARK  status: ('A' for Active; 'I' for Inactive)
REMARK    1  A    between atoms: C1_1  and  C2_2
REMARK    2  A    between atoms: C4_5  and  O4_28
REMARK    3  A    between atoms: C6_8  and  C13_17
REMARK    4  A    between atoms: C7_10  and  C12_16
REMARK    5  A    between atoms: C13_17  and  C14_18
REMARK    6  A    between atoms: C14_18  and  C15_19
REMARK    7  A    between atoms: C17_21  and  O3_27
REMARK    8  A    between atoms: O4_28  and  C20_29
REMARK    9  A    between atoms: C20_29  and  C21_31
REMARK                            x       y       z     vdW  Elec       q    Type
REMARK                         _______ _______ _______ _____ _____    ______ ____
ROOT
ATOM      1  C1  <0> A   1     -19.001   5.280  49.636  0.00  0.00    +0.033 C 
ATOM      2  C2  <0> A   1     -18.643   6.422  48.681  0.00  0.00    +0.025 C 
ATOM      3  C3  <0> A   1     -17.563   5.955  47.695  0.00  0.00    +0.020 C 
ATOM      4  C4  <0> A   1     -17.250   7.108  46.744  0.00  0.00    +0.174 C 
ATOM      5  C5  <0> A   1     -16.770   8.334  47.484  0.00  0.00    +0.040 C 
ATOM      6  C6  <0> A   1     -15.245   8.458  47.457  0.00  0.00    +0.013 C 
ATOM      7  C7  <0> A   1     -14.853   9.827  48.014  0.00  0.00    +0.022 C 
ATOM      8  C8  <0> A   1     -15.525  10.103  49.325  0.00  0.00    -0.032 C 
ATOM      9  C9  <0> A   1     -16.608   9.477  49.748  0.00  0.00    -0.006 C 
ATOM     10  C10 <0> A   1     -17.220   8.418  48.913  0.00  0.00    -0.086 C 
ATOM     11  C11 <0> A   1     -18.082   7.582  49.462  0.00  0.00    -0.022 C 
ATOM     12  C12 <0> A   1     -15.255  10.909  47.010  0.00  0.00    +0.029 C 
ENDROOT
BRANCH   6  13
ATOM     13  C13 <0> A   1     -14.745   8.325  46.016  0.00  0.00    +0.058 C 
BRANCH  13  14
ATOM     14  C14 <0> A   1     -13.249   8.002  46.023  0.00  0.00    +0.040 C 
BRANCH  14  15
ATOM     15  C15 <0> A   1     -12.821   7.539  44.630  0.00  0.00    +0.193 C 
ATOM     16  C16 <0> A   1     -11.765   8.500  44.074  0.00  0.00    +0.039 C 
ATOM     17  C17 <0> A   1     -11.370   8.057  42.662  0.00  0.00    +0.183 C 
ATOM     18  C18 <0> A   1     -12.619   8.066  41.770  0.00  0.00    +0.019 C 
ATOM     19  C19 <0> A   1     -13.700   7.265  42.461  0.00  0.00    +0.495 C 
ATOM     20  O1  <0> A   1     -14.316   6.411  41.868  0.00  0.00    -0.453 OA
ATOM     21  O2  <0> A   1     -13.957   7.530  43.759  0.00  0.00    -0.366 OA
BRANCH  17  22
ATOM     22  O3  <0> A   1     -10.822   6.738  42.709  0.00  0.00    -0.563 OA
ATOM     23  H27 <0> A   1     -11.465   6.039  42.521  0.00  0.00    +0.386 HD
ENDBRANCH  17  22
ENDBRANCH  14  15
ENDBRANCH  13  14
ENDBRANCH   6  13
BRANCH   4  24
ATOM     24  O4  <0> A   1     -16.236   6.693  45.827  0.00  0.00    -0.315 OA
BRANCH  24  25
ATOM     25  C20 <0> A   1     -16.485   5.592  45.101  0.00  0.00    +0.480 C 
ATOM     26  O5  <0> A   1     -17.335   5.615  44.242  0.00  0.00    -0.504 OA
BRANCH  25  27
ATOM     27  C21 <0> A   1     -15.704   4.329  45.354  0.00  0.00    -0.041 C 
ATOM     28  C22 <0> A   1     -14.412   4.126  44.561  0.00  0.00    +0.065 C 
ATOM     29  C23 <0> A   1     -14.349   4.464  46.052  0.00  0.00    +0.074 C 
ENDBRANCH  25  27
ENDBRANCH  24  25
ENDBRANCH   4  24
TORSDOF 7
