REMARK VINA RESULT:      -7.7     22.268     24.215
REMARK  Name = CHEMBL77486
REMARK  14 active torsions:
REMARK  status: ('A' for Active; 'I' for Inactive)
REMARK    1  A    between atoms: C1_1  and  C2_2
REMARK    2  A    between atoms: C2_2  and  C3_3
REMARK    3  A    between atoms: C3_3  and  C4_5
REMARK    4  A    between atoms: C3_3  and  C5_6
REMARK    5  A    between atoms: C5_6  and  O2_8
REMARK    6  A    between atoms: O2_8  and  C6_9
REMARK    7  A    between atoms: C8_12  and  C24_38
REMARK    8  A    between atoms: C12_19  and  C17_26
REMARK    9  A    between atoms: C13_21  and  C16_25
REMARK   10  A    between atoms: C17_26  and  C18_27
REMARK   11  A    between atoms: C18_27  and  C19_28
REMARK   12  A    between atoms: C21_31  and  O5_37
REMARK   13  A    between atoms: C25_39  and  C26_40
REMARK   14  A    between atoms: C26_40  and  C27_41
REMARK                            x       y       z     vdW  Elec       q    Type
REMARK                         _______ _______ _______ _____ _____    ______ ____
ROOT
ATOM      1  C6  <0> A   1     -32.299  22.713  34.310  0.00  0.00    +0.183 C 
ATOM      2  C7  <0> A   1     -33.151  22.185  33.152  0.00  0.00    +0.020 C 
ATOM      3  C8  <0> A   1     -33.128  20.656  33.138  0.00  0.00    +0.019 C 
ATOM      4  C9  <0> A   1     -33.658  20.111  34.468  0.00  0.00    +0.034 C 
ATOM      5  C10 <0> A   1     -32.782  20.640  35.600  0.00  0.00    +0.039 C 
ATOM      6  C11 <0> A   1     -32.860  22.172  35.623  0.00  0.00    +0.017 C 
ATOM      7  C12 <0> A   1     -32.056  22.680  36.820  0.00  0.00    +0.004 C 
ATOM      8  C13 <0> A   1     -32.780  22.248  38.099  0.00  0.00    +0.023 C 
ATOM      9  C14 <0> A   1     -33.180  20.805  38.024  0.00  0.00    -0.050 C 
ATOM     10  C15 <0> A   1     -33.206  20.106  36.931  0.00  0.00    -0.043 C 
ATOM     11  C16 <0> A   1     -34.032  23.108  38.283  0.00  0.00    +0.027 C 
ENDROOT
BRANCH   3  12
ATOM     12  C24 <0> A   1     -31.713  20.179  32.933  0.00  0.00    -0.009 C 
ATOM     13  C25 <0> A   1     -31.481  18.927  32.627  0.00  0.00    -0.061 C 
BRANCH  13  14
ATOM     14  C26 <0> A   1     -30.064  18.421  32.544  0.00  0.00    +0.104 C 
BRANCH  14  15
ATOM     15  C27 <0> A   1     -29.934  17.477  31.377  0.00  0.00    -0.075 A 
ATOM     16  C28 <0> A   1     -30.970  17.350  30.471  0.00  0.00    +0.005 A 
ATOM     17  C29 <0> A   1     -30.851  16.485  29.400  0.00  0.00    +0.002 A 
ATOM     18  C30 <0> A   1     -29.695  15.745  29.235  0.00  0.00    -0.006 A 
ATOM     19  C31 <0> A   1     -28.658  15.872  30.140  0.00  0.00    +0.002 A 
ATOM     20  C32 <0> A   1     -28.776  16.741  31.209  0.00  0.00    +0.001 A 
ENDBRANCH  14  15
ENDBRANCH  13  14
ENDBRANCH   3  12
BRANCH   1  21
ATOM     21  O2  <0> A   1     -30.948  22.276  34.150  0.00  0.00    -0.332 OA
BRANCH  21  22
ATOM     22  C5  <0> A   1     -30.030  23.220  33.886  0.00  0.00    +0.460 C 
ATOM     23  O1  <0> A   1     -30.380  24.342  33.603  0.00  0.00    -0.503 OA
BRANCH  22  24
ATOM     24  C3  <0> A   1     -28.563  22.880  33.941  0.00  0.00    +0.022 C 
ATOM     25  C4  <0> A   1     -27.839  23.547  32.769  0.00  0.00    +0.056 C 
BRANCH  24  27
ATOM     26  C1  <0> A   1     -26.732  24.233  34.971  0.00  0.00    +0.022 C 
ATOM     27  C2  <0> A   1     -27.973  23.384  35.259  0.00  0.00    +0.031 C 
ENDBRANCH  24  27
ENDBRANCH  22  24
ENDBRANCH  21  22
ENDBRANCH   1  21
BRANCH   7  28
ATOM     28  C17 <0> A   1     -31.961  24.205  36.770  0.00  0.00    +0.019 C 
BRANCH  28  29
ATOM     29  C18 <0> A   1     -30.616  24.653  37.345  0.00  0.00    +0.051 C 
BRANCH  29  30
ATOM     30  C19 <0> A   1     -30.851  25.472  38.614  0.00  0.00    +0.193 C 
ATOM     31  C20 <0> A   1     -30.657  24.578  39.842  0.00  0.00    +0.040 C 
ATOM     32  C21 <0> A   1     -30.935  25.391  41.112  0.00  0.00    +0.183 C 
ATOM     33  C22 <0> A   1     -32.375  25.917  41.059  0.00  0.00    +0.021 C 
ATOM     34  C23 <0> A   1     -32.575  26.623  39.736  0.00  0.00    +0.496 C 
ATOM     35  O3  <0> A   1     -33.066  27.726  39.688  0.00  0.00    -0.453 OA
ATOM     36  O4  <0> A   1     -32.188  25.988  38.611  0.00  0.00    -0.367 OA
BRANCH  32  37
ATOM     37  O5  <0> A   1     -30.024  26.490  41.184  0.00  0.00    -0.563 OA
ATOM     38  H35 <0> A   1     -30.068  26.983  42.015  0.00  0.00    +0.386 HD
ENDBRANCH  32  37
ENDBRANCH  29  30
ENDBRANCH  28  29
ENDBRANCH   7  28
TORSDOF 11
