REMARK VINA RESULT:      -9.8      0.000      0.000
REMARK  Name = CHEMBL228667
REMARK  14 active torsions:
REMARK  status: ('A' for Active; 'I' for Inactive)
REMARK    1  A    between atoms: C1_1  and  C2_2
REMARK    2  A    between atoms: C2_2  and  C3_3
REMARK    3  A    between atoms: C2_2  and  N1_4
REMARK    4  A    between atoms: C4_5  and  C28_32
REMARK    5  A    between atoms: C5_6  and  C22_25
REMARK    6  A    between atoms: N2_11  and  C16_19
REMARK    7  A    between atoms: C28_32  and  C29_33
REMARK    8  A    between atoms: C29_33  and  C30_34
REMARK    9  A    between atoms: C30_34  and  C31_36
REMARK   10  A    between atoms: C30_34  and  O5_44
REMARK   11  A    between atoms: C31_36  and  C32_37
REMARK   12  A    between atoms: C32_37  and  C33_39
REMARK   13  A    between atoms: C32_37  and  O4_43
REMARK   14  A    between atoms: C33_39  and  C34_40
REMARK                            x       y       z     vdW  Elec       q    Type
REMARK                         _______ _______ _______ _____ _____    ______ ____
ROOT
ATOM      1  N1  <0> A   1     -14.702   6.702  45.427  0.00  0.00    -0.391 N 
ATOM      2  C4  <0> A   1     -13.859   7.723  45.141  0.00  0.00    +0.089 C 
ATOM      3  C5  <0> A   1     -14.167   8.790  45.931  0.00  0.00    -0.128 C 
ATOM      4  C6  <0> A   1     -15.259   8.409  46.750  0.00  0.00    -0.057 C 
ATOM      5  C7  <0> A   1     -15.581   7.105  46.410  0.00  0.00    -0.031 C 
ATOM      6  C8  <0> A   1     -16.658   6.304  46.986  0.00  0.00    +0.598 C 
ATOM      7  O1  <0> A   1     -17.273   5.532  46.274  0.00  0.00    -0.527 OA
ATOM      8  N2  <0> A   1     -16.983   6.400  48.280  0.00  0.00    -0.552 N 
ATOM      9  C9  <0> A   1     -16.242   7.218  49.224  0.00  0.00    +0.339 C 
ATOM     10  C10 <0> A   1     -16.407   8.685  48.945  0.00  0.00    -0.107 A 
ATOM     11  C11 <0> A   1     -15.925   9.246  47.770  0.00  0.00    +0.006 A 
ATOM     12  C12 <0> A   1     -16.082  10.614  47.541  0.00  0.00    +0.028 A 
ATOM     13  C13 <0> A   1     -16.711  11.402  48.483  0.00  0.00    +0.014 A 
ATOM     14  C14 <0> A   1     -17.184  10.836  49.653  0.00  0.00    +0.002 A 
ATOM     15  C15 <0> A   1     -17.040   9.486  49.877  0.00  0.00    +0.021 A 
ENDROOT
BRANCH   3  16
ATOM     16  C22 <0> A   1     -13.484  10.107  45.934  0.00  0.00    -0.011 A 
ATOM     17  C23 <0> A   1     -12.489  10.378  46.871  0.00  0.00    +0.051 A 
ATOM     18  C24 <0> A   1     -11.856  11.603  46.868  0.00  0.00    -0.012 A 
ATOM     19  C25 <0> A   1     -12.209  12.566  45.936  0.00  0.00    +0.096 A 
ATOM     20  C26 <0> A   1     -13.198  12.302  45.003  0.00  0.00    -0.018 A 
ATOM     21  C27 <0> A   1     -13.832  11.076  44.994  0.00  0.00    +0.056 A 
ATOM     22  F1  <0> A   1     -11.588  13.765  45.938  0.00  0.00    -0.141 F 
ENDBRANCH   3  16
BRANCH   8  23
ATOM     23  C16 <0> A   1     -18.088   5.680  48.746  0.00  0.00    +0.136 A 
ATOM     24  C17 <0> A   1     -17.904   4.466  49.395  0.00  0.00    +0.015 A 
ATOM     25  C18 <0> A   1     -18.996   3.758  49.855  0.00  0.00    +0.015 A 
ATOM     26  C19 <0> A   1     -20.273   4.255  49.667  0.00  0.00    +0.011 A 
ATOM     27  C20 <0> A   1     -20.459   5.463  49.021  0.00  0.00    +0.015 A 
ATOM     28  C21 <0> A   1     -19.371   6.179  48.565  0.00  0.00    +0.019 A 
ENDBRANCH   8  23
BRANCH   1  30
ATOM     29  C1  <0> A   1     -14.661   4.296  45.865  0.00  0.00    +0.050 C 
ATOM     30  C2  <0> A   1     -14.689   5.383  44.789  0.00  0.00    +0.231 C 
ATOM     31  C3  <0> A   1     -15.945   5.219  43.931  0.00  0.00    +0.045 C 
ENDBRANCH   1  30
BRANCH   2  32
ATOM     32  C28 <0> A   1     -12.757   7.684  44.113  0.00  0.00    +0.119 C 
BRANCH  32  33
ATOM     33  C29 <0> A   1     -13.357   7.852  42.716  0.00  0.00    -0.009 C 
BRANCH  33  34
ATOM     34  C30 <0> A   1     -12.247   7.741  41.668  0.00  0.00    +0.213 C 
BRANCH  34  35
ATOM     35  O5  <0> A   1     -11.615   6.465  41.777  0.00  0.00    -0.541 OA
ATOM     36  H34 <0> A   1     -11.466   6.176  42.688  0.00  0.00    +0.362 HD
ENDBRANCH  34  35
BRANCH  34  37
ATOM     37  C31 <0> A   1     -12.850   7.895  40.270  0.00  0.00    -0.051 C 
BRANCH  37  38
ATOM     38  C32 <0> A   1     -12.396   9.224  39.663  0.00  0.00    +0.231 C 
BRANCH  38  39
ATOM     39  O4  <0> A   1     -12.827   9.298  38.302  0.00  0.00    -0.528 OA
ATOM     40  H33 <0> A   1     -13.117   8.452  37.935  0.00  0.00    +0.349 HD
ENDBRANCH  38  39
BRANCH  38  41
ATOM     41  C33 <0> A   1     -13.006  10.382  40.455  0.00  0.00    -0.103 C 
BRANCH  41  42
ATOM     42  C34 <0> A   1     -13.818  11.251  39.530  0.00  0.00    +0.490 C 
ATOM     43  O2  <0> A   1     -15.035  11.185  39.542  0.00  0.00    -0.681 OA
ATOM     44  O3  <0> A   1     -13.257  12.020  38.769  0.00  0.00    -0.713 OA
ENDBRANCH  41  42
ENDBRANCH  38  41
ENDBRANCH  37  38
ENDBRANCH  34  37
ENDBRANCH  33  34
ENDBRANCH  32  33
ENDBRANCH   2  32
TORSDOF 12
