REMARK VINA RESULT:      -8.2      2.271      4.540
REMARK  Name = CHEMBL154698
REMARK  8 active torsions:
REMARK  status: ('A' for Active; 'I' for Inactive)
REMARK    1  A    between atoms: C1_1  and  C2_2
REMARK    2  A    between atoms: C2_2  and  C3_3
REMARK    3  A    between atoms: C2_2  and  C4_4
REMARK    4  A    between atoms: C6_6  and  C22_28
REMARK    5  A    between atoms: C7_8  and  C16_21
REMARK    6  A    between atoms: C8_9  and  C9_10
REMARK    7  A    between atoms: C10_11  and  C11_12
REMARK    8  A    between atoms: C13_14  and  O3_20
REMARK                            x       y       z     vdW  Elec       q    Type
REMARK                         _______ _______ _______ _____ _____    ______ ____
ROOT
ATOM      1  C4  <0> A   1     -27.529  -4.130  51.533  0.00  0.00    -0.012 A 
ATOM      2  C5  <0> A   1     -28.251  -2.954  51.465  0.00  0.00    -0.017 A 
ATOM      3  C6  <0> A   1     -27.584  -1.733  51.563  0.00  0.00    +0.179 A 
ATOM      4  N1  <0> A   1     -26.268  -1.686  51.722  0.00  0.00    -0.469 NA
ATOM      5  C7  <0> A   1     -25.536  -2.786  51.792  0.00  0.00    +0.188 A 
ATOM      6  C8  <0> A   1     -26.143  -4.052  51.706  0.00  0.00    -0.100 A 
ENDROOT
BRANCH   5   7
ATOM      7  C16 <0> A   1     -24.070  -2.684  51.969  0.00  0.00    -0.062 A 
ATOM      8  C17 <0> A   1     -23.537  -2.317  53.205  0.00  0.00    +0.080 A 
ATOM      9  C18 <0> A   1     -22.170  -2.223  53.365  0.00  0.00    -0.020 A 
ATOM     10  C19 <0> A   1     -21.326  -2.493  52.300  0.00  0.00    +0.114 A 
ATOM     11  C20 <0> A   1     -21.850  -2.858  51.070  0.00  0.00    -0.021 A 
ATOM     12  C21 <0> A   1     -23.215  -2.960  50.902  0.00  0.00    +0.088 A 
ATOM     13  F1  <0> A   1     -19.988  -2.400  52.461  0.00  0.00    -0.137 F 
ENDBRANCH   5   7
BRANCH   3  14
ATOM     14  C22 <0> A   1     -28.357  -0.470  51.490  0.00  0.00    -0.052 A 
ATOM     15  C23 <0> A   1     -29.672  -0.428  51.950  0.00  0.00    +0.025 A 
ATOM     16  C24 <0> A   1     -30.388   0.751  51.879  0.00  0.00    +0.003 A 
ATOM     17  C25 <0> A   1     -29.802   1.888  51.352  0.00  0.00    +0.017 A 
ATOM     18  C26 <0> A   1     -28.497   1.852  50.895  0.00  0.00    +0.001 A 
ATOM     19  C27 <0> A   1     -27.770   0.681  50.966  0.00  0.00    +0.056 A 
ENDBRANCH   3  14
BRANCH   1  21
ATOM     20  C1  <0> A   1     -28.861  -5.812  52.777  0.00  0.00    +0.034 C 
ATOM     21  C2  <0> A   1     -28.220  -5.466  51.432  0.00  0.00    +0.028 C 
ATOM     22  C3  <0> A   1     -29.302  -5.399  50.352  0.00  0.00    +0.035 C 
ENDBRANCH   1  21
BRANCH   6  23
ATOM     23  C9  <0> A   1     -25.328  -5.280  51.790  0.00  0.00    +0.046 C 
ATOM     24  C10 <0> A   1     -25.059  -5.975  50.692  0.00  0.00    -0.008 C 
BRANCH  24  25
ATOM     25  C11 <0> A   1     -24.227  -7.229  50.778  0.00  0.00    +0.243 C 
ATOM     26  C12 <0> A   1     -25.049  -8.421  50.283  0.00  0.00    +0.051 C 
ATOM     27  C13 <0> A   1     -24.214  -9.701  50.410  0.00  0.00    +0.186 C 
ATOM     28  C14 <0> A   1     -23.828  -9.895  51.883  0.00  0.00    +0.024 C 
ATOM     29  C15 <0> A   1     -23.198  -8.614  52.382  0.00  0.00    +0.498 C 
ATOM     30  O1  <0> A   1     -22.150  -8.630  52.981  0.00  0.00    -0.449 OA
ATOM     31  O2  <0> A   1     -23.841  -7.453  52.138  0.00  0.00    -0.370 OA
BRANCH  27  32
ATOM     32  O3  <0> A   1     -23.034  -9.583  49.616  0.00  0.00    -0.563 OA
ATOM     33  H17 <0> A   1     -22.341 -10.218  49.844  0.00  0.00    +0.387 HD
ENDBRANCH  27  32
ENDBRANCH  24  25
ENDBRANCH   6  23
TORSDOF 6
