REMARK VINA RESULT:      -8.7      4.839      9.189
REMARK  Name = CHEMBL398403
REMARK  17 active torsions:
REMARK  status: ('A' for Active; 'I' for Inactive)
REMARK    1  A    between atoms: C1_1  and  C2_2
REMARK    2  A    between atoms: C2_2  and  N1_3
REMARK    3  A    between atoms: C3_4  and  C23_29
REMARK    4  A    between atoms: C4_5  and  C17_22
REMARK    5  A    between atoms: C5_6  and  C16_21
REMARK    6  A    between atoms: C6_7  and  C7_8
REMARK    7  A    between atoms: N2_10  and  C8_11
REMARK    8  A    between atoms: C8_11  and  C9_12
REMARK    9  A    between atoms: C12_15  and  C15_18
REMARK   10  A    between atoms: C23_29  and  C24_30
REMARK   11  A    between atoms: C24_30  and  C25_31
REMARK   12  A    between atoms: C25_31  and  C26_33
REMARK   13  A    between atoms: C25_31  and  O7_41
REMARK   14  A    between atoms: C26_33  and  C27_34
REMARK   15  A    between atoms: C27_34  and  C28_36
REMARK   16  A    between atoms: C27_34  and  O6_40
REMARK   17  A    between atoms: C28_36  and  C29_37
REMARK                            x       y       z     vdW  Elec       q    Type
REMARK                         _______ _______ _______ _____ _____    ______ ____
ROOT
ATOM      1  N1  <0> A   1     -14.989   6.784  45.811  0.00  0.00    -0.407 N 
ATOM      2  C3  <0> A   1     -14.066   7.721  45.510  0.00  0.00    +0.073 C 
ATOM      3  C4  <0> A   1     -14.406   8.885  46.138  0.00  0.00    -0.145 C 
ATOM      4  C5  <0> A   1     -15.595   8.645  46.856  0.00  0.00    -0.090 C 
ATOM      5  C6  <0> A   1     -15.941   7.342  46.635  0.00  0.00    -0.043 C 
ATOM      6  C16 <0> A   1     -16.345   9.640  47.703  0.00  0.00    +0.108 C 
ENDROOT
BRANCH   3   7
ATOM      7  C17 <0> A   1     -13.660  10.168  46.077  0.00  0.00    -0.002 A 
ATOM      8  C18 <0> A   1     -12.680  10.451  47.026  0.00  0.00    +0.050 A 
ATOM      9  C19 <0> A   1     -11.989  11.645  46.964  0.00  0.00    -0.017 A 
ATOM     10  C20 <0> A   1     -12.270  12.560  45.962  0.00  0.00    +0.089 A 
ATOM     11  C21 <0> A   1     -13.244  12.281  45.018  0.00  0.00    -0.019 A 
ATOM     12  C22 <0> A   1     -13.935  11.088  45.068  0.00  0.00    +0.052 A 
ATOM     13  F1  <0> A   1     -11.593  13.727  45.908  0.00  0.00    -0.144 F 
ENDBRANCH   3   7
BRANCH   5  14
ATOM     14  C7  <0> A   1     -17.116   6.656  47.182  0.00  0.00    +0.594 C 
ATOM     15  O1  <0> A   1     -18.101   6.486  46.485  0.00  0.00    -0.530 OA
ATOM     16  N2  <0> A   1     -17.108   6.215  48.455  0.00  0.00    -0.713 N 
ATOM     17  H8  <0> A   1     -16.354   6.414  49.033  0.00  0.00    +0.406 HD
BRANCH  16  18
ATOM     18  C8  <0> A   1     -18.236   5.433  48.967  0.00  0.00    +0.315 C 
BRANCH  18  19
ATOM     19  C9  <0> A   1     -19.172   6.338  49.725  0.00  0.00    -0.128 A 
ATOM     20  C10 <0> A   1     -18.904   7.694  49.806  0.00  0.00    -0.003 A 
ATOM     21  C11 <0> A   1     -19.757   8.529  50.498  0.00  0.00    +0.039 A 
ATOM     22  C12 <0> A   1     -20.893   8.002  51.118  0.00  0.00    -0.122 A 
ATOM     23  C13 <0> A   1     -21.157   6.633  51.032  0.00  0.00    +0.039 A 
ATOM     24  C14 <0> A   1     -20.298   5.811  50.332  0.00  0.00    -0.001 A 
BRANCH  22  25
ATOM     25  C15 <0> A   1     -21.809   8.888  51.861  0.00  0.00    +0.518 C 
ATOM     26  O2  <0> A   1     -22.981   8.569  52.009  0.00  0.00    -0.686 OA
ATOM     27  O3  <0> A   1     -21.399   9.939  52.330  0.00  0.00    -0.686 OA
ENDBRANCH  22  25
ENDBRANCH  18  19
ENDBRANCH  16  18
ENDBRANCH   5  14
BRANCH   1  29
ATOM     28  C1  <0> A   1     -15.833   5.295  44.065  0.00  0.00    +0.038 C 
ATOM     29  C2  <0> A   1     -14.982   5.400  45.332  0.00  0.00    +0.281 C 
ENDBRANCH   1  29
BRANCH   2  30
ATOM     30  C23 <0> A   1     -12.860   7.517  44.629  0.00  0.00    +0.116 C 
BRANCH  30  31
ATOM     31  C24 <0> A   1     -13.246   7.770  43.171  0.00  0.00    -0.008 C 
BRANCH  31  32
ATOM     32  C25 <0> A   1     -12.036   7.513  42.271  0.00  0.00    +0.212 C 
BRANCH  32  33
ATOM     33  O7  <0> A   1     -11.825   6.105  42.147  0.00  0.00    -0.542 OA
ATOM     34  H31 <0> A   1     -11.305   5.720  42.866  0.00  0.00    +0.363 HD
ENDBRANCH  32  33
BRANCH  32  35
ATOM     35  C26 <0> A   1     -12.293   8.113  40.888  0.00  0.00    -0.051 C 
BRANCH  35  36
ATOM     36  C27 <0> A   1     -12.862   9.525  41.042  0.00  0.00    +0.230 C 
BRANCH  36  37
ATOM     37  O6  <0> A   1     -11.793  10.474  41.013  0.00  0.00    -0.528 OA
ATOM     38  H30 <0> A   1     -11.104  10.270  40.366  0.00  0.00    +0.349 HD
ENDBRANCH  36  37
BRANCH  36  39
ATOM     39  C28 <0> A   1     -13.830   9.814  39.893  0.00  0.00    -0.103 C 
BRANCH  39  40
ATOM     40  C29 <0> A   1     -13.942  11.303  39.692  0.00  0.00    +0.491 C 
ATOM     41  O4  <0> A   1     -14.604  11.974  40.466  0.00  0.00    -0.681 OA
ATOM     42  O5  <0> A   1     -13.372  11.838  38.757  0.00  0.00    -0.715 OA
ENDBRANCH  39  40
ENDBRANCH  36  39
ENDBRANCH  35  36
ENDBRANCH  32  35
ENDBRANCH  31  32
ENDBRANCH  30  31
ENDBRANCH   2  30
TORSDOF 15
