MODEL 1
REMARK VINA RESULT:      -8.0      0.000      0.000
REMARK  Name = CHEMBL358623
REMARK  15 active torsions:
REMARK  status: ('A' for Active; 'I' for Inactive)
REMARK    1  A    between atoms: C1_1  and  C2_2
REMARK    2  A    between atoms: C2_2  and  C3_3
REMARK    3  A    between atoms: C2_2  and  C4_4
REMARK    4  A    between atoms: C5_5  and  C18_20
REMARK    5  A    between atoms: C6_6  and  C12_13
REMARK    6  A    between atoms: C7_7  and  C8_9
REMARK    7  A    between atoms: C9_10  and  C10_11
REMARK    8  A    between atoms: C9_10  and  C11_12
REMARK    9  A    between atoms: C19_21  and  C20_22
REMARK   10  A    between atoms: C20_22  and  C21_24
REMARK   11  A    between atoms: C20_22  and  O4_32
REMARK   12  A    between atoms: C21_24  and  C22_25
REMARK   13  A    between atoms: C22_25  and  C23_27
REMARK   14  A    between atoms: C22_25  and  O3_31
REMARK   15  A    between atoms: C23_27  and  C24_28
REMARK                            x       y       z     vdW  Elec       q    Type
REMARK                         _______ _______ _______ _____ _____    ______ ____
ROOT
ATOM      1  C4  <0> A   1     -15.077   6.389  45.390  0.00  0.00    -0.153 C 
ATOM      2  C5  <0> A   1     -14.314   7.515  45.260  0.00  0.00    -0.071 C 
ATOM      3  C6  <0> A   1     -14.628   8.643  46.101  0.00  0.00    -0.072 C 
ATOM      4  C7  <0> A   1     -15.689   8.498  46.986  0.00  0.00    -0.108 C 
ATOM      5  S1  <0> A   1     -16.249   6.837  46.657  0.00  0.00    +0.076 S 
ENDROOT
BRANCH   3   6
ATOM      6  C12 <0> A   1     -13.852   9.901  46.026  0.00  0.00    -0.030 A 
ATOM      7  C13 <0> A   1     -12.764  10.105  46.874  0.00  0.00    +0.064 A 
ATOM      8  C14 <0> A   1     -12.045  11.279  46.800  0.00  0.00    -0.013 A 
ATOM      9  C15 <0> A   1     -12.402  12.256  45.884  0.00  0.00    +0.099 A 
ATOM     10  C16 <0> A   1     -13.482  12.059  45.039  0.00  0.00    -0.016 A 
ATOM     11  C17 <0> A   1     -14.205  10.886  45.101  0.00  0.00    +0.049 A 
ATOM     12  F1  <0> A   1     -11.694  13.405  45.815  0.00  0.00    -0.140 F 
ENDBRANCH   3   6
BRANCH   4  13
ATOM     13  C8  <0> A   1     -16.222   9.471  47.947  0.00  0.00    +0.043 C 
ATOM     14  C9  <0> A   1     -15.775   9.482  49.202  0.00  0.00    -0.109 C 
ATOM     15  C10 <0> A   1     -14.723   8.493  49.634  0.00  0.00    +0.096 C 
ATOM     16  C11 <0> A   1     -16.323  10.481  50.188  0.00  0.00    +0.090 C 
ENDBRANCH   4  13
BRANCH   1  18
ATOM     17  C1  <0> A   1     -14.164   4.085  45.480  0.00  0.00    +0.032 C 
ATOM     18  C2  <0> A   1     -14.961   5.086  44.641  0.00  0.00    +0.081 C 
ATOM     19  C3  <0> A   1     -16.359   4.527  44.370  0.00  0.00    +0.033 C 
ENDBRANCH   1  18
BRANCH   2  20
ATOM     20  C18 <0> A   1     -13.203   7.574  44.289  0.00  0.00    +0.014 C 
ATOM     21  C19 <0> A   1     -13.459   7.548  42.987  0.00  0.00    -0.046 C 
BRANCH  21  22
ATOM     22  C20 <0> A   1     -12.325   7.609  41.996  0.00  0.00    +0.249 C 
BRANCH  22  23
ATOM     23  O4  <0> A   1     -11.587   6.386  42.040  0.00  0.00    -0.538 OA
ATOM     24  H28 <0> A   1     -11.772   5.789  41.302  0.00  0.00    +0.364 HD
ENDBRANCH  22  23
BRANCH  22  25
ATOM     25  C21 <0> A   1     -12.890   7.815  40.588  0.00  0.00    -0.042 C 
BRANCH  25  26
ATOM     26  C22 <0> A   1     -12.277   9.075  39.973  0.00  0.00    +0.230 C 
BRANCH  26  27
ATOM     27  O3  <0> A   1     -12.436   9.037  38.554  0.00  0.00    -0.528 OA
ATOM     28  H27 <0> A   1     -11.612   9.161  38.062  0.00  0.00    +0.350 HD
ENDBRANCH  26  27
BRANCH  26  29
ATOM     29  C23 <0> A   1     -12.985  10.311  40.533  0.00  0.00    -0.102 C 
BRANCH  29  30
ATOM     30  C24 <0> A   1     -13.300  11.262  39.407  0.00  0.00    +0.491 C 
ATOM     31  O1  <0> A   1     -12.410  11.920  38.897  0.00  0.00    -0.681 OA
ATOM     32  O2  <0> A   1     -14.446  11.373  39.006  0.00  0.00    -0.713 OA
ENDBRANCH  29  30
ENDBRANCH  26  29
ENDBRANCH  25  26
ENDBRANCH  22  25
ENDBRANCH  21  22
ENDBRANCH   2  20
TORSDOF 11
ENDMDL
MODEL 2
REMARK VINA RESULT:      -8.0      0.333      1.077
REMARK  Name = CHEMBL358623
REMARK  15 active torsions:
REMARK  status: ('A' for Active; 'I' for Inactive)
REMARK    1  A    between atoms: C1_1  and  C2_2
REMARK    2  A    between atoms: C2_2  and  C3_3
REMARK    3  A    between atoms: C2_2  and  C4_4
REMARK    4  A    between atoms: C5_5  and  C18_20
REMARK    5  A    between atoms: C6_6  and  C12_13
REMARK    6  A    between atoms: C7_7  and  C8_9
REMARK    7  A    between atoms: C9_10  and  C10_11
REMARK    8  A    between atoms: C9_10  and  C11_12
REMARK    9  A    between atoms: C19_21  and  C20_22
REMARK   10  A    between atoms: C20_22  and  C21_24
REMARK   11  A    between atoms: C20_22  and  O4_32
REMARK   12  A    between atoms: C21_24  and  C22_25
REMARK   13  A    between atoms: C22_25  and  C23_27
REMARK   14  A    between atoms: C22_25  and  O3_31
REMARK   15  A    between atoms: C23_27  and  C24_28
REMARK                            x       y       z     vdW  Elec       q    Type
REMARK                         _______ _______ _______ _____ _____    ______ ____
ROOT
ATOM      1  C4  <0> A   1     -14.960   6.475  45.398  0.00  0.00    -0.153 C 
ATOM      2  C5  <0> A   1     -14.224   7.616  45.248  0.00  0.00    -0.071 C 
ATOM      3  C6  <0> A   1     -14.516   8.725  46.122  0.00  0.00    -0.072 C 
ATOM      4  C7  <0> A   1     -15.528   8.547  47.056  0.00  0.00    -0.108 C 
ATOM      5  S1  <0> A   1     -16.074   6.881  46.728  0.00  0.00    +0.076 S 
ENDROOT
BRANCH   3   6
ATOM      6  C12 <0> A   1     -13.767   9.999  46.029  0.00  0.00    -0.030 A 
ATOM      7  C13 <0> A   1     -14.195  11.000  45.157  0.00  0.00    +0.064 A 
ATOM      8  C14 <0> A   1     -13.494  12.184  45.074  0.00  0.00    -0.013 A 
ATOM      9  C15 <0> A   1     -12.366  12.382  45.855  0.00  0.00    +0.099 A 
ATOM     10  C16 <0> A   1     -11.937  11.391  46.722  0.00  0.00    -0.016 A 
ATOM     11  C17 <0> A   1     -12.634  10.204  46.818  0.00  0.00    +0.049 A 
ATOM     12  F1  <0> A   1     -11.683  13.544  45.770  0.00  0.00    -0.140 F 
ENDBRANCH   3   6
BRANCH   4  13
ATOM     13  C8  <0> A   1     -16.029   9.495  48.059  0.00  0.00    +0.043 C 
ATOM     14  C9  <0> A   1     -15.516   9.498  49.288  0.00  0.00    -0.109 C 
ATOM     15  C10 <0> A   1     -14.422   8.527  49.649  0.00  0.00    +0.096 C 
ATOM     16  C11 <0> A   1     -16.031  10.471  50.317  0.00  0.00    +0.090 C 
ENDBRANCH   4  13
BRANCH   1  18
ATOM     17  C1  <0> A   1     -14.222   4.109  45.503  0.00  0.00    +0.032 C 
ATOM     18  C2  <0> A   1     -14.858   5.186  44.622  0.00  0.00    +0.081 C 
ATOM     19  C3  <0> A   1     -16.257   4.737  44.194  0.00  0.00    +0.033 C 
ENDBRANCH   1  18
BRANCH   2  20
ATOM     20  C18 <0> A   1     -13.165   7.712  44.223  0.00  0.00    +0.014 C 
ATOM     21  C19 <0> A   1     -13.483   7.672  42.936  0.00  0.00    -0.046 C 
BRANCH  21  22
ATOM     22  C20 <0> A   1     -12.402   7.770  41.890  0.00  0.00    +0.249 C 
BRANCH  22  23
ATOM     23  O4  <0> A   1     -11.639   6.562  41.880  0.00  0.00    -0.538 OA
ATOM     24  H28 <0> A   1     -11.637   6.091  42.724  0.00  0.00    +0.364 HD
ENDBRANCH  22  23
BRANCH  22  25
ATOM     25  C21 <0> A   1     -13.040   7.983  40.516  0.00  0.00    -0.042 C 
BRANCH  25  26
ATOM     26  C22 <0> A   1     -12.473   9.255  39.883  0.00  0.00    +0.230 C 
BRANCH  26  27
ATOM     27  O3  <0> A   1     -12.821   9.294  38.498  0.00  0.00    -0.528 OA
ATOM     28  H27 <0> A   1     -12.788  10.179  38.108  0.00  0.00    +0.350 HD
ENDBRANCH  26  27
BRANCH  26  29
ATOM     29  C23 <0> A   1     -13.057  10.481  40.589  0.00  0.00    -0.102 C 
BRANCH  29  30
ATOM     30  C24 <0> A   1     -13.882  11.278  39.613  0.00  0.00    +0.491 C 
ATOM     31  O1  <0> A   1     -15.096  11.158  39.599  0.00  0.00    -0.681 OA
ATOM     32  O2  <0> A   1     -13.337  12.043  38.836  0.00  0.00    -0.713 OA
ENDBRANCH  29  30
ENDBRANCH  26  29
ENDBRANCH  25  26
ENDBRANCH  22  25
ENDBRANCH  21  22
ENDBRANCH   2  20
TORSDOF 11
ENDMDL
MODEL 3
REMARK VINA RESULT:      -7.6      2.507      4.671
REMARK  Name = CHEMBL358623
REMARK  15 active torsions:
REMARK  status: ('A' for Active; 'I' for Inactive)
REMARK    1  A    between atoms: C1_1  and  C2_2
REMARK    2  A    between atoms: C2_2  and  C3_3
REMARK    3  A    between atoms: C2_2  and  C4_4
REMARK    4  A    between atoms: C5_5  and  C18_20
REMARK    5  A    between atoms: C6_6  and  C12_13
REMARK    6  A    between atoms: C7_7  and  C8_9
REMARK    7  A    between atoms: C9_10  and  C10_11
REMARK    8  A    between atoms: C9_10  and  C11_12
REMARK    9  A    between atoms: C19_21  and  C20_22
REMARK   10  A    between atoms: C20_22  and  C21_24
REMARK   11  A    between atoms: C20_22  and  O4_32
REMARK   12  A    between atoms: C21_24  and  C22_25
REMARK   13  A    between atoms: C22_25  and  C23_27
REMARK   14  A    between atoms: C22_25  and  O3_31
REMARK   15  A    between atoms: C23_27  and  C24_28
REMARK                            x       y       z     vdW  Elec       q    Type
REMARK                         _______ _______ _______ _____ _____    ______ ____
ROOT
ATOM      1  C4  <0> A   1     -12.709   9.713  46.312  0.00  0.00    -0.153 C 
ATOM      2  C5  <0> A   1     -13.293   8.654  45.677  0.00  0.00    -0.071 C 
ATOM      3  C6  <0> A   1     -14.061   7.731  46.473  0.00  0.00    -0.072 C 
ATOM      4  C7  <0> A   1     -14.150   7.989  47.835  0.00  0.00    -0.108 C 
ATOM      5  S1  <0> A   1     -13.184   9.477  48.014  0.00  0.00    +0.076 S 
ENDROOT
BRANCH   3   6
ATOM      6  C12 <0> A   1     -14.728   6.557  45.865  0.00  0.00    -0.030 A 
ATOM      7  C13 <0> A   1     -14.044   5.347  45.747  0.00  0.00    +0.064 A 
ATOM      8  C14 <0> A   1     -14.669   4.256  45.181  0.00  0.00    -0.013 A 
ATOM      9  C15 <0> A   1     -15.975   4.360  44.728  0.00  0.00    +0.099 A 
ATOM     10  C16 <0> A   1     -16.659   5.560  44.843  0.00  0.00    -0.016 A 
ATOM     11  C17 <0> A   1     -16.045   6.656  45.414  0.00  0.00    +0.049 A 
ATOM     12  F1  <0> A   1     -16.583   3.289  44.174  0.00  0.00    -0.140 F 
ENDBRANCH   3   6
BRANCH   4  13
ATOM     13  C8  <0> A   1     -14.858   7.226  48.870  0.00  0.00    +0.043 C 
ATOM     14  C9  <0> A   1     -16.112   7.538  49.188  0.00  0.00    -0.109 C 
ATOM     15  C10 <0> A   1     -16.806   8.677  48.485  0.00  0.00    +0.096 C 
ATOM     16  C11 <0> A   1     -16.838   6.754  50.251  0.00  0.00    +0.090 C 
ENDBRANCH   4  13
BRANCH   1  18
ATOM     17  C1  <0> A   1     -12.202  12.139  46.400  0.00  0.00    +0.032 C 
ATOM     18  C2  <0> A   1     -11.863  10.811  45.719  0.00  0.00    +0.081 C 
ATOM     19  C3  <0> A   1     -10.383  10.489  45.936  0.00  0.00    +0.033 C 
ENDBRANCH   1  18
BRANCH   2  20
ATOM     20  C18 <0> A   1     -13.142   8.462  44.220  0.00  0.00    +0.014 C 
ATOM     21  C19 <0> A   1     -12.062   7.858  43.740  0.00  0.00    -0.046 C 
BRANCH  21  22
ATOM     22  C20 <0> A   1     -11.909   7.661  42.253  0.00  0.00    +0.249 C 
BRANCH  22  23
ATOM     23  O4  <0> A   1     -11.783   6.266  41.968  0.00  0.00    -0.538 OA
ATOM     24  H28 <0> A   1     -10.896   6.001  41.688  0.00  0.00    +0.364 HD
ENDBRANCH  22  23
BRANCH  22  25
ATOM     25  C21 <0> A   1     -13.139   8.220  41.535  0.00  0.00    -0.042 C 
BRANCH  25  26
ATOM     26  C22 <0> A   1     -12.701   9.296  40.539  0.00  0.00    +0.230 C 
BRANCH  26  27
ATOM     27  O3  <0> A   1     -13.176   8.958  39.235  0.00  0.00    -0.528 OA
ATOM     28  H27 <0> A   1     -12.932   8.068  38.945  0.00  0.00    +0.350 HD
ENDBRANCH  26  27
BRANCH  26  29
ATOM     29  C23 <0> A   1     -13.284  10.647  40.959  0.00  0.00    -0.102 C 
BRANCH  29  30
ATOM     30  C24 <0> A   1     -14.008  11.267  39.792  0.00  0.00    +0.491 C 
ATOM     31  O1  <0> A   1     -15.217  11.147  39.692  0.00  0.00    -0.681 OA
ATOM     32  O2  <0> A   1     -13.385  11.888  38.948  0.00  0.00    -0.713 OA
ENDBRANCH  29  30
ENDBRANCH  26  29
ENDBRANCH  25  26
ENDBRANCH  22  25
ENDBRANCH  21  22
ENDBRANCH   2  20
TORSDOF 11
ENDMDL
MODEL 4
REMARK VINA RESULT:      -7.5      2.885      5.009
REMARK  Name = CHEMBL358623
REMARK  15 active torsions:
REMARK  status: ('A' for Active; 'I' for Inactive)
REMARK    1  A    between atoms: C1_1  and  C2_2
REMARK    2  A    between atoms: C2_2  and  C3_3
REMARK    3  A    between atoms: C2_2  and  C4_4
REMARK    4  A    between atoms: C5_5  and  C18_20
REMARK    5  A    between atoms: C6_6  and  C12_13
REMARK    6  A    between atoms: C7_7  and  C8_9
REMARK    7  A    between atoms: C9_10  and  C10_11
REMARK    8  A    between atoms: C9_10  and  C11_12
REMARK    9  A    between atoms: C19_21  and  C20_22
REMARK   10  A    between atoms: C20_22  and  C21_24
REMARK   11  A    between atoms: C20_22  and  O4_32
REMARK   12  A    between atoms: C21_24  and  C22_25
REMARK   13  A    between atoms: C22_25  and  C23_27
REMARK   14  A    between atoms: C22_25  and  O3_31
REMARK   15  A    between atoms: C23_27  and  C24_28
REMARK                            x       y       z     vdW  Elec       q    Type
REMARK                         _______ _______ _______ _____ _____    ______ ____
ROOT
ATOM      1  C4  <0> A   1     -15.638  10.479  47.445  0.00  0.00    -0.153 C 
ATOM      2  C5  <0> A   1     -15.241   9.410  46.694  0.00  0.00    -0.071 C 
ATOM      3  C6  <0> A   1     -15.536   8.090  47.191  0.00  0.00    -0.072 C 
ATOM      4  C7  <0> A   1     -16.207   8.005  48.404  0.00  0.00    -0.108 C 
ATOM      5  S1  <0> A   1     -16.420   9.717  48.854  0.00  0.00    +0.076 S 
ENDROOT
BRANCH   3   6
ATOM      6  C12 <0> A   1     -15.142   6.876  46.441  0.00  0.00    -0.030 A 
ATOM      7  C13 <0> A   1     -15.980   6.359  45.453  0.00  0.00    +0.064 A 
ATOM      8  C14 <0> A   1     -15.608   5.229  44.758  0.00  0.00    -0.013 A 
ATOM      9  C15 <0> A   1     -14.403   4.605  45.039  0.00  0.00    +0.099 A 
ATOM     10  C16 <0> A   1     -13.566   5.113  46.019  0.00  0.00    -0.016 A 
ATOM     11  C17 <0> A   1     -13.926   6.247  46.717  0.00  0.00    +0.049 A 
ATOM     12  F1  <0> A   1     -14.042   3.497  44.354  0.00  0.00    -0.140 F 
ENDBRANCH   3   6
BRANCH   4  13
ATOM     13  C8  <0> A   1     -16.631   6.805  49.137  0.00  0.00    +0.043 C 
ATOM     14  C9  <0> A   1     -17.818   6.256  48.887  0.00  0.00    -0.109 C 
ATOM     15  C10 <0> A   1     -18.727   6.867  47.852  0.00  0.00    +0.096 C 
ATOM     16  C11 <0> A   1     -18.252   5.025  49.640  0.00  0.00    +0.090 C 
ENDBRANCH   4  13
BRANCH   1  18
ATOM     17  C1  <0> A   1     -16.691  12.718  47.626  0.00  0.00    +0.032 C 
ATOM     18  C2  <0> A   1     -15.456  11.947  47.155  0.00  0.00    +0.081 C 
ATOM     19  C3  <0> A   1     -14.220  12.463  47.896  0.00  0.00    +0.033 C 
ENDBRANCH   1  18
BRANCH   2  20
ATOM     20  C18 <0> A   1     -14.530   9.600  45.413  0.00  0.00    +0.014 C 
ATOM     21  C19 <0> A   1     -13.206   9.685  45.395  0.00  0.00    -0.046 C 
BRANCH  21  22
ATOM     22  C20 <0> A   1     -12.482   9.879  44.088  0.00  0.00    +0.249 C 
BRANCH  22  23
ATOM     23  O4  <0> A   1     -11.641   8.751  43.838  0.00  0.00    -0.538 OA
ATOM     24  H28 <0> A   1     -11.331   8.687  42.924  0.00  0.00    +0.364 HD
ENDBRANCH  22  23
BRANCH  22  25
ATOM     25  C21 <0> A   1     -13.502  10.017  42.956  0.00  0.00    -0.042 C 
BRANCH  25  26
ATOM     26  C22 <0> A   1     -12.945  10.951  41.880  0.00  0.00    +0.230 C 
BRANCH  26  27
ATOM     27  O3  <0> A   1     -11.630  10.527  41.515  0.00  0.00    -0.528 OA
ATOM     28  H27 <0> A   1     -11.089  10.238  42.263  0.00  0.00    +0.350 HD
ENDBRANCH  26  27
BRANCH  26  29
ATOM     29  C23 <0> A   1     -13.854  10.910  40.649  0.00  0.00    -0.102 C 
BRANCH  29  30
ATOM     30  C24 <0> A   1     -13.010  10.936  39.401  0.00  0.00    +0.491 C 
ATOM     31  O1  <0> A   1     -12.731   9.895  38.831  0.00  0.00    -0.681 OA
ATOM     32  O2  <0> A   1     -12.606  11.999  38.960  0.00  0.00    -0.713 OA
ENDBRANCH  29  30
ENDBRANCH  26  29
ENDBRANCH  25  26
ENDBRANCH  22  25
ENDBRANCH  21  22
ENDBRANCH   2  20
TORSDOF 11
ENDMDL
MODEL 5
REMARK VINA RESULT:      -7.2     16.724     19.908
REMARK  Name = CHEMBL358623
REMARK  15 active torsions:
REMARK  status: ('A' for Active; 'I' for Inactive)
REMARK    1  A    between atoms: C1_1  and  C2_2
REMARK    2  A    between atoms: C2_2  and  C3_3
REMARK    3  A    between atoms: C2_2  and  C4_4
REMARK    4  A    between atoms: C5_5  and  C18_20
REMARK    5  A    between atoms: C6_6  and  C12_13
REMARK    6  A    between atoms: C7_7  and  C8_9
REMARK    7  A    between atoms: C9_10  and  C10_11
REMARK    8  A    between atoms: C9_10  and  C11_12
REMARK    9  A    between atoms: C19_21  and  C20_22
REMARK   10  A    between atoms: C20_22  and  C21_24
REMARK   11  A    between atoms: C20_22  and  O4_32
REMARK   12  A    between atoms: C21_24  and  C22_25
REMARK   13  A    between atoms: C22_25  and  C23_27
REMARK   14  A    between atoms: C22_25  and  O3_31
REMARK   15  A    between atoms: C23_27  and  C24_28
REMARK                            x       y       z     vdW  Elec       q    Type
REMARK                         _______ _______ _______ _____ _____    ______ ____
ROOT
ATOM      1  C4  <0> A   1     -24.666  -1.276  53.073  0.00  0.00    -0.153 C 
ATOM      2  C5  <0> A   1     -25.565  -2.162  52.550  0.00  0.00    -0.071 C 
ATOM      3  C6  <0> A   1     -26.915  -1.705  52.333  0.00  0.00    -0.072 C 
ATOM      4  C7  <0> A   1     -27.200  -0.389  52.673  0.00  0.00    -0.108 C 
ATOM      5  S1  <0> A   1     -25.635   0.204  53.289  0.00  0.00    +0.076 S 
ENDROOT
BRANCH   3   6
ATOM      6  C12 <0> A   1     -27.952  -2.599  51.771  0.00  0.00    -0.030 A 
ATOM      7  C13 <0> A   1     -28.780  -3.332  52.621  0.00  0.00    +0.064 A 
ATOM      8  C14 <0> A   1     -29.745  -4.163  52.093  0.00  0.00    -0.013 A 
ATOM      9  C15 <0> A   1     -29.893  -4.272  50.719  0.00  0.00    +0.099 A 
ATOM     10  C16 <0> A   1     -29.073  -3.547  49.870  0.00  0.00    -0.016 A 
ATOM     11  C17 <0> A   1     -28.108  -2.707  50.388  0.00  0.00    +0.049 A 
ATOM     12  F1  <0> A   1     -30.839  -5.088  50.206  0.00  0.00    -0.140 F 
ENDBRANCH   3   6
BRANCH   4  13
ATOM     13  C8  <0> A   1     -28.474   0.334  52.560  0.00  0.00    +0.043 C 
ATOM     14  C9  <0> A   1     -28.737   1.054  51.472  0.00  0.00    -0.109 C 
ATOM     15  C10 <0> A   1     -27.726   1.130  50.356  0.00  0.00    +0.096 C 
ATOM     16  C11 <0> A   1     -30.044   1.795  51.356  0.00  0.00    +0.090 C 
ENDBRANCH   4  13
BRANCH   1  18
ATOM     17  C1  <0> A   1     -22.345  -0.736  52.386  0.00  0.00    +0.032 C 
ATOM     18  C2  <0> A   1     -23.210  -1.498  53.393  0.00  0.00    +0.081 C 
ATOM     19  C3  <0> A   1     -22.916  -0.989  54.806  0.00  0.00    +0.033 C 
ENDBRANCH   1  18
BRANCH   2  20
ATOM     20  C18 <0> A   1     -25.167  -3.546  52.219  0.00  0.00    +0.014 C 
ATOM     21  C19 <0> A   1     -24.711  -3.832  51.007  0.00  0.00    -0.046 C 
BRANCH  21  22
ATOM     22  C20 <0> A   1     -24.304  -5.244  50.670  0.00  0.00    +0.249 C 
BRANCH  22  23
ATOM     23  O4  <0> A   1     -23.552  -5.794  51.753  0.00  0.00    -0.538 OA
ATOM     24  H28 <0> A   1     -23.281  -5.142  52.414  0.00  0.00    +0.364 HD
ENDBRANCH  22  23
BRANCH  22  25
ATOM     25  C21 <0> A   1     -25.556  -6.093  50.433  0.00  0.00    -0.042 C 
BRANCH  25  26
ATOM     26  C22 <0> A   1     -25.193  -7.307  49.577  0.00  0.00    +0.230 C 
BRANCH  26  27
ATOM     27  O3  <0> A   1     -23.876  -7.141  49.048  0.00  0.00    -0.528 OA
ATOM     28  H27 <0> A   1     -23.427  -6.340  49.354  0.00  0.00    +0.350 HD
ENDBRANCH  26  27
BRANCH  26  29
ATOM     29  C23 <0> A   1     -25.241  -8.571  50.437  0.00  0.00    -0.102 C 
BRANCH  29  30
ATOM     30  C24 <0> A   1     -23.842  -9.091  50.646  0.00  0.00    +0.491 C 
ATOM     31  O1  <0> A   1     -23.149  -8.634  51.539  0.00  0.00    -0.681 OA
ATOM     32  O2  <0> A   1     -23.403  -9.967  49.921  0.00  0.00    -0.713 OA
ENDBRANCH  29  30
ENDBRANCH  26  29
ENDBRANCH  25  26
ENDBRANCH  22  25
ENDBRANCH  21  22
ENDBRANCH   2  20
TORSDOF 11
ENDMDL
MODEL 6
REMARK VINA RESULT:      -7.1      1.969      2.136
REMARK  Name = CHEMBL358623
REMARK  15 active torsions:
REMARK  status: ('A' for Active; 'I' for Inactive)
REMARK    1  A    between atoms: C1_1  and  C2_2
REMARK    2  A    between atoms: C2_2  and  C3_3
REMARK    3  A    between atoms: C2_2  and  C4_4
REMARK    4  A    between atoms: C5_5  and  C18_20
REMARK    5  A    between atoms: C6_6  and  C12_13
REMARK    6  A    between atoms: C7_7  and  C8_9
REMARK    7  A    between atoms: C9_10  and  C10_11
REMARK    8  A    between atoms: C9_10  and  C11_12
REMARK    9  A    between atoms: C19_21  and  C20_22
REMARK   10  A    between atoms: C20_22  and  C21_24
REMARK   11  A    between atoms: C20_22  and  O4_32
REMARK   12  A    between atoms: C21_24  and  C22_25
REMARK   13  A    between atoms: C22_25  and  C23_27
REMARK   14  A    between atoms: C22_25  and  O3_31
REMARK   15  A    between atoms: C23_27  and  C24_28
REMARK                            x       y       z     vdW  Elec       q    Type
REMARK                         _______ _______ _______ _____ _____    ______ ____
ROOT
ATOM      1  C4  <0> A   1     -14.879   6.564  45.723  0.00  0.00    -0.153 C 
ATOM      2  C5  <0> A   1     -14.634   7.880  46.000  0.00  0.00    -0.071 C 
ATOM      3  C6  <0> A   1     -15.440   8.517  47.010  0.00  0.00    -0.072 C 
ATOM      4  C7  <0> A   1     -16.411   7.741  47.630  0.00  0.00    -0.108 C 
ATOM      5  S1  <0> A   1     -16.219   6.160  46.826  0.00  0.00    +0.076 S 
ENDROOT
BRANCH   3   6
ATOM      6  C12 <0> A   1     -15.242   9.939  47.372  0.00  0.00    -0.030 A 
ATOM      7  C13 <0> A   1     -14.275  10.294  48.312  0.00  0.00    +0.064 A 
ATOM      8  C14 <0> A   1     -14.095  11.619  48.646  0.00  0.00    -0.013 A 
ATOM      9  C15 <0> A   1     -14.873  12.599  48.050  0.00  0.00    +0.099 A 
ATOM     10  C16 <0> A   1     -15.835  12.252  47.116  0.00  0.00    -0.016 A 
ATOM     11  C17 <0> A   1     -16.020  10.929  46.770  0.00  0.00    +0.049 A 
ATOM     12  F1  <0> A   1     -14.692  13.896  48.381  0.00  0.00    -0.140 F 
ENDBRANCH   3   6
BRANCH   4  13
ATOM     13  C8  <0> A   1     -17.363   8.125  48.680  0.00  0.00    +0.043 C 
ATOM     14  C9  <0> A   1     -17.037   7.975  49.962  0.00  0.00    -0.109 C 
ATOM     15  C10 <0> A   1     -15.691   7.409  50.335  0.00  0.00    +0.096 C 
ATOM     16  C11 <0> A   1     -18.013   8.370  51.039  0.00  0.00    +0.090 C 
ENDBRANCH   4  13
BRANCH   1  18
ATOM     17  C1  <0> A   1     -14.217   4.227  45.223  0.00  0.00    +0.032 C 
ATOM     18  C2  <0> A   1     -14.187   5.673  44.723  0.00  0.00    +0.081 C 
ATOM     19  C3  <0> A   1     -14.908   5.763  43.376  0.00  0.00    +0.033 C 
ENDBRANCH   1  18
BRANCH   2  20
ATOM     20  C18 <0> A   1     -13.577   8.625  45.286  0.00  0.00    +0.014 C 
ATOM     21  C19 <0> A   1     -13.878   9.326  44.200  0.00  0.00    -0.046 C 
BRANCH  21  22
ATOM     22  C20 <0> A   1     -12.799  10.087  43.473  0.00  0.00    +0.249 C 
BRANCH  22  23
ATOM     23  O4  <0> A   1     -11.693  10.303  44.351  0.00  0.00    -0.538 OA
ATOM     24  H28 <0> A   1     -10.881   9.853  44.079  0.00  0.00    +0.364 HD
ENDBRANCH  22  23
BRANCH  22  25
ATOM     25  C21 <0> A   1     -12.337   9.279  42.258  0.00  0.00    -0.042 C 
BRANCH  25  26
ATOM     26  C22 <0> A   1     -12.259  10.196  41.036  0.00  0.00    +0.230 C 
BRANCH  26  27
ATOM     27  O3  <0> A   1     -12.426   9.420  39.848  0.00  0.00    -0.528 OA
ATOM     28  H27 <0> A   1     -13.324   9.080  39.722  0.00  0.00    +0.350 HD
ENDBRANCH  26  27
BRANCH  26  29
ATOM     29  C23 <0> A   1     -13.367  11.249  41.117  0.00  0.00    -0.102 C 
BRANCH  29  30
ATOM     30  C24 <0> A   1     -13.995  11.423  39.759  0.00  0.00    +0.491 C 
ATOM     31  O1  <0> A   1     -13.359  11.934  38.853  0.00  0.00    -0.681 OA
ATOM     32  O2  <0> A   1     -15.140  11.052  39.565  0.00  0.00    -0.713 OA
ENDBRANCH  29  30
ENDBRANCH  26  29
ENDBRANCH  25  26
ENDBRANCH  22  25
ENDBRANCH  21  22
ENDBRANCH   2  20
TORSDOF 11
ENDMDL
MODEL 7
REMARK VINA RESULT:      -7.0     16.913     19.925
REMARK  Name = CHEMBL358623
REMARK  15 active torsions:
REMARK  status: ('A' for Active; 'I' for Inactive)
REMARK    1  A    between atoms: C1_1  and  C2_2
REMARK    2  A    between atoms: C2_2  and  C3_3
REMARK    3  A    between atoms: C2_2  and  C4_4
REMARK    4  A    between atoms: C5_5  and  C18_20
REMARK    5  A    between atoms: C6_6  and  C12_13
REMARK    6  A    between atoms: C7_7  and  C8_9
REMARK    7  A    between atoms: C9_10  and  C10_11
REMARK    8  A    between atoms: C9_10  and  C11_12
REMARK    9  A    between atoms: C19_21  and  C20_22
REMARK   10  A    between atoms: C20_22  and  C21_24
REMARK   11  A    between atoms: C20_22  and  O4_32
REMARK   12  A    between atoms: C21_24  and  C22_25
REMARK   13  A    between atoms: C22_25  and  C23_27
REMARK   14  A    between atoms: C22_25  and  O3_31
REMARK   15  A    between atoms: C23_27  and  C24_28
REMARK                            x       y       z     vdW  Elec       q    Type
REMARK                         _______ _______ _______ _____ _____    ______ ____
ROOT
ATOM      1  C4  <0> A   1     -26.127  -2.701  51.160  0.00  0.00    -0.153 C 
ATOM      2  C5  <0> A   1     -25.328  -3.805  51.057  0.00  0.00    -0.071 C 
ATOM      3  C6  <0> A   1     -25.967  -5.090  50.930  0.00  0.00    -0.072 C 
ATOM      4  C7  <0> A   1     -27.356  -5.109  50.921  0.00  0.00    -0.108 C 
ATOM      5  S1  <0> A   1     -27.772  -3.383  51.093  0.00  0.00    +0.076 S 
ENDROOT
BRANCH   3   6
ATOM      6  C12 <0> A   1     -25.178  -6.337  50.813  0.00  0.00    -0.030 A 
ATOM      7  C13 <0> A   1     -24.744  -7.001  51.960  0.00  0.00    +0.064 A 
ATOM      8  C14 <0> A   1     -24.009  -8.162  51.846  0.00  0.00    -0.013 A 
ATOM      9  C15 <0> A   1     -23.700  -8.669  50.594  0.00  0.00    +0.099 A 
ATOM     10  C16 <0> A   1     -24.128  -8.013  49.451  0.00  0.00    -0.016 A 
ATOM     11  C17 <0> A   1     -24.869  -6.854  49.554  0.00  0.00    +0.049 A 
ATOM     12  F1  <0> A   1     -22.980  -9.807  50.487  0.00  0.00    -0.140 F 
ENDBRANCH   3   6
BRANCH   4  13
ATOM     13  C8  <0> A   1     -28.258  -6.262  50.805  0.00  0.00    +0.043 C 
ATOM     14  C9  <0> A   1     -28.679  -6.892  51.900  0.00  0.00    -0.109 C 
ATOM     15  C10 <0> A   1     -28.228  -6.421  53.259  0.00  0.00    +0.096 C 
ATOM     16  C11 <0> A   1     -29.604  -8.074  51.781  0.00  0.00    +0.090 C 
ENDBRANCH   4  13
BRANCH   1  18
ATOM     17  C1  <0> A   1     -26.261  -0.454  50.117  0.00  0.00    +0.032 C 
ATOM     18  C2  <0> A   1     -25.716  -1.257  51.301  0.00  0.00    +0.081 C 
ATOM     19  C3  <0> A   1     -26.283  -0.692  52.605  0.00  0.00    +0.033 C 
ENDBRANCH   1  18
BRANCH   2  20
ATOM     20  C18 <0> A   1     -23.856  -3.684  51.076  0.00  0.00    +0.014 C 
ATOM     21  C19 <0> A   1     -23.211  -3.623  52.234  0.00  0.00    -0.046 C 
BRANCH  21  22
ATOM     22  C20 <0> A   1     -21.708  -3.501  52.253  0.00  0.00    +0.249 C 
BRANCH  22  23
ATOM     23  O4  <0> A   1     -21.248  -3.083  50.966  0.00  0.00    -0.538 OA
ATOM     24  H28 <0> A   1     -21.852  -3.301  50.243  0.00  0.00    +0.364 HD
ENDBRANCH  22  23
BRANCH  22  25
ATOM     25  C21 <0> A   1     -21.295  -2.469  53.304  0.00  0.00    -0.042 C 
BRANCH  25  26
ATOM     26  C22 <0> A   1     -20.294  -3.101  54.273  0.00  0.00    +0.230 C 
BRANCH  26  27
ATOM     27  O3  <0> A   1     -20.818  -4.339  54.758  0.00  0.00    -0.528 OA
ATOM     28  H27 <0> A   1     -21.749  -4.485  54.538  0.00  0.00    +0.350 HD
ENDBRANCH  26  27
BRANCH  26  29
ATOM     29  C23 <0> A   1     -18.972  -3.358  53.545  0.00  0.00    -0.102 C 
BRANCH  29  30
ATOM     30  C24 <0> A   1     -18.364  -4.643  54.045  0.00  0.00    +0.491 C 
ATOM     31  O1  <0> A   1     -18.372  -5.637  53.339  0.00  0.00    -0.681 OA
ATOM     32  O2  <0> A   1     -17.865  -4.689  55.156  0.00  0.00    -0.713 OA
ENDBRANCH  29  30
ENDBRANCH  26  29
ENDBRANCH  25  26
ENDBRANCH  22  25
ENDBRANCH  21  22
ENDBRANCH   2  20
TORSDOF 11
ENDMDL
MODEL 8
REMARK VINA RESULT:      -7.0     15.680     19.206
REMARK  Name = CHEMBL358623
REMARK  15 active torsions:
REMARK  status: ('A' for Active; 'I' for Inactive)
REMARK    1  A    between atoms: C1_1  and  C2_2
REMARK    2  A    between atoms: C2_2  and  C3_3
REMARK    3  A    between atoms: C2_2  and  C4_4
REMARK    4  A    between atoms: C5_5  and  C18_20
REMARK    5  A    between atoms: C6_6  and  C12_13
REMARK    6  A    between atoms: C7_7  and  C8_9
REMARK    7  A    between atoms: C9_10  and  C10_11
REMARK    8  A    between atoms: C9_10  and  C11_12
REMARK    9  A    between atoms: C19_21  and  C20_22
REMARK   10  A    between atoms: C20_22  and  C21_24
REMARK   11  A    between atoms: C20_22  and  O4_32
REMARK   12  A    between atoms: C21_24  and  C22_25
REMARK   13  A    between atoms: C22_25  and  C23_27
REMARK   14  A    between atoms: C22_25  and  O3_31
REMARK   15  A    between atoms: C23_27  and  C24_28
REMARK                            x       y       z     vdW  Elec       q    Type
REMARK                         _______ _______ _______ _____ _____    ______ ____
ROOT
ATOM      1  C4  <0> A   1     -26.720  -2.838  50.510  0.00  0.00    -0.153 C 
ATOM      2  C5  <0> A   1     -25.516  -3.132  51.085  0.00  0.00    -0.071 C 
ATOM      3  C6  <0> A   1     -24.529  -2.085  51.156  0.00  0.00    -0.072 C 
ATOM      4  C7  <0> A   1     -24.878  -0.847  50.632  0.00  0.00    -0.108 C 
ATOM      5  S1  <0> A   1     -26.539  -1.127  50.044  0.00  0.00    +0.076 S 
ENDROOT
BRANCH   3   6
ATOM      6  C12 <0> A   1     -23.198  -2.318  51.762  0.00  0.00    -0.030 A 
ATOM      7  C13 <0> A   1     -22.988  -2.051  53.115  0.00  0.00    +0.064 A 
ATOM      8  C14 <0> A   1     -21.747  -2.270  53.674  0.00  0.00    -0.013 A 
ATOM      9  C15 <0> A   1     -20.709  -2.754  52.895  0.00  0.00    +0.099 A 
ATOM     10  C16 <0> A   1     -20.911  -3.021  51.551  0.00  0.00    -0.016 A 
ATOM     11  C17 <0> A   1     -22.151  -2.811  50.982  0.00  0.00    +0.049 A 
ATOM     12  F1  <0> A   1     -19.494  -2.967  53.448  0.00  0.00    -0.140 F 
ENDBRANCH   3   6
BRANCH   4  13
ATOM     13  C8  <0> A   1     -24.080   0.383  50.570  0.00  0.00    +0.043 C 
ATOM     14  C9  <0> A   1     -24.150   1.273  51.558  0.00  0.00    -0.109 C 
ATOM     15  C10 <0> A   1     -25.050   1.017  52.739  0.00  0.00    +0.096 C 
ATOM     16  C11 <0> A   1     -23.330   2.535  51.495  0.00  0.00    +0.090 C 
ENDBRANCH   4  13
BRANCH   1  18
ATOM     17  C1  <0> A   1     -29.072  -3.251  51.181  0.00  0.00    +0.032 C 
ATOM     18  C2  <0> A   1     -27.910  -3.741  50.313  0.00  0.00    +0.081 C 
ATOM     19  C3  <0> A   1     -28.328  -3.720  48.841  0.00  0.00    +0.033 C 
ENDBRANCH   1  18
BRANCH   2  20
ATOM     20  C18 <0> A   1     -25.235  -4.482  51.616  0.00  0.00    +0.014 C 
ATOM     21  C19 <0> A   1     -24.698  -5.405  50.829  0.00  0.00    -0.046 C 
BRANCH  21  22
ATOM     22  C20 <0> A   1     -24.411  -6.782  51.371  0.00  0.00    +0.249 C 
BRANCH  22  23
ATOM     23  O4  <0> A   1     -25.433  -7.151  52.300  0.00  0.00    -0.538 OA
ATOM     24  H28 <0> A   1     -26.134  -6.492  52.394  0.00  0.00    +0.364 HD
ENDBRANCH  22  23
BRANCH  22  25
ATOM     25  C21 <0> A   1     -24.381  -7.788  50.218  0.00  0.00    -0.042 C 
BRANCH  25  26
ATOM     26  C22 <0> A   1     -23.501  -8.978  50.603  0.00  0.00    +0.230 C 
BRANCH  26  27
ATOM     27  O3  <0> A   1     -23.625  -9.228  52.004  0.00  0.00    -0.528 OA
ATOM     28  H27 <0> A   1     -24.038 -10.077  52.217  0.00  0.00    +0.350 HD
ENDBRANCH  26  27
BRANCH  26  29
ATOM     29  C23 <0> A   1     -23.949 -10.217  49.823  0.00  0.00    -0.102 C 
BRANCH  29  30
ATOM     30  C24 <0> A   1     -24.796 -11.091  50.711  0.00  0.00    +0.491 C 
ATOM     31  O1  <0> A   1     -24.282 -11.999  51.342  0.00  0.00    -0.681 OA
ATOM     32  O2  <0> A   1     -25.995 -10.890  50.799  0.00  0.00    -0.713 OA
ENDBRANCH  29  30
ENDBRANCH  26  29
ENDBRANCH  25  26
ENDBRANCH  22  25
ENDBRANCH  21  22
ENDBRANCH   2  20
TORSDOF 11
ENDMDL
MODEL 9
REMARK VINA RESULT:      -7.0      1.593      2.134
REMARK  Name = CHEMBL358623
REMARK  15 active torsions:
REMARK  status: ('A' for Active; 'I' for Inactive)
REMARK    1  A    between atoms: C1_1  and  C2_2
REMARK    2  A    between atoms: C2_2  and  C3_3
REMARK    3  A    between atoms: C2_2  and  C4_4
REMARK    4  A    between atoms: C5_5  and  C18_20
REMARK    5  A    between atoms: C6_6  and  C12_13
REMARK    6  A    between atoms: C7_7  and  C8_9
REMARK    7  A    between atoms: C9_10  and  C10_11
REMARK    8  A    between atoms: C9_10  and  C11_12
REMARK    9  A    between atoms: C19_21  and  C20_22
REMARK   10  A    between atoms: C20_22  and  C21_24
REMARK   11  A    between atoms: C20_22  and  O4_32
REMARK   12  A    between atoms: C21_24  and  C22_25
REMARK   13  A    between atoms: C22_25  and  C23_27
REMARK   14  A    between atoms: C22_25  and  O3_31
REMARK   15  A    between atoms: C23_27  and  C24_28
REMARK                            x       y       z     vdW  Elec       q    Type
REMARK                         _______ _______ _______ _____ _____    ______ ____
ROOT
ATOM      1  C4  <0> A   1     -14.927   7.183  46.521  0.00  0.00    -0.153 C 
ATOM      2  C5  <0> A   1     -14.358   8.425  46.487  0.00  0.00    -0.071 C 
ATOM      3  C6  <0> A   1     -14.298   9.174  47.717  0.00  0.00    -0.072 C 
ATOM      4  C7  <0> A   1     -14.825   8.571  48.852  0.00  0.00    -0.108 C 
ATOM      5  S1  <0> A   1     -15.401   7.002  48.230  0.00  0.00    +0.076 S 
ENDROOT
BRANCH   3   6
ATOM      6  C12 <0> A   1     -13.699  10.526  47.769  0.00  0.00    -0.030 A 
ATOM      7  C13 <0> A   1     -14.504  11.655  47.622  0.00  0.00    +0.064 A 
ATOM      8  C14 <0> A   1     -13.942  12.913  47.671  0.00  0.00    -0.013 A 
ATOM      9  C15 <0> A   1     -12.577  13.057  47.866  0.00  0.00    +0.099 A 
ATOM     10  C16 <0> A   1     -11.772  11.939  48.012  0.00  0.00    -0.016 A 
ATOM     11  C17 <0> A   1     -12.325  10.676  47.970  0.00  0.00    +0.049 A 
ATOM     12  F1  <0> A   1     -12.030  14.291  47.913  0.00  0.00    -0.140 F 
ENDBRANCH   3   6
BRANCH   4  13
ATOM     13  C8  <0> A   1     -14.897   9.097  50.221  0.00  0.00    +0.043 C 
ATOM     14  C9  <0> A   1     -15.967   9.784  50.616  0.00  0.00    -0.109 C 
ATOM     15  C10 <0> A   1     -17.104  10.025  49.656  0.00  0.00    +0.096 C 
ATOM     16  C11 <0> A   1     -16.039  10.323  52.021  0.00  0.00    +0.090 C 
ENDBRANCH   4  13
BRANCH   1  18
ATOM     17  C1  <0> A   1     -14.334   4.922  45.691  0.00  0.00    +0.032 C 
ATOM     18  C2  <0> A   1     -15.112   6.205  45.389  0.00  0.00    +0.081 C 
ATOM     19  C3  <0> A   1     -16.599   5.878  45.237  0.00  0.00    +0.033 C 
ENDBRANCH   1  18
BRANCH   2  20
ATOM     20  C18 <0> A   1     -13.822   8.983  45.228  0.00  0.00    +0.014 C 
ATOM     21  C19 <0> A   1     -12.719   8.474  44.694  0.00  0.00    -0.046 C 
BRANCH  21  22
ATOM     22  C20 <0> A   1     -12.174   9.043  43.409  0.00  0.00    +0.249 C 
BRANCH  22  23
ATOM     23  O4  <0> A   1     -11.439   8.033  42.715  0.00  0.00    -0.538 OA
ATOM     24  H28 <0> A   1     -11.113   7.323  43.285  0.00  0.00    +0.364 HD
ENDBRANCH  22  23
BRANCH  22  25
ATOM     25  C21 <0> A   1     -13.332   9.525  42.533  0.00  0.00    -0.042 C 
BRANCH  25  26
ATOM     26  C22 <0> A   1     -12.896  10.763  41.748  0.00  0.00    +0.230 C 
BRANCH  26  27
ATOM     27  O3  <0> A   1     -11.535  10.613  41.340  0.00  0.00    -0.528 OA
ATOM     28  H27 <0> A   1     -11.307  11.108  40.540  0.00  0.00    +0.350 HD
ENDBRANCH  26  27
BRANCH  26  29
ATOM     29  C23 <0> A   1     -13.783  10.922  40.511  0.00  0.00    -0.102 C 
BRANCH  29  30
ATOM     30  C24 <0> A   1     -12.922  10.954  39.275  0.00  0.00    +0.491 C 
ATOM     31  O1  <0> A   1     -12.529  12.020  38.834  0.00  0.00    -0.681 OA
ATOM     32  O2  <0> A   1     -12.619   9.914  38.716  0.00  0.00    -0.713 OA
ENDBRANCH  29  30
ENDBRANCH  26  29
ENDBRANCH  25  26
ENDBRANCH  22  25
ENDBRANCH  21  22
ENDBRANCH   2  20
TORSDOF 11
ENDMDL
MODEL 10
REMARK VINA RESULT:      -7.0     17.272     20.403
REMARK  Name = CHEMBL358623
REMARK  15 active torsions:
REMARK  status: ('A' for Active; 'I' for Inactive)
REMARK    1  A    between atoms: C1_1  and  C2_2
REMARK    2  A    between atoms: C2_2  and  C3_3
REMARK    3  A    between atoms: C2_2  and  C4_4
REMARK    4  A    between atoms: C5_5  and  C18_20
REMARK    5  A    between atoms: C6_6  and  C12_13
REMARK    6  A    between atoms: C7_7  and  C8_9
REMARK    7  A    between atoms: C9_10  and  C10_11
REMARK    8  A    between atoms: C9_10  and  C11_12
REMARK    9  A    between atoms: C19_21  and  C20_22
REMARK   10  A    between atoms: C20_22  and  C21_24
REMARK   11  A    between atoms: C20_22  and  O4_32
REMARK   12  A    between atoms: C21_24  and  C22_25
REMARK   13  A    between atoms: C22_25  and  C23_27
REMARK   14  A    between atoms: C22_25  and  O3_31
REMARK   15  A    between atoms: C23_27  and  C24_28
REMARK                            x       y       z     vdW  Elec       q    Type
REMARK                         _______ _______ _______ _____ _____    ______ ____
ROOT
ATOM      1  C4  <0> A   1     -24.455  -2.382  52.207  0.00  0.00    -0.153 C 
ATOM      2  C5  <0> A   1     -25.607  -3.094  52.030  0.00  0.00    -0.071 C 
ATOM      3  C6  <0> A   1     -26.858  -2.380  52.095  0.00  0.00    -0.072 C 
ATOM      4  C7  <0> A   1     -26.795  -1.013  52.334  0.00  0.00    -0.108 C 
ATOM      5  S1  <0> A   1     -25.042  -0.720  52.473  0.00  0.00    +0.076 S 
ENDROOT
BRANCH   3   6
ATOM      6  C12 <0> A   1     -28.153  -3.074  51.916  0.00  0.00    -0.030 A 
ATOM      7  C13 <0> A   1     -28.678  -3.256  50.637  0.00  0.00    +0.064 A 
ATOM      8  C14 <0> A   1     -29.885  -3.903  50.475  0.00  0.00    -0.013 A 
ATOM      9  C15 <0> A   1     -30.577  -4.372  51.580  0.00  0.00    +0.099 A 
ATOM     10  C16 <0> A   1     -30.060  -4.194  52.853  0.00  0.00    -0.016 A 
ATOM     11  C17 <0> A   1     -28.850  -3.553  53.026  0.00  0.00    +0.049 A 
ATOM     12  F1  <0> A   1     -31.759  -5.005  51.416  0.00  0.00    -0.140 F 
ENDBRANCH   3   6
BRANCH   4  13
ATOM     13  C8  <0> A   1     -27.898  -0.050  52.449  0.00  0.00    +0.043 C 
ATOM     14  C9  <0> A   1     -28.200   0.743  51.423  0.00  0.00    -0.109 C 
ATOM     15  C10 <0> A   1     -27.408   0.652  50.143  0.00  0.00    +0.096 C 
ATOM     16  C11 <0> A   1     -29.331   1.731  51.541  0.00  0.00    +0.090 C 
ENDBRANCH   4  13
BRANCH   1  18
ATOM     17  C1  <0> A   1     -22.409  -2.588  50.820  0.00  0.00    +0.032 C 
ATOM     18  C2  <0> A   1     -23.032  -2.881  52.186  0.00  0.00    +0.081 C 
ATOM     19  C3  <0> A   1     -22.228  -2.171  53.277  0.00  0.00    +0.033 C 
ENDBRANCH   1  18
BRANCH   2  20
ATOM     20  C18 <0> A   1     -25.573  -4.550  51.781  0.00  0.00    +0.014 C 
ATOM     21  C19 <0> A   1     -25.488  -5.008  50.539  0.00  0.00    -0.046 C 
BRANCH  21  22
ATOM     22  C20 <0> A   1     -25.452  -6.493  50.285  0.00  0.00    +0.249 C 
BRANCH  22  23
ATOM     23  O4  <0> A   1     -25.295  -6.734  48.885  0.00  0.00    -0.538 OA
ATOM     24  H28 <0> A   1     -24.730  -6.089  48.437  0.00  0.00    +0.364 HD
ENDBRANCH  22  23
BRANCH  22  25
ATOM     25  C21 <0> A   1     -24.276  -7.111  51.045  0.00  0.00    -0.042 C 
BRANCH  25  26
ATOM     26  C22 <0> A   1     -24.478  -8.624  51.153  0.00  0.00    +0.230 C 
BRANCH  26  27
ATOM     27  O3  <0> A   1     -25.788  -8.963  50.694  0.00  0.00    -0.528 OA
ATOM     28  H27 <0> A   1     -25.822  -9.227  49.764  0.00  0.00    +0.350 HD
ENDBRANCH  26  27
BRANCH  26  29
ATOM     29  C23 <0> A   1     -23.435  -9.340  50.292  0.00  0.00    -0.102 C 
BRANCH  29  30
ATOM     30  C24 <0> A   1     -24.125 -10.065  49.165  0.00  0.00    +0.491 C 
ATOM     31  O1  <0> A   1     -24.427  -9.463  48.148  0.00  0.00    -0.681 OA
ATOM     32  O2  <0> A   1     -24.381 -11.252  49.270  0.00  0.00    -0.713 OA
ENDBRANCH  29  30
ENDBRANCH  26  29
ENDBRANCH  25  26
ENDBRANCH  22  25
ENDBRANCH  21  22
ENDBRANCH   2  20
TORSDOF 11
ENDMDL
