REMARK  Name = CHEMBL121052
REMARK  12 active torsions:
REMARK  status: ('A' for Active; 'I' for Inactive)
REMARK    1  A    between atoms: C3_3  and  C5_6
REMARK    2  A    between atoms: C6_7  and  C16_28
REMARK    3  A    between atoms: C7_9  and  C15_24
REMARK    4  A    between atoms: N2_10  and  C8_11
REMARK    5  A    between atoms: C8_11  and  C9_12
REMARK    6  A    between atoms: C9_12  and  C10_13
REMARK    7  A    between atoms: C10_13  and  C11_15
REMARK    8  A    between atoms: C10_13  and  O4_23
REMARK    9  A    between atoms: C11_15  and  C12_16
REMARK   10  A    between atoms: C12_16  and  C13_18
REMARK   11  A    between atoms: C12_16  and  O3_22
REMARK   12  A    between atoms: C13_18  and  C14_19
REMARK                            x       y       z     vdW  Elec       q    Type
REMARK                         _______ _______ _______ _____ _____    ______ ____
ROOT
ATOM      1  C5  <0> A   1       3.740   1.807  -0.024  0.00  0.00    +0.115 C 
ATOM      2  C6  <0> A   1       4.257   2.830  -0.803  0.00  0.00    +0.073 C 
ATOM      3  N1  <0> A   1       5.563   2.950  -0.499  0.00  0.00    -0.413 NA
ATOM      4  C7  <0> A   1       5.883   2.072   0.410  0.00  0.00    +0.119 C 
ATOM      5  N2  <0> A   1       4.787   1.343   0.742  0.00  0.00    -0.413 N 
ENDROOT
BRANCH   2   6
ATOM      6  C16 <0> A   1       3.509   3.643  -1.790  0.00  0.00    -0.015 A 
ATOM      7  C17 <0> A   1       2.486   3.065  -2.541  0.00  0.00    +0.066 A 
ATOM      8  C18 <0> A   1       1.793   3.827  -3.459  0.00  0.00    -0.013 A 
ATOM      9  C19 <0> A   1       2.111   5.164  -3.635  0.00  0.00    +0.103 A 
ATOM     10  C20 <0> A   1       3.127   5.743  -2.891  0.00  0.00    -0.015 A 
ATOM     11  C21 <0> A   1       3.822   4.992  -1.966  0.00  0.00    +0.080 A 
ATOM     12  F4  <0> A   1       1.429   5.906  -4.534  0.00  0.00    -0.139 F 
ENDBRANCH   2   6
BRANCH   1  15
ATOM     13  C1  <0> A   1      -0.016   1.353   0.009  0.00  0.00    -0.020 C 
ATOM     14  C2  <0> A   1       1.175   2.043   0.002  0.00  0.00    +0.032 C 
ATOM     15  C3  <0> A   1       2.353   1.320  -0.013  0.00  0.00    -0.117 C 
ATOM     16  S1  <0> A   1       1.751  -0.361  -0.017  0.00  0.00    +0.081 S 
ATOM     17  C4  <0> A   1       0.002  -0.004   0.002  0.00  0.00    +0.032 C 
ENDBRANCH   1  15
BRANCH   4  18
ATOM     18  C15 <0> A   1       7.257   1.898   1.005  0.00  0.00    +0.565 C 
ATOM     19  F1  <0> A   1       8.042   3.015   0.701  0.00  0.00    -0.148 F 
ATOM     20  F2  <0> A   1       7.150   1.766   2.393  0.00  0.00    -0.166 F 
ATOM     21  F3  <0> A   1       7.853   0.749   0.472  0.00  0.00    -0.161 F 
ENDBRANCH   4  18
BRANCH   5  22
ATOM     22  C8  <0> A   1       4.728   0.262   1.729  0.00  0.00    +0.309 C 
BRANCH  22  23
ATOM     23  C9  <0> A   1       5.036  -1.071   1.044  0.00  0.00    -0.012 C 
BRANCH  23  24
ATOM     24  C10 <0> A   1       4.975  -2.200   2.075  0.00  0.00    +0.223 C 
BRANCH  24  25
ATOM     25  O4  <0> A   1       3.638  -2.326   2.564  0.00  0.00    -0.537 OA
ATOM     26  H15 <0> A   1       2.986  -2.529   1.880  0.00  0.00    +0.365 HD
ENDBRANCH  24  25
BRANCH  24  27
ATOM     27  C11 <0> A   1       5.404  -3.514   1.419  0.00  0.00    -0.045 C 
BRANCH  27  28
ATOM     28  C12 <0> A   1       5.463  -4.617   2.477  0.00  0.00    +0.233 C 
BRANCH  28  29
ATOM     29  O3  <0> A   1       4.149  -4.859   2.986  0.00  0.00    -0.527 OA
ATOM     30  H14 <0> A   1       3.514  -5.142   2.314  0.00  0.00    +0.350 HD
ENDBRANCH  28  29
BRANCH  28  31
ATOM     31  C13 <0> A   1       6.011  -5.899   1.847  0.00  0.00    -0.101 C 
BRANCH  31  32
ATOM     32  C14 <0> A   1       6.184  -6.949   2.915  0.00  0.00    +0.491 C 
ATOM     33  O1  <0> A   1       5.896  -6.695   4.072  0.00  0.00    -0.681 OA
ATOM     34  O2  <0> A   1       6.612  -8.052   2.621  0.00  0.00    -0.712 OA
ENDBRANCH  31  32
ENDBRANCH  28  31
ENDBRANCH  27  28
ENDBRANCH  24  27
ENDBRANCH  23  24
ENDBRANCH  22  23
ENDBRANCH   5  22
TORSDOF 12
