REMARK VINA RESULT:      -7.2     17.088     20.609
REMARK  Name = CHEMBL101512
REMARK  10 active torsions:
REMARK  status: ('A' for Active; 'I' for Inactive)
REMARK    1  A    between atoms: C5_5  and  O1_15
REMARK    2  A    between atoms: C6_6  and  C7_7
REMARK    3  A    between atoms: O1_15  and  C14_16
REMARK    4  A    between atoms: C14_16  and  C15_17
REMARK    5  A    between atoms: C15_17  and  C16_18
REMARK    6  A    between atoms: C15_17  and  O5_26
REMARK    7  A    between atoms: C16_18  and  C17_19
REMARK    8  A    between atoms: C17_19  and  C18_21
REMARK    9  A    between atoms: C17_19  and  O4_25
REMARK   10  A    between atoms: C18_21  and  C19_22
REMARK                            x       y       z     vdW  Elec       q    Type
REMARK                         _______ _______ _______ _____ _____    ______ ____
ROOT
ATOM      1  C1  <0> A   1     -26.968  -3.848  52.137  0.00  0.00    +0.083 A 
ATOM      2  C2  <0> A   1     -28.220  -4.431  52.102  0.00  0.00    -0.036 A 
ATOM      3  C3  <0> A   1     -28.459  -5.522  51.283  0.00  0.00    +0.071 A 
ATOM      4  C4  <0> A   1     -27.446  -6.037  50.493  0.00  0.00    -0.052 A 
ATOM      5  C5  <0> A   1     -26.186  -5.462  50.519  0.00  0.00    +0.141 A 
ATOM      6  C6  <0> A   1     -25.940  -4.359  51.344  0.00  0.00    -0.068 A 
ATOM      7 Cl1  <0> A   1     -27.755  -7.405  49.471  0.00  0.00    -0.034 Cl
ATOM      8 Cl2  <0> A   1     -29.498  -3.794  53.088  0.00  0.00    -0.050 Cl
ENDROOT
BRANCH   6   9
ATOM      9  C7  <0> A   1     -24.599  -3.739  51.377  0.00  0.00    +0.082 C 
ATOM     10  C8  <0> A   1     -24.392  -2.570  50.779  0.00  0.00    -0.127 C 
ATOM     11  C9  <0> A   1     -25.544  -1.789  50.186  0.00  0.00    +0.074 C 
ATOM     12  C10 <0> A   1     -25.487  -0.354  50.723  0.00  0.00    +0.018 C 
ATOM     13  C11 <0> A   1     -24.107   0.241  50.437  0.00  0.00    +0.006 C 
ATOM     14  C12 <0> A   1     -23.036  -0.546  51.194  0.00  0.00    +0.018 C 
ATOM     15  C13 <0> A   1     -23.002  -1.984  50.680  0.00  0.00    +0.073 C 
ATOM     16  F1  <0> A   1     -23.583  -4.359  52.016  0.00  0.00    -0.131 F 
ENDBRANCH   6   9
BRANCH   5  17
ATOM     17  O1  <0> A   1     -25.190  -5.968  49.744  0.00  0.00    -0.307 OA
BRANCH  17  18
ATOM     18  C14 <0> A   1     -24.361  -6.974  50.327  0.00  0.00    +0.160 C 
BRANCH  18  19
ATOM     19  C15 <0> A   1     -24.195  -8.134  49.342  0.00  0.00    +0.229 C 
BRANCH  19  20
ATOM     20  O5  <0> A   1     -23.241  -7.775  48.341  0.00  0.00    -0.530 OA
ATOM     21  H22 <0> A   1     -23.074  -6.824  48.278  0.00  0.00    +0.364 HD
ENDBRANCH  19  20
BRANCH  19  22
ATOM     22  C16 <0> A   1     -23.706  -9.375  50.092  0.00  0.00    -0.040 C 
BRANCH  22  23
ATOM     23  C17 <0> A   1     -24.892 -10.298  50.377  0.00  0.00    +0.235 C 
BRANCH  23  24
ATOM     24  O4  <0> A   1     -25.686 -10.432  49.197  0.00  0.00    -0.527 OA
ATOM     25  H21 <0> A   1     -26.296  -9.696  49.048  0.00  0.00    +0.351 HD
ENDBRANCH  23  24
BRANCH  23  26
ATOM     26  C18 <0> A   1     -24.377 -11.673  50.803  0.00  0.00    -0.100 C 
BRANCH  26  27
ATOM     27  C19 <0> A   1     -24.394 -12.606  49.620  0.00  0.00    +0.491 C 
ATOM     28  O2  <0> A   1     -25.315 -13.393  49.478  0.00  0.00    -0.680 OA
ATOM     29  O3  <0> A   1     -23.488 -12.573  48.804  0.00  0.00    -0.713 OA
ENDBRANCH  26  27
ENDBRANCH  23  26
ENDBRANCH  22  23
ENDBRANCH  19  22
ENDBRANCH  18  19
ENDBRANCH  17  18
ENDBRANCH   5  17
TORSDOF 10
