REMARK VINA RESULT:      -7.1     11.893     15.589
REMARK  Name = CHEMBL330777
REMARK  13 active torsions:
REMARK  status: ('A' for Active; 'I' for Inactive)
REMARK    1  A    between atoms: C1_1  and  C2_2
REMARK    2  A    between atoms: C2_2  and  O1_3
REMARK    3  A    between atoms: O1_3  and  C3_4
REMARK    4  A    between atoms: C3_4  and  C4_6
REMARK    5  A    between atoms: C5_7  and  C24_32
REMARK    6  A    between atoms: C6_8  and  C18_26
REMARK    7  A    between atoms: N1_9  and  C11_14
REMARK    8  A    between atoms: C7_10  and  C8_11
REMARK    9  A    between atoms: C8_11  and  C9_12
REMARK   10  A    between atoms: C8_11  and  C10_13
REMARK   11  A    between atoms: C11_14  and  C12_15
REMARK   12  A    between atoms: C12_15  and  C13_16
REMARK   13  A    between atoms: C15_19  and  O5_25
REMARK                            x       y       z     vdW  Elec       q    Type
REMARK                         _______ _______ _______ _____ _____    ______ ____
ROOT
ATOM      1  C4  <0> A   1      -0.530  10.548  53.346  0.00  0.00    -0.188 C 
ATOM      2  C5  <0> A   1      -1.840  10.763  53.983  0.00  0.00    -0.066 C 
ATOM      3  C6  <0> A   1      -2.778  10.282  53.090  0.00  0.00    +0.072 C 
ATOM      4  N1  <0> A   1      -2.119   9.806  51.987  0.00  0.00    -0.419 N 
ATOM      5  C7  <0> A   1      -0.788   9.964  52.125  0.00  0.00    +0.099 C 
ENDROOT
BRANCH   3   6
ATOM      6  C18 <0> A   1      -4.241  10.281  53.290  0.00  0.00    -0.022 A 
ATOM      7  C19 <0> A   1      -4.994  11.410  52.962  0.00  0.00    +0.036 A 
ATOM      8  C20 <0> A   1      -6.360  11.402  53.151  0.00  0.00    +0.008 A 
ATOM      9  C21 <0> A   1      -6.985  10.279  53.664  0.00  0.00    +0.012 A 
ATOM     10  C22 <0> A   1      -6.244   9.157  53.992  0.00  0.00    +0.010 A 
ATOM     11  C23 <0> A   1      -4.878   9.149  53.803  0.00  0.00    +0.015 A 
ENDBRANCH   3   6
BRANCH   2  12
ATOM     12  C24 <0> A   1      -2.098  11.369  55.308  0.00  0.00    -0.015 A 
ATOM     13  C25 <0> A   1      -2.350  10.555  56.414  0.00  0.00    +0.023 A 
ATOM     14  C26 <0> A   1      -2.590  11.127  57.647  0.00  0.00    +0.002 A 
ATOM     15  C27 <0> A   1      -2.582  12.503  57.788  0.00  0.00    +0.003 A 
ATOM     16  C28 <0> A   1      -2.334  13.315  56.696  0.00  0.00    +0.002 A 
ATOM     17  C29 <0> A   1      -2.086  12.756  55.459  0.00  0.00    +0.018 A 
ENDBRANCH   2  12
BRANCH   5  18
ATOM     18  C8  <0> A   1       0.250   9.562  51.110  0.00  0.00    +0.046 C 
ATOM     19  C9  <0> A   1       1.172  10.750  50.827  0.00  0.00    +0.042 C 
ATOM     20  C10 <0> A   1       1.075   8.397  51.658  0.00  0.00    +0.043 C 
ENDBRANCH   5  18
BRANCH   1  21
ATOM     21  C3  <0> A   1       0.787  10.893  53.898  0.00  0.00    +0.555 C 
ATOM     22  O2  <0> A   1       1.177  12.044  53.867  0.00  0.00    -0.498 OA
BRANCH  21  23
ATOM     23  O1  <0> A   1       1.564   9.933  54.438  0.00  0.00    -0.345 OA
BRANCH  23  25
ATOM     24  C1  <0> A   1       1.045   9.506  56.760  0.00  0.00    +0.061 C 
ATOM     25  C2  <0> A   1       0.929   9.003  55.319  0.00  0.00    +0.192 C 
ENDBRANCH  23  25
ENDBRANCH  21  23
ENDBRANCH   1  21
BRANCH   4  26
ATOM     26  C11 <0> A   1      -2.771   9.213  50.817  0.00  0.00    +0.298 C 
BRANCH  26  27
ATOM     27  C12 <0> A   1      -2.977   7.715  51.053  0.00  0.00    +0.053 C 
BRANCH  27  28
ATOM     28  C13 <0> A   1      -3.184   7.010  49.711  0.00  0.00    +0.204 C 
ATOM     29  C14 <0> A   1      -1.920   6.232  49.342  0.00  0.00    +0.046 C 
ATOM     30  C15 <0> A   1      -2.116   5.561  47.979  0.00  0.00    +0.187 C 
ATOM     31  C16 <0> A   1      -2.400   6.644  46.929  0.00  0.00    +0.024 C 
ATOM     32  C17 <0> A   1      -3.532   7.511  47.436  0.00  0.00    +0.497 C 
ATOM     33  O3  <0> A   1      -4.478   7.771  46.731  0.00  0.00    -0.450 OA
ATOM     34  O4  <0> A   1      -3.456   7.984  48.697  0.00  0.00    -0.368 OA
BRANCH  30  35
ATOM     35  O5  <0> A   1      -3.220   4.656  48.044  0.00  0.00    -0.564 OA
ATOM     36  H23 <0> A   1      -3.609   4.573  48.926  0.00  0.00    +0.388 HD
ENDBRANCH  30  35
ENDBRANCH  27  28
ENDBRANCH  26  27
ENDBRANCH   4  26
TORSDOF 10
