REMARK VINA RESULT:      -7.4      2.743      8.463
REMARK  Name = CHEMBL398240
REMARK  17 active torsions:
REMARK  status: ('A' for Active; 'I' for Inactive)
REMARK    1  A    between atoms: C1_1  and  C2_2
REMARK    2  A    between atoms: C2_2  and  C3_3
REMARK    3  A    between atoms: C2_2  and  N1_4
REMARK    4  A    between atoms: C4_5  and  C27_32
REMARK    5  A    between atoms: C5_6  and  C21_25
REMARK    6  A    between atoms: C6_7  and  C15_19
REMARK    7  A    between atoms: C7_8  and  C8_9
REMARK    8  A    between atoms: N2_11  and  C9_12
REMARK    9  A    between atoms: C9_12  and  C10_13
REMARK   10  A    between atoms: C27_32  and  C28_33
REMARK   11  A    between atoms: C28_33  and  C29_34
REMARK   12  A    between atoms: C29_34  and  C30_36
REMARK   13  A    between atoms: C29_34  and  O5_44
REMARK   14  A    between atoms: C30_36  and  C31_37
REMARK   15  A    between atoms: C31_37  and  C32_39
REMARK   16  A    between atoms: C31_37  and  O4_43
REMARK   17  A    between atoms: C32_39  and  C33_40
REMARK                            x       y       z     vdW  Elec       q    Type
REMARK                         _______ _______ _______ _____ _____    ______ ____
ROOT
ATOM      1  N1  <0> A   1     -14.712   6.525  45.556  0.00  0.00    -0.402 N 
ATOM      2  C4  <0> A   1     -15.296   6.828  46.740  0.00  0.00    +0.073 C 
ATOM      3  C5  <0> A   1     -14.946   8.096  47.097  0.00  0.00    -0.122 C 
ATOM      4  C6  <0> A   1     -14.099   8.606  46.080  0.00  0.00    -0.058 C 
ATOM      5  C7  <0> A   1     -13.965   7.600  45.131  0.00  0.00    -0.030 C 
ENDROOT
BRANCH   3   6
ATOM      6  C21 <0> A   1     -15.372   8.811  48.325  0.00  0.00    -0.008 A 
ATOM      7  C22 <0> A   1     -14.778   8.512  49.550  0.00  0.00    +0.050 A 
ATOM      8  C23 <0> A   1     -15.178   9.179  50.689  0.00  0.00    -0.016 A 
ATOM      9  C24 <0> A   1     -16.169  10.145  50.618  0.00  0.00    +0.095 A 
ATOM     10  C25 <0> A   1     -16.763  10.445  49.403  0.00  0.00    -0.017 A 
ATOM     11  C26 <0> A   1     -16.364   9.787  48.257  0.00  0.00    +0.055 A 
ATOM     12  F1  <0> A   1     -16.557  10.795  51.737  0.00  0.00    -0.142 F 
ENDBRANCH   3   6
BRANCH   4  13
ATOM     13  C15 <0> A   1     -13.474   9.948  46.040  0.00  0.00    -0.012 A 
ATOM     14  C16 <0> A   1     -12.326  10.209  46.789  0.00  0.00    +0.024 A 
ATOM     15  C17 <0> A   1     -11.750  11.461  46.749  0.00  0.00    +0.001 A 
ATOM     16  C18 <0> A   1     -12.306  12.458  45.967  0.00  0.00    -0.003 A 
ATOM     17  C19 <0> A   1     -13.445  12.206  45.222  0.00  0.00    +0.003 A 
ATOM     18  C20 <0> A   1     -14.028  10.955  45.250  0.00  0.00    +0.013 A 
ENDBRANCH   4  13
BRANCH   5  19
ATOM     19  C8  <0> A   1     -13.175   7.672  43.900  0.00  0.00    +0.606 C 
ATOM     20  O1  <0> A   1     -11.959   7.705  43.960  0.00  0.00    -0.519 OA
ATOM     21  N2  <0> A   1     -13.792   7.702  42.704  0.00  0.00    -0.713 N 
ATOM     22  H10 <0> A   1     -14.760   7.742  42.658  0.00  0.00    +0.404 HD
BRANCH  21  23
ATOM     23  C9  <0> A   1     -13.002   7.673  41.470  0.00  0.00    +0.348 C 
BRANCH  23  24
ATOM     24  C10 <0> A   1     -13.075   9.019  40.795  0.00  0.00    +0.105 A 
ATOM     25  C11 <0> A   1     -13.579  10.104  41.487  0.00  0.00    -0.016 A 
ATOM     26  C12 <0> A   1     -13.641  11.336  40.857  0.00  0.00    +0.063 A 
ATOM     27  C13 <0> A   1     -13.192  11.433  39.548  0.00  0.00    -0.027 A 
ATOM     28  C14 <0> A   1     -12.701  10.305  38.921  0.00  0.00    +0.260 A 
ATOM     29  N3  <0> A   1     -12.651   9.148  39.553  0.00  0.00    -0.466 NA
ENDBRANCH  23  24
ENDBRANCH  21  23
ENDBRANCH   5  19
BRANCH   1  31
ATOM     30  C1  <0> A   1     -14.506   4.099  45.790  0.00  0.00    +0.046 C 
ATOM     31  C2  <0> A   1     -14.848   5.251  44.844  0.00  0.00    +0.229 C 
ATOM     32  C3  <0> A   1     -16.288   5.095  44.349  0.00  0.00    +0.042 C 
ENDBRANCH   1  31
BRANCH   2  33
ATOM     33  C27 <0> A   1     -16.190   5.911  47.535  0.00  0.00    +0.117 C 
BRANCH  33  34
ATOM     34  C28 <0> A   1     -17.637   6.397  47.436  0.00  0.00    -0.007 C 
BRANCH  34  35
ATOM     35  C29 <0> A   1     -18.423   5.908  48.653  0.00  0.00    +0.212 C 
BRANCH  35  36
ATOM     36  O5  <0> A   1     -17.914   4.640  49.072  0.00  0.00    -0.541 OA
ATOM     37  H35 <0> A   1     -17.091   4.695  49.576  0.00  0.00    +0.362 HD
ENDBRANCH  35  36
BRANCH  35  38
ATOM     38  C30 <0> A   1     -18.277   6.918  49.793  0.00  0.00    -0.051 C 
BRANCH  38  39
ATOM     39  C31 <0> A   1     -19.444   7.909  49.750  0.00  0.00    +0.230 C 
BRANCH  39  40
ATOM     40  O4  <0> A   1     -20.537   7.326  49.037  0.00  0.00    -0.528 OA
ATOM     41  H34 <0> A   1     -20.276   6.853  48.235  0.00  0.00    +0.349 HD
ENDBRANCH  39  40
BRANCH  39  42
ATOM     42  C32 <0> A   1     -19.885   8.240  51.177  0.00  0.00    -0.103 C 
BRANCH  42  43
ATOM     43  C33 <0> A   1     -21.387   8.172  51.266  0.00  0.00    +0.490 C 
ATOM     44  O2  <0> A   1     -21.928   7.166  51.694  0.00  0.00    -0.681 OA
ATOM     45  O3  <0> A   1     -22.062   9.123  50.910  0.00  0.00    -0.713 OA
ENDBRANCH  42  43
ENDBRANCH  39  42
ENDBRANCH  38  39
ENDBRANCH  35  38
ENDBRANCH  34  35
ENDBRANCH  33  34
ENDBRANCH   2  33
TORSDOF 15
