REMARK VINA RESULT:      -8.2     34.976     36.985
REMARK  Name = CHEMBL298174
REMARK  6 active torsions:
REMARK  status: ('A' for Active; 'I' for Inactive)
REMARK    1  A    between atoms: C4_4  and  C7_7
REMARK    2  A    between atoms: C7_7  and  C8_8
REMARK    3  A    between atoms: C8_8  and  C9_9
REMARK    4  A    between atoms: C14_14  and  C15_15
REMARK    5  A    between atoms: C16_16  and  C17_17
REMARK    6  A    between atoms: C19_19  and  O3_25
REMARK                            x       y       z     vdW  Elec       q    Type
REMARK                         _______ _______ _______ _____ _____    ______ ____
ROOT
ATOM      1  C9  <0> A   1     -30.379  22.415  35.015  0.00  0.00    -0.045 A 
ATOM      2  C10 <0> A   1     -30.292  22.901  36.302  0.00  0.00    +0.041 A 
ATOM      3  C11 <0> A   1     -31.161  22.443  37.279  0.00  0.00    -0.021 A 
ATOM      4  C12 <0> A   1     -32.120  21.494  36.969  0.00  0.00    +0.041 A 
ATOM      5  C13 <0> A   1     -32.216  20.999  35.684  0.00  0.00    -0.018 A 
ATOM      6  C14 <0> A   1     -31.347  21.463  34.695  0.00  0.00    -0.040 A 
ATOM      7 Cl1  <0> A   1     -33.419  19.808  35.298  0.00  0.00    -0.048 Cl
ATOM      8 Cl2  <0> A   1     -31.046  23.061  38.897  0.00  0.00    -0.054 Cl
ENDROOT
BRANCH   6   9
ATOM      9  C15 <0> A   1     -31.448  20.943  33.315  0.00  0.00    +0.039 C 
ATOM     10  C16 <0> A   1     -31.178  19.669  33.065  0.00  0.00    -0.000 C 
BRANCH  10  11
ATOM     11  C17 <0> A   1     -31.281  19.138  31.659  0.00  0.00    +0.243 C 
ATOM     12  C18 <0> A   1     -32.719  19.294  31.158  0.00  0.00    +0.051 C 
ATOM     13  C19 <0> A   1     -32.830  18.717  29.744  0.00  0.00    +0.186 C 
ATOM     14  C20 <0> A   1     -32.440  17.233  29.781  0.00  0.00    +0.023 C 
ATOM     15  C21 <0> A   1     -31.095  17.115  30.466  0.00  0.00    +0.497 C 
ATOM     16  O1  <0> A   1     -30.202  16.467  29.974  0.00  0.00    -0.449 OA
ATOM     17  O2  <0> A   1     -30.924  17.752  31.643  0.00  0.00    -0.369 OA
BRANCH  13  18
ATOM     18  O3  <0> A   1     -31.951  19.423  28.867  0.00  0.00    -0.564 OA
ATOM     19  H20 <0> A   1     -31.836  19.005  28.003  0.00  0.00    +0.387 HD
ENDBRANCH  13  18
ENDBRANCH  10  11
ENDBRANCH   6   9
BRANCH   1  20
ATOM     20  C8  <0> A   1     -29.431  22.915  33.953  0.00  0.00    +0.091 C 
BRANCH  20  21
ATOM     21  C7  <0> A   1     -28.154  23.435  34.616  0.00  0.00    +0.076 C 
BRANCH  21  25
ATOM     22  C1  <0> A   1     -25.212  24.206  31.616  0.00  0.00    -0.003 A 
ATOM     23  C2  <0> A   1     -24.962  24.546  32.933  0.00  0.00    +0.002 A 
ATOM     24  C3  <0> A   1     -25.914  24.297  33.903  0.00  0.00    +0.007 A 
ATOM     25  C4  <0> A   1     -27.116  23.708  33.558  0.00  0.00    -0.083 A 
ATOM     26  C5  <0> A   1     -27.366  23.368  32.241  0.00  0.00    +0.005 A 
ATOM     27  C6  <0> A   1     -26.413  23.617  31.271  0.00  0.00    +0.003 A 
ENDBRANCH  21  25
ENDBRANCH  20  21
ENDBRANCH   1  20
TORSDOF 6
