REMARK VINA RESULT:      -7.5     15.055     18.223
REMARK  Name = CHEMBL398551
REMARK  19 active torsions:
REMARK  status: ('A' for Active; 'I' for Inactive)
REMARK    1  A    between atoms: C1_1  and  C2_2
REMARK    2  A    between atoms: C4_4  and  C6_8
REMARK    3  A    between atoms: N2_6  and  C5_7
REMARK    4  A    between atoms: C6_8  and  N3_9
REMARK    5  A    between atoms: C7_10  and  C8_12
REMARK    6  A    between atoms: C9_13  and  C28_40
REMARK    7  A    between atoms: C10_14  and  C22_33
REMARK    8  A    between atoms: C11_15  and  C15_20
REMARK    9  A    between atoms: N4_16  and  C12_17
REMARK   10  A    between atoms: C12_17  and  C13_18
REMARK   11  A    between atoms: C12_17  and  C14_19
REMARK   12  A    between atoms: C15_20  and  C16_21
REMARK   13  A    between atoms: C16_21  and  C17_22
REMARK   14  A    between atoms: C17_22  and  C18_24
REMARK   15  A    between atoms: C17_22  and  O5_32
REMARK   16  A    between atoms: C18_24  and  C19_25
REMARK   17  A    between atoms: C19_25  and  C20_27
REMARK   18  A    between atoms: C19_25  and  O4_31
REMARK   19  A    between atoms: C20_27  and  C21_28
REMARK                            x       y       z     vdW  Elec       q    Type
REMARK                         _______ _______ _______ _____ _____    ______ ____
ROOT
ATOM      1  C8  <0> A   1     -27.111  -3.425  52.026  0.00  0.00    -0.029 C 
ATOM      2  C9  <0> A   1     -26.950  -4.784  51.783  0.00  0.00    -0.059 C 
ATOM      3  C10 <0> A   1     -25.593  -4.972  51.414  0.00  0.00    -0.123 C 
ATOM      4  C11 <0> A   1     -24.987  -3.751  51.445  0.00  0.00    +0.072 C 
ATOM      5  N4  <0> A   1     -25.897  -2.816  51.807  0.00  0.00    -0.403 N 
ENDROOT
BRANCH   3   6
ATOM      6  C22 <0> A   1     -24.951  -6.261  51.060  0.00  0.00    -0.009 A 
ATOM      7  C23 <0> A   1     -24.434  -7.083  52.061  0.00  0.00    +0.053 A 
ATOM      8  C24 <0> A   1     -23.838  -8.282  51.727  0.00  0.00    -0.013 A 
ATOM      9  C25 <0> A   1     -23.753  -8.670  50.399  0.00  0.00    +0.094 A 
ATOM     10  C26 <0> A   1     -24.266  -7.857  49.401  0.00  0.00    -0.020 A 
ATOM     11  C27 <0> A   1     -24.869  -6.659  49.726  0.00  0.00    +0.054 A 
ATOM     12  F1  <0> A   1     -23.168  -9.844  50.077  0.00  0.00    -0.142 F 
ENDBRANCH   3   6
BRANCH   2  13
ATOM     13  C28 <0> A   1     -27.991  -5.830  51.886  0.00  0.00    -0.009 A 
ATOM     14  C29 <0> A   1     -28.682  -6.245  50.748  0.00  0.00    +0.027 A 
ATOM     15  C30 <0> A   1     -29.652  -7.222  50.851  0.00  0.00    +0.003 A 
ATOM     16  C31 <0> A   1     -29.939  -7.788  52.079  0.00  0.00    -0.003 A 
ATOM     17  C32 <0> A   1     -29.258  -7.381  53.212  0.00  0.00    -0.001 A 
ATOM     18  C33 <0> A   1     -28.282  -6.410  53.121  0.00  0.00    +0.009 A 
ENDBRANCH   2  13
BRANCH   1  20
ATOM     19  N3  <0> A   1     -28.992  -1.943  51.579  0.00  0.00    -0.715 N 
ATOM     20  C7  <0> A   1     -28.350  -2.761  52.437  0.00  0.00    +0.605 C 
ATOM     21  O1  <0> A   1     -28.801  -2.949  53.551  0.00  0.00    -0.517 OA
ATOM     22  H12 <0> A   1     -28.597  -1.738  50.717  0.00  0.00    +0.404 HD
BRANCH  19  23
ATOM     23  C6  <0> A   1     -30.284  -1.362  51.950  0.00  0.00    +0.381 C 
BRANCH  23  27
ATOM     24  C1  <0> A   1     -28.331   3.340  51.811  0.00  0.00    +0.146 C 
ATOM     25  C2  <0> A   1     -29.284   2.186  51.975  0.00  0.00    +0.083 C 
ATOM     26  C3  <0> A   1     -28.994   0.877  51.785  0.00  0.00    -0.107 C 
ATOM     27  C4  <0> A   1     -30.153   0.138  52.041  0.00  0.00    +0.055 C 
ATOM     28  N1  <0> A   1     -31.106   0.972  52.372  0.00  0.00    -0.276 NA
ATOM     29  N2  <0> A   1     -30.580   2.270  52.343  0.00  0.00    -0.368 N 
ATOM     30  C5  <0> A   1     -31.309   3.502  52.654  0.00  0.00    +0.354 C 
ENDBRANCH  23  27
ENDBRANCH  19  23
ENDBRANCH   1  20
BRANCH   5  31
ATOM     31  C12 <0> A   1     -25.630  -1.382  51.947  0.00  0.00    +0.229 C 
ATOM     32  C13 <0> A   1     -24.778  -1.140  53.196  0.00  0.00    +0.042 C 
ATOM     33  C14 <0> A   1     -24.880  -0.879  50.713  0.00  0.00    +0.046 C 
ENDBRANCH   5  31
BRANCH   4  34
ATOM     34  C15 <0> A   1     -23.540  -3.485  51.122  0.00  0.00    +0.118 C 
BRANCH  34  35
ATOM     35  C16 <0> A   1     -22.665  -3.931  52.297  0.00  0.00    -0.009 C 
BRANCH  35  36
ATOM     36  C17 <0> A   1     -21.501  -2.952  52.466  0.00  0.00    +0.212 C 
BRANCH  36  37
ATOM     37  O5  <0> A   1     -21.711  -1.813  51.628  0.00  0.00    -0.542 OA
ATOM     38  H29 <0> A   1     -21.753  -2.022  50.685  0.00  0.00    +0.363 HD
ENDBRANCH  36  37
BRANCH  36  39
ATOM     39  C18 <0> A   1     -21.421  -2.503  53.926  0.00  0.00    -0.051 C 
BRANCH  39  40
ATOM     40  C19 <0> A   1     -20.186  -3.122  54.583  0.00  0.00    +0.230 C 
BRANCH  40  41
ATOM     41  O4  <0> A   1     -20.562  -4.314  55.274  0.00  0.00    -0.528 OA
ATOM     42  H28 <0> A   1     -21.342  -4.214  55.837  0.00  0.00    +0.349 HD
ENDBRANCH  40  41
BRANCH  40  43
ATOM     43  C20 <0> A   1     -19.153  -3.462  53.506  0.00  0.00    -0.103 C 
BRANCH  43  44
ATOM     44  C21 <0> A   1     -18.361  -4.672  53.934  0.00  0.00    +0.490 C 
ATOM     45  O2  <0> A   1     -18.544  -5.745  53.384  0.00  0.00    -0.681 OA
ATOM     46  O3  <0> A   1     -17.540  -4.578  54.829  0.00  0.00    -0.713 OA
ENDBRANCH  43  44
ENDBRANCH  40  43
ENDBRANCH  39  40
ENDBRANCH  36  39
ENDBRANCH  35  36
ENDBRANCH  34  35
ENDBRANCH   4  34
TORSDOF 15
