REMARK VINA RESULT:      -7.7     15.750     18.802
REMARK  Name = CHEMBL66368
REMARK  12 active torsions:
REMARK  status: ('A' for Active; 'I' for Inactive)
REMARK    1  A    between atoms: C1_1  and  C2_2
REMARK    2  A    between atoms: C2_2  and  C3_3
REMARK    3  A    between atoms: C2_2  and  C4_4
REMARK    4  A    between atoms: C5_5  and  C20_25
REMARK    5  A    between atoms: C6_6  and  C14_18
REMARK    6  A    between atoms: C21_26  and  C22_27
REMARK    7  A    between atoms: C22_27  and  C23_28
REMARK    8  A    between atoms: C22_27  and  O4_36
REMARK    9  A    between atoms: C23_28  and  C24_29
REMARK   10  A    between atoms: C24_29  and  C25_31
REMARK   11  A    between atoms: C24_29  and  O3_35
REMARK   12  A    between atoms: C25_31  and  C26_32
REMARK                            x       y       z     vdW  Elec       q    Type
REMARK                         _______ _______ _______ _____ _____    ______ ____
ROOT
ATOM      1  C4  <0> A   1     -24.364  -2.636  52.113  0.00  0.00    +0.131 C 
ATOM      2  C5  <0> A   1     -25.378  -3.589  51.885  0.00  0.00    -0.154 C 
ATOM      3  C6  <0> A   1     -26.587  -2.903  51.860  0.00  0.00    +0.154 C 
ATOM      4  N1  <0> A   1     -26.300  -1.583  52.068  0.00  0.00    -0.294 N 
ATOM      5  N2  <0> A   1     -24.915  -1.458  52.224  0.00  0.00    -0.268 NA
ATOM      6  C7  <0> A   1     -27.223  -0.545  52.118  0.00  0.00    +0.390 C 
ATOM      7  N3  <0> A   1     -28.528  -0.598  51.989  0.00  0.00    -0.522 NA
ATOM      8  C8  <0> A   1     -29.309   0.500  52.061  0.00  0.00    +0.100 A 
ATOM      9  C9  <0> A   1     -30.716   0.580  51.939  0.00  0.00    +0.073 A 
ATOM     10  C10 <0> A   1     -31.360   1.786  52.038  0.00  0.00    +0.030 A 
ATOM     11  C11 <0> A   1     -30.662   2.965  52.258  0.00  0.00    +0.044 A 
ATOM     12  C12 <0> A   1     -29.285   2.924  52.382  0.00  0.00    +0.074 A 
ATOM     13  C13 <0> A   1     -28.631   1.721  52.285  0.00  0.00    -0.157 A 
ATOM     14  S1  <0> A   1     -26.936   1.199  52.383  0.00  0.00    +0.069 S 
ENDROOT
BRANCH   3  15
ATOM     15  C14 <0> A   1     -27.925  -3.489  51.651  0.00  0.00    -0.061 A 
ATOM     16  C15 <0> A   1     -28.690  -3.899  52.746  0.00  0.00    +0.095 A 
ATOM     17  C16 <0> A   1     -29.940  -4.446  52.545  0.00  0.00    -0.018 A 
ATOM     18  C17 <0> A   1     -30.438  -4.588  51.259  0.00  0.00    +0.120 A 
ATOM     19  C18 <0> A   1     -29.684  -4.183  50.169  0.00  0.00    -0.025 A 
ATOM     20  C19 <0> A   1     -28.435  -3.630  50.358  0.00  0.00    +0.109 A 
ATOM     21  F1  <0> A   1     -31.663  -5.125  51.067  0.00  0.00    -0.137 F 
ENDBRANCH   3  15
BRANCH   1  23
ATOM     22  C1  <0> A   1     -22.210  -2.609  50.884  0.00  0.00    +0.042 C 
ATOM     23  C2  <0> A   1     -22.889  -2.930  52.217  0.00  0.00    +0.084 C 
ATOM     24  C3  <0> A   1     -22.274  -2.070  53.323  0.00  0.00    +0.042 C 
ENDBRANCH   1  23
BRANCH   2  25
ATOM     25  C20 <0> A   1     -25.191  -5.042  51.706  0.00  0.00    +0.039 C 
ATOM     26  C21 <0> A   1     -25.106  -5.554  50.485  0.00  0.00    -0.044 C 
BRANCH  26  27
ATOM     27  C22 <0> A   1     -24.915  -7.037  50.302  0.00  0.00    +0.252 C 
BRANCH  27  28
ATOM     28  O4  <0> A   1     -23.748  -7.274  49.512  0.00  0.00    -0.538 OA
ATOM     29  H25 <0> A   1     -22.930  -7.322  50.023  0.00  0.00    +0.366 HD
ENDBRANCH  27  28
BRANCH  27  30
ATOM     30  C23 <0> A   1     -24.747  -7.702  51.671  0.00  0.00    -0.041 C 
BRANCH  30  31
ATOM     31  C24 <0> A   1     -23.600  -8.714  51.609  0.00  0.00    +0.231 C 
BRANCH  31  32
ATOM     32  O3  <0> A   1     -22.719  -8.502  52.713  0.00  0.00    -0.528 OA
ATOM     33  H24 <0> A   1     -21.810  -8.790  52.552  0.00  0.00    +0.350 HD
ENDBRANCH  31  32
BRANCH  31  34
ATOM     34  C25 <0> A   1     -24.168 -10.132  51.674  0.00  0.00    -0.102 C 
BRANCH  34  35
ATOM     35  C26 <0> A   1     -24.298 -10.686  50.279  0.00  0.00    +0.490 C 
ATOM     36  O1  <0> A   1     -23.589 -10.257  49.384  0.00  0.00    -0.681 OA
ATOM     37  O2  <0> A   1     -25.113 -11.563  50.044  0.00  0.00    -0.713 OA
ENDBRANCH  34  35
ENDBRANCH  31  34
ENDBRANCH  30  31
ENDBRANCH  27  30
ENDBRANCH  26  27
ENDBRANCH   2  25
TORSDOF 10
