REMARK VINA RESULT:      -8.0      4.122      7.470
REMARK  Name = CHEMBL488297
REMARK  16 active torsions:
REMARK  status: ('A' for Active; 'I' for Inactive)
REMARK    1  A    between atoms: C1_1  and  C2_2
REMARK    2  A    between atoms: C2_2  and  C3_3
REMARK    3  A    between atoms: C2_2  and  C4_4
REMARK    4  A    between atoms: C5_5  and  C20_30
REMARK    5  A    between atoms: C6_7  and  C14_22
REMARK    6  A    between atoms: N2_8  and  C7_9
REMARK    7  A    between atoms: C7_9  and  C8_10
REMARK    8  A    between atoms: C8_10  and  C9_11
REMARK    9  A    between atoms: C9_11  and  C10_13
REMARK   10  A    between atoms: C9_11  and  O4_21
REMARK   11  A    between atoms: C10_13  and  C11_14
REMARK   12  A    between atoms: C11_14  and  C12_16
REMARK   13  A    between atoms: C11_14  and  O3_20
REMARK   14  A    between atoms: C12_16  and  C13_17
REMARK   15  A    between atoms: N3_32  and  C21_33
REMARK   16  A    between atoms: C21_33  and  C22_34
REMARK                            x       y       z     vdW  Elec       q    Type
REMARK                         _______ _______ _______ _____ _____    ______ ____
ROOT
ATOM      1  C4  <0> A   1     -11.866   7.381  46.069  0.00  0.00    +0.096 C 
ATOM      2  C5  <0> A   1     -11.862   6.512  47.121  0.00  0.00    -0.063 C 
ATOM      3  N1  <0> A   1     -13.143   6.297  47.486  0.00  0.00    -0.441 NA
ATOM      4  C6  <0> A   1     -13.933   6.994  46.706  0.00  0.00    +0.240 C 
ATOM      5  N2  <0> A   1     -13.166   7.688  45.813  0.00  0.00    -0.433 N 
ENDROOT
BRANCH   4   6
ATOM      6  C14 <0> A   1     -15.410   7.030  46.783  0.00  0.00    +0.011 A 
ATOM      7  C15 <0> A   1     -16.178   6.442  45.777  0.00  0.00    +0.042 A 
ATOM      8  C16 <0> A   1     -17.555   6.476  45.853  0.00  0.00    +0.042 A 
ATOM      9  C17 <0> A   1     -18.177   7.095  46.925  0.00  0.00    +0.077 A 
ATOM     10  C18 <0> A   1     -17.418   7.681  47.929  0.00  0.00    +0.073 A 
ATOM     11  C19 <0> A   1     -16.040   7.646  47.865  0.00  0.00    +0.069 A 
ATOM     12  F1  <0> A   1     -18.031   8.283  48.973  0.00  0.00    -0.124 F 
ATOM     13  F2  <0> A   1     -19.526   7.126  46.994  0.00  0.00    -0.123 F 
ENDBRANCH   4   6
BRANCH   2  14
ATOM     14  C20 <0> A   1     -10.670   5.913  47.747  0.00  0.00    +0.610 C 
ATOM     15  O5  <0> A   1     -10.110   6.487  48.661  0.00  0.00    -0.540 OA
ATOM     16  N3  <0> A   1     -10.201   4.728  47.308  0.00  0.00    -0.714 N 
ATOM     17  H23 <0> A   1     -10.649   4.269  46.579  0.00  0.00    +0.410 HD
BRANCH  16  18
ATOM     18  C21 <0> A   1      -9.018   4.132  47.931  0.00  0.00    +0.318 C 
BRANCH  18  19
ATOM     19  C22 <0> A   1      -7.981   3.852  46.874  0.00  0.00    -0.109 A 
ATOM     20  C23 <0> A   1      -7.335   2.631  46.846  0.00  0.00    +0.024 A 
ATOM     21  C24 <0> A   1      -6.384   2.373  45.876  0.00  0.00    +0.001 A 
ATOM     22  C25 <0> A   1      -6.079   3.338  44.934  0.00  0.00    +0.010 A 
ATOM     23  C26 <0> A   1      -6.726   4.560  44.961  0.00  0.00    +0.002 A 
ATOM     24  C27 <0> A   1      -7.680   4.814  45.929  0.00  0.00    +0.025 A 
ENDBRANCH  18  19
ENDBRANCH  16  18
ENDBRANCH   2  14
BRANCH   1  26
ATOM     25  C1  <0> A   1     -10.927   7.878  43.829  0.00  0.00    +0.033 C 
ATOM     26  C2  <0> A   1     -10.659   7.906  45.335  0.00  0.00    +0.086 C 
ATOM     27  C3  <0> A   1     -10.379   9.343  45.776  0.00  0.00    +0.035 C 
ENDBRANCH   1  26
BRANCH   5  28
ATOM     28  C7  <0> A   1     -13.653   8.593  44.769  0.00  0.00    +0.305 C 
BRANCH  28  29
ATOM     29  C8  <0> A   1     -13.769  10.009  45.333  0.00  0.00    -0.015 C 
BRANCH  29  30
ATOM     30  C9  <0> A   1     -13.751  11.020  44.185  0.00  0.00    +0.219 C 
BRANCH  30  31
ATOM     31  O4  <0> A   1     -12.583  11.837  44.288  0.00  0.00    -0.538 OA
ATOM     32  H19 <0> A   1     -11.984  11.578  45.002  0.00  0.00    +0.367 HD
ENDBRANCH  30  31
BRANCH  30  33
ATOM     33  C10 <0> A   1     -13.735  10.275  42.849  0.00  0.00    -0.046 C 
BRANCH  33  34
ATOM     34  C11 <0> A   1     -13.041  11.137  41.792  0.00  0.00    +0.232 C 
BRANCH  34  35
ATOM     35  O3  <0> A   1     -11.740  10.608  41.527  0.00  0.00    -0.528 OA
ATOM     36  H18 <0> A   1     -11.516   9.831  42.058  0.00  0.00    +0.351 HD
ENDBRANCH  34  35
BRANCH  34  37
ATOM     37  C12 <0> A   1     -13.867  11.128  40.504  0.00  0.00    -0.102 C 
BRANCH  37  38
ATOM     38  C13 <0> A   1     -12.943  11.045  39.317  0.00  0.00    +0.490 C 
ATOM     39  O1  <0> A   1     -12.464  12.061  38.844  0.00  0.00    -0.681 OA
ATOM     40  O2  <0> A   1     -12.675   9.960  38.828  0.00  0.00    -0.712 OA
ENDBRANCH  37  38
ENDBRANCH  34  37
ENDBRANCH  33  34
ENDBRANCH  30  33
ENDBRANCH  29  30
ENDBRANCH  28  29
ENDBRANCH   5  28
TORSDOF 14
