REMARK  Name = CHEMBL358623
REMARK  15 active torsions:
REMARK  status: ('A' for Active; 'I' for Inactive)
REMARK    1  A    between atoms: C1_1  and  C2_2
REMARK    2  A    between atoms: C2_2  and  C3_3
REMARK    3  A    between atoms: C2_2  and  C4_4
REMARK    4  A    between atoms: C5_5  and  C18_20
REMARK    5  A    between atoms: C6_6  and  C12_13
REMARK    6  A    between atoms: C7_7  and  C8_9
REMARK    7  A    between atoms: C9_10  and  C10_11
REMARK    8  A    between atoms: C9_10  and  C11_12
REMARK    9  A    between atoms: C19_21  and  C20_22
REMARK   10  A    between atoms: C20_22  and  C21_24
REMARK   11  A    between atoms: C20_22  and  O4_32
REMARK   12  A    between atoms: C21_24  and  C22_25
REMARK   13  A    between atoms: C22_25  and  C23_27
REMARK   14  A    between atoms: C22_25  and  O3_31
REMARK   15  A    between atoms: C23_27  and  C24_28
REMARK                            x       y       z     vdW  Elec       q    Type
REMARK                         _______ _______ _______ _____ _____    ______ ____
ROOT
ATOM      1  C4  <0> A   1      -1.412  -0.526   0.013  0.00  0.00    -0.153 C 
ATOM      2  C5  <0> A   1      -2.031  -1.321  -0.910  0.00  0.00    -0.071 C 
ATOM      3  C6  <0> A   1      -3.404  -1.688  -0.671  0.00  0.00    -0.072 C 
ATOM      4  C7  <0> A   1      -3.998  -1.202   0.487  0.00  0.00    -0.108 C 
ATOM      5  S1  <0> A   1      -2.681  -0.261   1.236  0.00  0.00    +0.076 S 
ENDROOT
BRANCH   3   6
ATOM      6  C12 <0> A   1      -4.150  -2.546  -1.619  0.00  0.00    -0.030 A 
ATOM      7  C13 <0> A   1      -4.418  -2.094  -2.911  0.00  0.00    +0.064 A 
ATOM      8  C14 <0> A   1      -5.113  -2.897  -3.790  0.00  0.00    -0.013 A 
ATOM      9  C15 <0> A   1      -5.546  -4.152  -3.392  0.00  0.00    +0.099 A 
ATOM     10  C16 <0> A   1      -5.283  -4.606  -2.110  0.00  0.00    -0.016 A 
ATOM     11  C17 <0> A   1      -4.583  -3.813  -1.224  0.00  0.00    +0.049 A 
ATOM     12  F1  <0> A   1      -6.227  -4.935  -4.257  0.00  0.00    -0.140 F 
ENDBRANCH   3   6
BRANCH   4  13
ATOM     13  C8  <0> A   1      -5.366  -1.414   0.976  0.00  0.00    +0.043 C 
ATOM     14  C9  <0> A   1      -5.758  -0.859   2.121  0.00  0.00    -0.109 C 
ATOM     15  C10 <0> A   1      -4.796  -0.014   2.916  0.00  0.00    +0.096 C 
ATOM     16  C11 <0> A   1      -7.162  -1.077   2.622  0.00  0.00    +0.090 C 
ENDBRANCH   4  13
BRANCH   1  18
ATOM     17  C1  <0> A   1      -0.019   1.526   0.010  0.00  0.00    +0.032 C 
ATOM     18  C2  <0> A   1       0.002  -0.004   0.002  0.00  0.00    +0.081 C 
ATOM     19  C3  <0> A   1       0.742  -0.511   1.242  0.00  0.00    +0.033 C 
ENDBRANCH   1  18
BRANCH   2  20
ATOM     20  C18 <0> A   1      -1.315  -1.790  -2.114  0.00  0.00    +0.014 C 
ATOM     21  C19 <0> A   1      -1.332  -3.077  -2.436  0.00  0.00    -0.046 C 
BRANCH  21  22
ATOM     22  C20 <0> A   1      -0.602  -3.555  -3.665  0.00  0.00    +0.249 C 
BRANCH  22  23
ATOM     23  O4  <0> A   1       0.120  -2.466  -4.244  0.00  0.00    -0.538 OA
ATOM     24  H28 <0> A   1       0.780  -2.075  -3.655  0.00  0.00    +0.364 HD
ENDBRANCH  22  23
BRANCH  22  25
ATOM     25  C21 <0> A   1       0.375  -4.667  -3.277  0.00  0.00    -0.042 C 
BRANCH  25  26
ATOM     26  C22 <0> A   1       1.024  -5.238  -4.539  0.00  0.00    +0.230 C 
BRANCH  26  27
ATOM     27  O3  <0> A   1       1.825  -4.231  -5.160  0.00  0.00    -0.528 OA
ATOM     28  H27 <0> A   1       2.538  -3.894  -4.599  0.00  0.00    +0.350 HD
ENDBRANCH  26  27
BRANCH  26  29
ATOM     29  C23 <0> A   1       1.906  -6.431  -4.164  0.00  0.00    -0.102 C 
BRANCH  29  30
ATOM     30  C24 <0> A   1       2.448  -7.069  -5.417  0.00  0.00    +0.491 C 
ATOM     31  O1  <0> A   1       2.156  -6.612  -6.509  0.00  0.00    -0.681 OA
ATOM     32  O2  <0> A   1       3.178  -8.042  -5.339  0.00  0.00    -0.713 OA
ENDBRANCH  29  30
ENDBRANCH  26  29
ENDBRANCH  25  26
ENDBRANCH  22  25
ENDBRANCH  21  22
ENDBRANCH   2  20
TORSDOF 11
