REMARK VINA RESULT:      -8.3      0.800      1.147
REMARK  Name = CHEMBL154699
REMARK  6 active torsions:
REMARK  status: ('A' for Active; 'I' for Inactive)
REMARK    1  A    between atoms: C4_4  and  C7_7
REMARK    2  A    between atoms: C9_9  and  C25_30
REMARK    3  A    between atoms: C10_10  and  C18_19
REMARK    4  A    between atoms: C11_11  and  C12_13
REMARK    5  A    between atoms: C19_20  and  C20_21
REMARK    6  A    between atoms: C22_23  and  O3_29
REMARK                            x       y       z     vdW  Elec       q    Type
REMARK                         _______ _______ _______ _____ _____    ______ ____
ROOT
ATOM      1  C7  <0> A   1     -28.629  -1.717  51.956  0.00  0.00    +0.178 A 
ATOM      2  C8  <0> A   1     -29.191  -2.989  52.009  0.00  0.00    -0.015 A 
ATOM      3  C9  <0> A   1     -28.351  -4.101  51.984  0.00  0.00    +0.012 A 
ATOM      4  C10 <0> A   1     -26.959  -3.883  51.903  0.00  0.00    -0.099 A 
ATOM      5  C11 <0> A   1     -26.483  -2.573  51.852  0.00  0.00    +0.164 A 
ATOM      6  N1  <0> A   1     -27.313  -1.553  51.875  0.00  0.00    -0.467 NA
ENDROOT
BRANCH   3   7
ATOM      7  C25 <0> A   1     -28.904  -5.474  52.039  0.00  0.00    -0.066 A 
ATOM      8  C26 <0> A   1     -29.268  -6.131  50.864  0.00  0.00    +0.075 A 
ATOM      9  C27 <0> A   1     -29.783  -7.409  50.922  0.00  0.00    -0.013 A 
ATOM     10  C28 <0> A   1     -29.938  -8.041  52.145  0.00  0.00    +0.109 A 
ATOM     11  C29 <0> A   1     -29.578  -7.394  53.316  0.00  0.00    -0.013 A 
ATOM     12  C30 <0> A   1     -29.057  -6.117  53.268  0.00  0.00    +0.061 A 
ATOM     13  F1  <0> A   1     -30.443  -9.293  52.196  0.00  0.00    -0.136 F 
ENDBRANCH   3   7
BRANCH   1  17
ATOM     14  C1  <0> A   1     -31.164   1.696  52.032  0.00  0.00    +0.017 A 
ATOM     15  C2  <0> A   1     -31.654   0.463  52.427  0.00  0.00    +0.000 A 
ATOM     16  C3  <0> A   1     -30.837  -0.647  52.404  0.00  0.00    +0.057 A 
ATOM     17  C4  <0> A   1     -29.513  -0.526  51.982  0.00  0.00    -0.052 A 
ATOM     18  C5  <0> A   1     -29.025   0.717  51.585  0.00  0.00    +0.024 A 
ATOM     19  C6  <0> A   1     -29.852   1.821  51.613  0.00  0.00    +0.003 A 
ENDBRANCH   1  17
BRANCH   5  20
ATOM     20  C12 <0> A   1     -24.999  -2.323  51.766  0.00  0.00    +0.054 C 
ATOM     21  C13 <0> A   1     -24.495  -1.779  53.105  0.00  0.00    +0.026 C 
ATOM     22  C14 <0> A   1     -22.988  -1.526  53.017  0.00  0.00    +0.005 C 
ATOM     23  C15 <0> A   1     -22.707  -0.504  51.914  0.00  0.00    +0.003 C 
ATOM     24  C16 <0> A   1     -23.211  -1.047  50.575  0.00  0.00    +0.006 C 
ATOM     25  C17 <0> A   1     -24.718  -1.301  50.663  0.00  0.00    +0.025 C 
ENDBRANCH   5  20
BRANCH   4  26
ATOM     26  C18 <0> A   1     -26.022  -5.022  51.872  0.00  0.00    +0.049 C 
ATOM     27  C19 <0> A   1     -25.582  -5.488  50.710  0.00  0.00    -0.012 C 
BRANCH  27  28
ATOM     28  C20 <0> A   1     -24.625  -6.653  50.678  0.00  0.00    +0.242 C 
ATOM     29  C21 <0> A   1     -25.248  -7.805  49.887  0.00  0.00    +0.050 C 
ATOM     30  C22 <0> A   1     -24.291  -9.001  49.892  0.00  0.00    +0.186 C 
ATOM     31  C23 <0> A   1     -24.039  -9.428  51.343  0.00  0.00    +0.024 C 
ATOM     32  C24 <0> A   1     -23.614  -8.208  52.130  0.00  0.00    +0.498 C 
ATOM     33  O1  <0> A   1     -22.639  -8.235  52.842  0.00  0.00    -0.450 OA
ATOM     34  O2  <0> A   1     -24.358  -7.088  52.016  0.00  0.00    -0.369 OA
BRANCH  30  35
ATOM     35  O3  <0> A   1     -23.055  -8.627  49.279  0.00  0.00    -0.563 OA
ATOM     36  H26 <0> A   1     -22.733  -9.263  48.625  0.00  0.00    +0.387 HD
ENDBRANCH  30  35
ENDBRANCH  27  28
ENDBRANCH   4  26
TORSDOF 6
