REMARK VINA RESULT:      -7.5     10.706     15.338
REMARK  Name = CHEMBL468632
REMARK  15 active torsions:
REMARK  status: ('A' for Active; 'I' for Inactive)
REMARK    1  A    between atoms: C1_1  and  C2_2
REMARK    2  A    between atoms: C2_2  and  C3_3
REMARK    3  A    between atoms: C2_2  and  C4_4
REMARK    4  A    between atoms: C5_5  and  C19_27
REMARK    5  A    between atoms: C6_6  and  C13_20
REMARK    6  A    between atoms: N3_10  and  C8_11
REMARK    7  A    between atoms: C10_13  and  C12_17
REMARK    8  A    between atoms: N5_15  and  C11_16
REMARK    9  A    between atoms: C20_28  and  C21_29
REMARK   10  A    between atoms: C21_29  and  C22_31
REMARK   11  A    between atoms: C21_29  and  O6_39
REMARK   12  A    between atoms: C22_31  and  C23_32
REMARK   13  A    between atoms: C23_32  and  C24_34
REMARK   14  A    between atoms: C23_32  and  O5_38
REMARK   15  A    between atoms: C24_34  and  C25_35
REMARK                            x       y       z     vdW  Elec       q    Type
REMARK                         _______ _______ _______ _____ _____    ______ ____
ROOT
ATOM      1  C4  <0> A   1     -21.933  -1.396  52.974  0.00  0.00    +0.234 A 
ATOM      2  C5  <0> A   1     -23.221  -1.134  52.499  0.00  0.00    -0.198 A 
ATOM      3  C6  <0> A   1     -23.492   0.151  51.984  0.00  0.00    +0.272 A 
ATOM      4  N1  <0> A   1     -22.516   1.054  51.971  0.00  0.00    -0.532 NA
ATOM      5  C7  <0> A   1     -21.312   0.758  52.433  0.00  0.00    +0.573 A 
ATOM      6  N2  <0> A   1     -21.024  -0.438  52.929  0.00  0.00    -0.561 NA
ATOM      7  N3  <0> A   1     -20.324   1.727  52.401  0.00  0.00    -0.606 N 
ATOM      8  H10 <0> A   1     -19.436   1.526  52.736  0.00  0.00    +0.415 HD
ENDROOT
BRANCH   3   9
ATOM      9  C13 <0> A   1     -24.838   0.487  51.465  0.00  0.00    -0.078 A 
ATOM     10  C14 <0> A   1     -25.329  -0.154  50.328  0.00  0.00    +0.090 A 
ATOM     11  C15 <0> A   1     -26.583   0.163  49.848  0.00  0.00    -0.026 A 
ATOM     12  C16 <0> A   1     -27.355   1.116  50.495  0.00  0.00    +0.117 A 
ATOM     13  C17 <0> A   1     -26.870   1.755  51.625  0.00  0.00    -0.009 A 
ATOM     14  C18 <0> A   1     -25.620   1.441  52.115  0.00  0.00    +0.112 A 
ATOM     15  F1  <0> A   1     -28.582   1.422  50.022  0.00  0.00    -0.139 F 
ENDBRANCH   3   9
BRANCH   7  16
ATOM     16  C8  <0> A   1     -20.604   2.992  51.889  0.00  0.00    +0.211 C 
ATOM     17  C9  <0> A   1     -20.373   3.421  50.617  0.00  0.00    -0.010 C 
ATOM     18  C10 <0> A   1     -20.822   4.763  50.584  0.00  0.00    +0.004 C 
ATOM     19  N4  <0> A   1     -21.278   5.050  51.788  0.00  0.00    -0.268 NA
ATOM     20  N5  <0> A   1     -21.165   4.031  52.562  0.00  0.00    -0.328 N 
ATOM     21  C11 <0> A   1     -21.577   3.995  53.967  0.00  0.00    +0.335 C 
BRANCH  18  22
ATOM     22  C12 <0> A   1     -20.788   5.669  49.422  0.00  0.00    +0.562 C 
ATOM     23  O1  <0> A   1     -20.962   5.225  48.295  0.00  0.00    -0.676 OA
ATOM     24  O2  <0> A   1     -20.583   6.864  49.584  0.00  0.00    -0.681 OA
ENDBRANCH  18  22
ENDBRANCH   7  16
BRANCH   1  26
ATOM     25  C1  <0> A   1     -20.413  -3.343  52.754  0.00  0.00    +0.039 C 
ATOM     26  C2  <0> A   1     -21.587  -2.751  53.536  0.00  0.00    +0.051 C 
ATOM     27  C3  <0> A   1     -21.199  -2.608  55.009  0.00  0.00    +0.040 C 
ENDBRANCH   1  26
BRANCH   2  28
ATOM     28  C19 <0> A   1     -24.269  -2.173  52.535  0.00  0.00    +0.018 C 
ATOM     29  C20 <0> A   1     -24.306  -3.110  51.596  0.00  0.00    -0.043 C 
BRANCH  29  30
ATOM     30  C21 <0> A   1     -25.376  -4.171  51.633  0.00  0.00    +0.253 C 
BRANCH  30  31
ATOM     31  O6  <0> A   1     -26.083  -4.177  50.390  0.00  0.00    -0.539 OA
ATOM     32  H26 <0> A   1     -27.015  -3.931  50.467  0.00  0.00    +0.364 HD
ENDBRANCH  30  31
BRANCH  30  33
ATOM     33  C22 <0> A   1     -24.731  -5.540  51.858  0.00  0.00    -0.041 C 
BRANCH  33  34
ATOM     34  C23 <0> A   1     -25.058  -6.458  50.680  0.00  0.00    +0.231 C 
BRANCH  34  35
ATOM     35  O5  <0> A   1     -24.013  -6.379  49.709  0.00  0.00    -0.528 OA
ATOM     36  H25 <0> A   1     -23.178  -6.773  49.997  0.00  0.00    +0.349 HD
ENDBRANCH  34  35
BRANCH  34  37
ATOM     37  C24 <0> A   1     -25.184  -7.900  51.176  0.00  0.00    -0.102 C 
BRANCH  37  38
ATOM     38  C25 <0> A   1     -23.883  -8.625  50.947  0.00  0.00    +0.491 C 
ATOM     39  O3  <0> A   1     -23.009  -8.592  51.797  0.00  0.00    -0.681 OA
ATOM     40  O4  <0> A   1     -23.703  -9.244  49.912  0.00  0.00    -0.716 OA
ENDBRANCH  37  38
ENDBRANCH  34  37
ENDBRANCH  33  34
ENDBRANCH  30  33
ENDBRANCH  29  30
ENDBRANCH   2  28
TORSDOF 12
