REMARK VINA RESULT:      -7.9     15.151     20.816
REMARK  Name = CHEMBL488297
REMARK  16 active torsions:
REMARK  status: ('A' for Active; 'I' for Inactive)
REMARK    1  A    between atoms: C1_1  and  C2_2
REMARK    2  A    between atoms: C2_2  and  C3_3
REMARK    3  A    between atoms: C2_2  and  C4_4
REMARK    4  A    between atoms: C5_5  and  C20_30
REMARK    5  A    between atoms: C6_7  and  C14_22
REMARK    6  A    between atoms: N2_8  and  C7_9
REMARK    7  A    between atoms: C7_9  and  C8_10
REMARK    8  A    between atoms: C8_10  and  C9_11
REMARK    9  A    between atoms: C9_11  and  C10_13
REMARK   10  A    between atoms: C9_11  and  O4_21
REMARK   11  A    between atoms: C10_13  and  C11_14
REMARK   12  A    between atoms: C11_14  and  C12_16
REMARK   13  A    between atoms: C11_14  and  O3_20
REMARK   14  A    between atoms: C12_16  and  C13_17
REMARK   15  A    between atoms: N3_32  and  C21_33
REMARK   16  A    between atoms: C21_33  and  C22_34
REMARK                            x       y       z     vdW  Elec       q    Type
REMARK                         _______ _______ _______ _____ _____    ______ ____
ROOT
ATOM      1  C4  <0> A   1     -26.342  -4.713  51.327  0.00  0.00    +0.096 C 
ATOM      2  C5  <0> A   1     -25.099  -4.277  50.971  0.00  0.00    -0.063 C 
ATOM      3  N1  <0> A   1     -24.381  -5.348  50.572  0.00  0.00    -0.441 NA
ATOM      4  C6  <0> A   1     -25.127  -6.422  50.667  0.00  0.00    +0.240 C 
ATOM      5  N2  <0> A   1     -26.357  -6.061  51.143  0.00  0.00    -0.433 N 
ENDROOT
BRANCH   4   6
ATOM      6  C14 <0> A   1     -24.706  -7.798  50.324  0.00  0.00    +0.011 A 
ATOM      7  C15 <0> A   1     -24.255  -8.662  51.323  0.00  0.00    +0.042 A 
ATOM      8  C16 <0> A   1     -23.864  -9.945  50.999  0.00  0.00    +0.042 A 
ATOM      9  C17 <0> A   1     -23.917 -10.376  49.684  0.00  0.00    +0.077 A 
ATOM     10  C18 <0> A   1     -24.365  -9.522  48.686  0.00  0.00    +0.073 A 
ATOM     11  C19 <0> A   1     -24.764  -8.239  49.002  0.00  0.00    +0.069 A 
ATOM     12  F1  <0> A   1     -24.414  -9.949  47.405  0.00  0.00    -0.124 F 
ATOM     13  F2  <0> A   1     -23.532 -11.633  49.373  0.00  0.00    -0.123 F 
ENDBRANCH   4   6
BRANCH   2  14
ATOM     14  C20 <0> A   1     -24.624  -2.882  51.012  0.00  0.00    +0.610 C 
ATOM     15  O5  <0> A   1     -23.896  -2.514  51.914  0.00  0.00    -0.540 OA
ATOM     16  N3  <0> A   1     -24.996  -2.014  50.050  0.00  0.00    -0.714 N 
ATOM     17  H23 <0> A   1     -25.576  -2.308  49.330  0.00  0.00    +0.410 HD
BRANCH  16  18
ATOM     18  C21 <0> A   1     -24.523  -0.629  50.091  0.00  0.00    +0.318 C 
BRANCH  18  19
ATOM     19  C22 <0> A   1     -25.642   0.270  50.550  0.00  0.00    -0.109 A 
ATOM     20  C23 <0> A   1     -26.938   0.026  50.137  0.00  0.00    +0.024 A 
ATOM     21  C24 <0> A   1     -27.965   0.852  50.559  0.00  0.00    +0.001 A 
ATOM     22  C25 <0> A   1     -27.694   1.919  51.394  0.00  0.00    +0.010 A 
ATOM     23  C26 <0> A   1     -26.398   2.162  51.808  0.00  0.00    +0.002 A 
ATOM     24  C27 <0> A   1     -25.373   1.334  51.389  0.00  0.00    +0.025 A 
ENDBRANCH  18  19
ENDBRANCH  16  18
ENDBRANCH   2  14
BRANCH   1  26
ATOM     25  C1  <0> A   1     -28.353  -3.427  50.659  0.00  0.00    +0.033 C 
ATOM     26  C2  <0> A   1     -27.479  -3.865  51.836  0.00  0.00    +0.086 C 
ATOM     27  C3  <0> A   1     -28.320  -4.677  52.821  0.00  0.00    +0.035 C 
ENDBRANCH   1  26
BRANCH   5  28
ATOM     28  C7  <0> A   1     -27.485  -6.959  51.401  0.00  0.00    +0.305 C 
BRANCH  28  29
ATOM     29  C8  <0> A   1     -28.087  -7.419  50.073  0.00  0.00    -0.015 C 
BRANCH  29  30
ATOM     30  C9  <0> A   1     -28.697  -8.810  50.244  0.00  0.00    +0.219 C 
BRANCH  30  31
ATOM     31  O4  <0> A   1     -27.652  -9.781  50.342  0.00  0.00    -0.538 OA
ATOM     32  H19 <0> A   1     -26.794  -9.466  50.027  0.00  0.00    +0.367 HD
ENDBRANCH  30  31
BRANCH  30  33
ATOM     33  C10 <0> A   1     -29.545  -8.844  51.516  0.00  0.00    -0.046 C 
BRANCH  33  34
ATOM     34  C11 <0> A   1     -30.447 -10.080  51.497  0.00  0.00    +0.232 C 
BRANCH  34  35
ATOM     35  O3  <0> A   1     -30.191 -10.837  50.312  0.00  0.00    -0.528 OA
ATOM     36  H18 <0> A   1     -30.544 -11.738  50.337  0.00  0.00    +0.351 HD
ENDBRANCH  34  35
BRANCH  34  37
ATOM     37  C12 <0> A   1     -30.156 -10.943  52.727  0.00  0.00    -0.102 C 
BRANCH  37  38
ATOM     38  C13 <0> A   1     -29.406 -12.180  52.305  0.00  0.00    +0.490 C 
ATOM     39  O1  <0> A   1     -28.205 -12.128  52.109  0.00  0.00    -0.681 OA
ATOM     40  O2  <0> A   1     -30.002 -13.234  52.160  0.00  0.00    -0.712 OA
ENDBRANCH  37  38
ENDBRANCH  34  37
ENDBRANCH  33  34
ENDBRANCH  30  33
ENDBRANCH  29  30
ENDBRANCH  28  29
ENDBRANCH   5  28
TORSDOF 14
