REMARK VINA RESULT:      -7.5     34.737     36.853
REMARK  Name = CHEMBL296915
REMARK  7 active torsions:
REMARK  status: ('A' for Active; 'I' for Inactive)
REMARK    1  A    between atoms: C5_5  and  C14_15
REMARK    2  A    between atoms: C6_6  and  O1_7
REMARK    3  A    between atoms: O1_7  and  C7_8
REMARK    4  A    between atoms: C7_8  and  C8_9
REMARK    5  A    between atoms: C14_15  and  C15_16
REMARK    6  A    between atoms: C15_16  and  C16_17
REMARK    7  A    between atoms: C18_19  and  O4_25
REMARK                            x       y       z     vdW  Elec       q    Type
REMARK                         _______ _______ _______ _____ _____    ______ ____
ROOT
ATOM      1  C1  <0> A   1      -0.049  10.541  53.590  0.00  0.00    -0.053 A 
ATOM      2  C2  <0> A   1      -0.818  11.369  54.388  0.00  0.00    +0.013 A 
ATOM      3  C3  <0> A   1      -2.145  11.597  54.073  0.00  0.00    +0.007 A 
ATOM      4  C4  <0> A   1      -2.708  10.996  52.960  0.00  0.00    +0.013 A 
ATOM      5  C5  <0> A   1      -1.943  10.169  52.159  0.00  0.00    -0.102 A 
ATOM      6  C6  <0> A   1      -0.611   9.939  52.474  0.00  0.00    +0.162 A 
ATOM      7 Cl1  <0> A   1      -4.374  11.285  52.568  0.00  0.00    -0.038 Cl
ATOM      8 Cl2  <0> A   1      -0.116  12.122  55.785  0.00  0.00    -0.052 Cl
ENDROOT
BRANCH   6   9
ATOM      9  O1  <0> A   1       0.143   9.125  51.688  0.00  0.00    -0.297 OA
BRANCH   9  10
ATOM     10  C7  <0> A   1       1.449   9.588  51.340  0.00  0.00    +0.191 C 
BRANCH  10  11
ATOM     11  C8  <0> A   1       2.445   8.432  51.451  0.00  0.00    +0.000 C 
ATOM     12  C9  <0> A   1       2.810   8.212  52.920  0.00  0.00    +0.017 C 
ATOM     13  C10 <0> A   1       3.807   7.057  53.032  0.00  0.00    +0.005 C 
ATOM     14  C11 <0> A   1       5.071   7.395  52.238  0.00  0.00    +0.001 C 
ATOM     15  C12 <0> A   1       4.706   7.615  50.768  0.00  0.00    +0.010 C 
ATOM     16  C13 <0> A   1       3.708   8.770  50.657  0.00  0.00    +0.018 C 
ENDBRANCH  10  11
ENDBRANCH   9  10
ENDBRANCH   6   9
BRANCH   5  17
ATOM     17  C14 <0> A   1      -2.555   9.515  50.948  0.00  0.00    +0.097 C 
BRANCH  17  18
ATOM     18  C15 <0> A   1      -2.981   8.089  51.299  0.00  0.00    +0.061 C 
BRANCH  18  19
ATOM     19  C16 <0> A   1      -3.183   7.285  50.013  0.00  0.00    +0.199 C 
ATOM     20  C17 <0> A   1      -1.971   6.380  49.779  0.00  0.00    +0.041 C 
ATOM     21  C18 <0> A   1      -2.159   5.608  48.469  0.00  0.00    +0.184 C 
ATOM     22  C19 <0> A   1      -2.302   6.612  47.317  0.00  0.00    +0.020 C 
ATOM     23  C20 <0> A   1      -3.380   7.607  47.686  0.00  0.00    +0.496 C 
ATOM     24  O2  <0> A   1      -4.267   7.878  46.912  0.00  0.00    -0.453 OA
ATOM     25  O3  <0> A   1      -3.323   8.183  48.906  0.00  0.00    -0.366 OA
BRANCH  21  26
ATOM     26  O4  <0> A   1      -3.336   4.802  48.552  0.00  0.00    -0.563 OA
ATOM     27  H26 <0> A   1      -3.415   4.305  49.378  0.00  0.00    +0.386 HD
ENDBRANCH  21  26
ENDBRANCH  18  19
ENDBRANCH  17  18
ENDBRANCH   5  17
TORSDOF 7
