REMARK VINA RESULT:      -8.0      0.880      1.481
REMARK  Name = CHEMBL250383
REMARK  17 active torsions:
REMARK  status: ('A' for Active; 'I' for Inactive)
REMARK    1  A    between atoms: C1_1  and  C2_2
REMARK    2  A    between atoms: C2_2  and  C3_3
REMARK    3  A    between atoms: C2_2  and  C4_4
REMARK    4  A    between atoms: C5_5  and  C19_29
REMARK    5  A    between atoms: N2_7  and  C13_22
REMARK    6  A    between atoms: C6_8  and  O1_9
REMARK    7  A    between atoms: O1_9  and  C7_10
REMARK    8  A    between atoms: C7_10  and  C8_11
REMARK    9  A    between atoms: C8_11  and  C9_13
REMARK   10  A    between atoms: C8_11  and  O5_21
REMARK   11  A    between atoms: C9_13  and  C10_14
REMARK   12  A    between atoms: C10_14  and  C11_16
REMARK   13  A    between atoms: C10_14  and  O4_20
REMARK   14  A    between atoms: C11_16  and  C12_17
REMARK   15  A    between atoms: N3_31  and  C20_32
REMARK   16  A    between atoms: N3_31  and  C21_33
REMARK   17  A    between atoms: C21_33  and  C22_34
REMARK                            x       y       z     vdW  Elec       q    Type
REMARK                         _______ _______ _______ _____ _____    ______ ____
ROOT
ATOM      1  C4  <0> A   1     -15.309   6.745  45.800  0.00  0.00    -0.159 C 
ATOM      2  C5  <0> A   1     -16.220   7.347  46.695  0.00  0.00    +0.047 C 
ATOM      3  N1  <0> A   1     -15.809   8.577  46.932  0.00  0.00    -0.236 NA
ATOM      4  N2  <0> A   1     -14.633   8.795  46.202  0.00  0.00    -0.325 N 
ATOM      5  C6  <0> A   1     -14.343   7.654  45.519  0.00  0.00    +0.260 C 
ENDROOT
BRANCH   4   6
ATOM      6  C13 <0> A   1     -13.884   9.978  46.182  0.00  0.00    +0.127 A 
ATOM      7  C14 <0> A   1     -14.242  11.013  45.329  0.00  0.00    +0.066 A 
ATOM      8  C15 <0> A   1     -13.502  12.180  45.311  0.00  0.00    +0.008 A 
ATOM      9  C16 <0> A   1     -12.403  12.317  46.143  0.00  0.00    +0.108 A 
ATOM     10  C17 <0> A   1     -12.045  11.286  46.995  0.00  0.00    +0.017 A 
ATOM     11  C18 <0> A   1     -12.785  10.121  47.020  0.00  0.00    +0.066 A 
ATOM     12  F1  <0> A   1     -11.681  13.458  46.124  0.00  0.00    -0.132 F 
ENDBRANCH   4   6
BRANCH   2  13
ATOM     13  C19 <0> A   1     -17.424   6.709  47.265  0.00  0.00    +0.600 C 
ATOM     14  O6  <0> A   1     -18.454   6.669  46.621  0.00  0.00    -0.516 OA
ATOM     15  N3  <0> A   1     -17.381   6.172  48.500  0.00  0.00    -0.600 N 
ATOM     16  C20 <0> A   1     -16.171   6.306  49.316  0.00  0.00    +0.296 C 
BRANCH  15  17
ATOM     17  C21 <0> A   1     -18.543   5.452  49.027  0.00  0.00    +0.287 C 
BRANCH  17  18
ATOM     18  C22 <0> A   1     -19.127   6.224  50.212  0.00  0.00    -0.027 C 
ATOM     19  C23 <0> A   1     -20.164   7.229  49.706  0.00  0.00    +0.009 C 
ATOM     20  C24 <0> A   1     -20.747   8.001  50.891  0.00  0.00    +0.001 C 
ATOM     21  C25 <0> A   1     -21.416   7.022  51.858  0.00  0.00    +0.000 C 
ATOM     22  C26 <0> A   1     -20.380   6.018  52.365  0.00  0.00    +0.004 C 
ATOM     23  C27 <0> A   1     -19.796   5.246  51.179  0.00  0.00    +0.017 C 
ENDBRANCH  17  18
ENDBRANCH  15  17
ENDBRANCH   2  13
BRANCH   1  25
ATOM     24  C1  <0> A   1     -15.642   5.390  43.751  0.00  0.00    +0.020 C 
ATOM     25  C2  <0> A   1     -15.393   5.341  45.260  0.00  0.00    +0.078 C 
ATOM     26  C3  <0> A   1     -14.077   4.609  45.536  0.00  0.00    +0.028 C 
ENDBRANCH   1  25
BRANCH   5  27
ATOM     27  O1  <0> A   1     -13.280   7.460  44.699  0.00  0.00    -0.283 OA
BRANCH  27  28
ATOM     28  C7  <0> A   1     -13.382   7.974  43.369  0.00  0.00    +0.154 C 
BRANCH  28  29
ATOM     29  C8  <0> A   1     -12.215   7.452  42.528  0.00  0.00    +0.230 C 
BRANCH  29  30
ATOM     30  O5  <0> A   1     -12.262   6.025  42.483  0.00  0.00    -0.527 OA
ATOM     31  H17 <0> A   1     -11.396   5.601  42.554  0.00  0.00    +0.365 HD
ENDBRANCH  29  30
BRANCH  29  32
ATOM     32  C9  <0> A   1     -12.321   8.011  41.107  0.00  0.00    -0.041 C 
BRANCH  32  33
ATOM     33  C10 <0> A   1     -12.868   9.439  41.160  0.00  0.00    +0.236 C 
BRANCH  33  34
ATOM     34  O4  <0> A   1     -11.780  10.363  41.230  0.00  0.00    -0.526 OA
ATOM     35  H16 <0> A   1     -11.237  10.393  40.430  0.00  0.00    +0.351 HD
ENDBRANCH  33  34
BRANCH  33  36
ATOM     36  C11 <0> A   1     -13.692   9.715  39.901  0.00  0.00    -0.101 C 
BRANCH  36  37
ATOM     37  C12 <0> A   1     -13.682  11.194  39.610  0.00  0.00    +0.491 C 
ATOM     38  O2  <0> A   1     -14.478  11.930  40.166  0.00  0.00    -0.680 OA
ATOM     39  O3  <0> A   1     -12.876  11.654  38.819  0.00  0.00    -0.712 OA
ENDBRANCH  36  37
ENDBRANCH  33  36
ENDBRANCH  32  33
ENDBRANCH  29  32
ENDBRANCH  28  29
ENDBRANCH  27  28
ENDBRANCH   5  27
TORSDOF 14
