REMARK VINA RESULT:      -8.6      0.060      1.004
REMARK  Name = CHEMBL63204
REMARK  12 active torsions:
REMARK  status: ('A' for Active; 'I' for Inactive)
REMARK    1  A    between atoms: C1_1  and  C2_2
REMARK    2  A    between atoms: C2_2  and  C3_3
REMARK    3  A    between atoms: C2_2  and  C4_4
REMARK    4  A    between atoms: C5_5  and  C18_22
REMARK    5  A    between atoms: C6_6  and  C12_15
REMARK    6  A    between atoms: C19_23  and  C20_24
REMARK    7  A    between atoms: C20_24  and  C21_25
REMARK    8  A    between atoms: C20_24  and  O4_33
REMARK    9  A    between atoms: C21_25  and  C22_26
REMARK   10  A    between atoms: C22_26  and  C23_28
REMARK   11  A    between atoms: C22_26  and  O3_32
REMARK   12  A    between atoms: C23_28  and  C24_29
REMARK                            x       y       z     vdW  Elec       q    Type
REMARK                         _______ _______ _______ _____ _____    ______ ____
ROOT
ATOM      1  C4  <0> A   1     -14.723   6.421  45.413  0.00  0.00    +0.116 C 
ATOM      2  C5  <0> A   1     -13.878   7.490  45.054  0.00  0.00    -0.169 C 
ATOM      3  C6  <0> A   1     -14.127   8.528  45.945  0.00  0.00    +0.148 C 
ATOM      4  N1  <0> A   1     -15.091   8.089  46.808  0.00  0.00    -0.321 N 
ATOM      5  N2  <0> A   1     -15.438   6.783  46.443  0.00  0.00    -0.275 NA
ATOM      6  C7  <0> A   1     -15.638   8.819  47.865  0.00  0.00    +0.368 A 
ATOM      7  C8  <0> A   1     -16.910   8.506  48.331  0.00  0.00    -0.015 A 
ATOM      8  C9  <0> A   1     -17.440   9.237  49.380  0.00  0.00    +0.089 A 
ATOM      9  C10 <0> A   1     -16.677  10.258  49.928  0.00  0.00    -0.041 A 
ATOM     10  C11 <0> A   1     -15.421  10.513  49.415  0.00  0.00    +0.295 A 
ATOM     11  N3  <0> A   1     -14.939   9.797  48.419  0.00  0.00    -0.490 NA
ENDROOT
BRANCH   3  12
ATOM     12  C12 <0> A   1     -13.473   9.852  45.957  0.00  0.00    -0.033 A 
ATOM     13  C13 <0> A   1     -12.265  10.031  46.635  0.00  0.00    +0.088 A 
ATOM     14  C14 <0> A   1     -11.659  11.269  46.644  0.00  0.00    -0.011 A 
ATOM     15  C15 <0> A   1     -12.246  12.336  45.981  0.00  0.00    +0.112 A 
ATOM     16  C16 <0> A   1     -13.445  12.164  45.306  0.00  0.00    -0.021 A 
ATOM     17  C17 <0> A   1     -14.057  10.929  45.287  0.00  0.00    +0.074 A 
ATOM     18  F1  <0> A   1     -11.648  13.547  45.993  0.00  0.00    -0.138 F 
ENDBRANCH   3  12
BRANCH   1  20
ATOM     19  C1  <0> A   1     -14.163   4.013  45.610  0.00  0.00    +0.037 C 
ATOM     20  C2  <0> A   1     -14.793   5.085  44.719  0.00  0.00    +0.081 C 
ATOM     21  C3  <0> A   1     -16.257   4.728  44.448  0.00  0.00    +0.038 C 
ENDBRANCH   1  20
BRANCH   2  22
ATOM     22  C18 <0> A   1     -12.909   7.505  43.941  0.00  0.00    +0.040 C 
ATOM     23  C19 <0> A   1     -13.324   7.747  42.704  0.00  0.00    -0.054 C 
BRANCH  23  24
ATOM     24  C20 <0> A   1     -12.334   7.763  41.567  0.00  0.00    +0.251 C 
BRANCH  24  25
ATOM     25  O4  <0> A   1     -11.709   6.483  41.462  0.00  0.00    -0.538 OA
ATOM     26  H25 <0> A   1     -11.447   6.246  40.562  0.00  0.00    +0.366 HD
ENDBRANCH  24  25
BRANCH  24  27
ATOM     27  C21 <0> A   1     -13.064   8.084  40.261  0.00  0.00    -0.042 C 
BRANCH  27  28
ATOM     28  C22 <0> A   1     -12.318   9.194  39.519  0.00  0.00    +0.230 C 
BRANCH  28  29
ATOM     29  O3  <0> A   1     -12.765   9.247  38.163  0.00  0.00    -0.528 OA
ATOM     30  H24 <0> A   1     -13.701   9.469  38.066  0.00  0.00    +0.350 HD
ENDBRANCH  28  29
BRANCH  28  31
ATOM     31  C23 <0> A   1     -12.594  10.537  40.199  0.00  0.00    -0.102 C 
BRANCH  31  32
ATOM     32  C24 <0> A   1     -13.042  11.540  39.167  0.00  0.00    +0.491 C 
ATOM     33  O1  <0> A   1     -14.231  11.688  38.936  0.00  0.00    -0.681 OA
ATOM     34  O2  <0> A   1     -12.217  12.201  38.562  0.00  0.00    -0.714 OA
ENDBRANCH  31  32
ENDBRANCH  28  31
ENDBRANCH  27  28
ENDBRANCH  24  27
ENDBRANCH  23  24
ENDBRANCH   2  22
TORSDOF 10
