REMARK VINA RESULT:      -7.4      1.973      3.854
REMARK  Name = CHEMBL487278
REMARK  17 active torsions:
REMARK  status: ('A' for Active; 'I' for Inactive)
REMARK    1  A    between atoms: C1_1  and  C2_2
REMARK    2  A    between atoms: C2_2  and  C3_3
REMARK    3  A    between atoms: C2_2  and  C4_4
REMARK    4  A    between atoms: C5_5  and  C19_26
REMARK    5  A    between atoms: N1_8  and  C8_9
REMARK    6  A    between atoms: C8_9  and  C9_10
REMARK    7  A    between atoms: C9_10  and  C10_11
REMARK    8  A    between atoms: C10_11  and  C11_13
REMARK    9  A    between atoms: C10_11  and  O4_21
REMARK   10  A    between atoms: C11_13  and  C12_14
REMARK   11  A    between atoms: C12_14  and  C13_16
REMARK   12  A    between atoms: C12_14  and  O3_20
REMARK   13  A    between atoms: C13_16  and  C14_17
REMARK   14  A    between atoms: N2_28  and  C20_29
REMARK   15  A    between atoms: C20_29  and  C21_31
REMARK   16  A    between atoms: C20_29  and  C22_33
REMARK   17  A    between atoms: C21_31  and  O6_32
REMARK                            x       y       z     vdW  Elec       q    Type
REMARK                         _______ _______ _______ _____ _____    ______ ____
ROOT
ATOM      1  C4  <0> A   1     -13.749   8.464  45.891  0.00  0.00    +0.085 C 
ATOM      2  C5  <0> A   1     -14.979   8.052  46.333  0.00  0.00    -0.220 C 
ATOM      3  C6  <0> A   1     -15.324   6.888  45.524  0.00  0.00    -0.129 C 
ATOM      4  C7  <0> A   1     -14.299   6.688  44.672  0.00  0.00    +0.019 C 
ATOM      5  N1  <0> A   1     -13.357   7.645  44.894  0.00  0.00    -0.424 N 
ATOM      6  C15 <0> A   1     -14.258   5.571  43.657  0.00  0.00    +0.100 C 
ATOM      7  C16 <0> A   1     -15.309   4.525  44.045  0.00  0.00    +0.024 C 
ATOM      8  C17 <0> A   1     -16.653   5.214  44.296  0.00  0.00    +0.012 C 
ATOM      9  C18 <0> A   1     -16.567   6.042  45.585  0.00  0.00    +0.089 C 
ENDROOT
BRANCH   2  10
ATOM     10  C19 <0> A   1     -15.786   8.660  47.405  0.00  0.00    +0.609 C 
ATOM     11  O5  <0> A   1     -16.338   9.727  47.220  0.00  0.00    -0.541 OA
ATOM     12  N2  <0> A   1     -15.912   8.031  48.590  0.00  0.00    -0.713 N 
ATOM     13  H29 <0> A   1     -15.472   7.180  48.738  0.00  0.00    +0.404 HD
BRANCH  12  14
ATOM     14  C20 <0> A   1     -16.716   8.636  49.657  0.00  0.00    +0.296 C 
BRANCH  14  15
ATOM     15  C22 <0> A   1     -18.046   7.933  49.743  0.00  0.00    -0.088 A 
ATOM     16  C23 <0> A   1     -18.214   6.696  49.148  0.00  0.00    +0.037 A 
ATOM     17  C24 <0> A   1     -19.435   6.051  49.227  0.00  0.00    +0.001 A 
ATOM     18  C25 <0> A   1     -20.486   6.643  49.902  0.00  0.00    +0.002 A 
ATOM     19  C26 <0> A   1     -20.318   7.879  50.498  0.00  0.00    -0.000 A 
ATOM     20  C27 <0> A   1     -19.096   8.521  50.422  0.00  0.00    +0.011 A 
ENDBRANCH  14  15
BRANCH  14  21
ATOM     21  C21 <0> A   1     -15.978   8.497  50.990  0.00  0.00    +0.178 C 
BRANCH  21  22
ATOM     22  O6  <0> A   1     -15.042   9.567  51.131  0.00  0.00    -0.562 OA
ATOM     23  H32 <0> A   1     -14.503   9.516  51.933  0.00  0.00    +0.378 HD
ENDBRANCH  21  22
ENDBRANCH  14  21
ENDBRANCH  12  14
ENDBRANCH   2  10
BRANCH   1  25
ATOM     24  C1  <0> A   1     -11.500   9.247  46.584  0.00  0.00    +0.035 C 
ATOM     25  C2  <0> A   1     -12.970   9.640  46.423  0.00  0.00    +0.045 C 
ATOM     26  C3  <0> A   1     -13.081  10.810  45.443  0.00  0.00    +0.039 C 
ENDBRANCH   1  25
BRANCH   5  27
ATOM     27  C8  <0> A   1     -12.096   7.765  44.159  0.00  0.00    +0.290 C 
BRANCH  27  28
ATOM     28  C9  <0> A   1     -12.346   8.481  42.831  0.00  0.00    -0.017 C 
BRANCH  28  29
ATOM     29  C10 <0> A   1     -11.714   7.679  41.691  0.00  0.00    +0.216 C 
BRANCH  29  30
ATOM     30  O4  <0> A   1     -11.487   6.336  42.122  0.00  0.00    -0.541 OA
ATOM     31  H20 <0> A   1     -10.697   5.928  41.741  0.00  0.00    +0.366 HD
ENDBRANCH  29  30
BRANCH  29  32
ATOM     32  C11 <0> A   1     -12.656   7.675  40.485  0.00  0.00    -0.048 C 
BRANCH  32  33
ATOM     33  C12 <0> A   1     -12.558   9.017  39.757  0.00  0.00    +0.231 C 
BRANCH  33  34
ATOM     34  O3  <0> A   1     -12.231   8.792  38.385  0.00  0.00    -0.528 OA
ATOM     35  H19 <0> A   1     -13.000   8.752  37.799  0.00  0.00    +0.350 HD
ENDBRANCH  33  34
BRANCH  33  36
ATOM     36  C13 <0> A   1     -13.900   9.747  39.849  0.00  0.00    -0.102 C 
BRANCH  36  37
ATOM     37  C14 <0> A   1     -13.667  11.234  39.801  0.00  0.00    +0.490 C 
ATOM     38  O1  <0> A   1     -14.550  12.001  40.145  0.00  0.00    -0.681 OA
ATOM     39  O2  <0> A   1     -12.595  11.672  39.418  0.00  0.00    -0.713 OA
ENDBRANCH  36  37
ENDBRANCH  33  36
ENDBRANCH  32  33
ENDBRANCH  29  32
ENDBRANCH  28  29
ENDBRANCH  27  28
ENDBRANCH   5  27
TORSDOF 15
