REMARK VINA RESULT:      -8.4      1.322      2.218
REMARK  Name = CHEMBL249273
REMARK  18 active torsions:
REMARK  status: ('A' for Active; 'I' for Inactive)
REMARK    1  A    between atoms: C1_1  and  C2_2
REMARK    2  A    between atoms: C4_5  and  C5_8
REMARK    3  A    between atoms: C5_8  and  N3_9
REMARK    4  A    between atoms: C6_10  and  C7_12
REMARK    5  A    between atoms: C8_13  and  C27_40
REMARK    6  A    between atoms: C9_14  and  C21_33
REMARK    7  A    between atoms: C10_15  and  C14_20
REMARK    8  A    between atoms: N4_16  and  C11_17
REMARK    9  A    between atoms: C11_17  and  C12_18
REMARK   10  A    between atoms: C11_17  and  C13_19
REMARK   11  A    between atoms: C14_20  and  C15_21
REMARK   12  A    between atoms: C15_21  and  C16_22
REMARK   13  A    between atoms: C16_22  and  C17_24
REMARK   14  A    between atoms: C16_22  and  O5_32
REMARK   15  A    between atoms: C17_24  and  C18_25
REMARK   16  A    between atoms: C18_25  and  C19_27
REMARK   17  A    between atoms: C18_25  and  O4_31
REMARK   18  A    between atoms: C19_27  and  C20_28
REMARK                            x       y       z     vdW  Elec       q    Type
REMARK                         _______ _______ _______ _____ _____    ______ ____
ROOT
ATOM      1  C7  <0> A   1     -16.341   6.976  46.597  0.00  0.00    -0.057 C 
ATOM      2  C8  <0> A   1     -15.454   8.004  46.890  0.00  0.00    -0.041 C 
ATOM      3  C9  <0> A   1     -14.350   7.851  46.012  0.00  0.00    -0.116 C 
ATOM      4  C10 <0> A   1     -14.597   6.761  45.231  0.00  0.00    +0.087 C 
ATOM      5  N4  <0> A   1     -15.790   6.226  45.583  0.00  0.00    -0.404 N 
ENDROOT
BRANCH   3   6
ATOM      6  C21 <0> A   1     -13.149   8.720  45.953  0.00  0.00    -0.022 A 
ATOM      7  C22 <0> A   1     -11.991   8.358  46.638  0.00  0.00    +0.056 A 
ATOM      8  C23 <0> A   1     -10.876   9.169  46.579  0.00  0.00    -0.009 A 
ATOM      9  C24 <0> A   1     -10.907  10.342  45.841  0.00  0.00    +0.102 A 
ATOM     10  C25 <0> A   1     -12.057  10.705  45.159  0.00  0.00    -0.019 A 
ATOM     11  C26 <0> A   1     -13.174   9.897  45.207  0.00  0.00    +0.053 A 
ATOM     12  F1  <0> A   1      -9.814  11.133  45.787  0.00  0.00    -0.138 F 
ENDBRANCH   3   6
BRANCH   2  13
ATOM     13  C27 <0> A   1     -15.627   9.054  47.919  0.00  0.00    -0.017 A 
ATOM     14  C28 <0> A   1     -15.103   8.874  49.199  0.00  0.00    +0.034 A 
ATOM     15  C29 <0> A   1     -15.268   9.858  50.154  0.00  0.00    +0.014 A 
ATOM     16  C30 <0> A   1     -15.951  11.020  49.843  0.00  0.00    +0.006 A 
ATOM     17  C31 <0> A   1     -16.473  11.205  48.575  0.00  0.00    -0.004 A 
ATOM     18  C32 <0> A   1     -16.310  10.231  47.611  0.00  0.00    -0.005 A 
ENDBRANCH   2  13
BRANCH   1  20
ATOM     19  N3  <0> A   1     -17.660   6.244  48.510  0.00  0.00    -0.742 N 
ATOM     20  C6  <0> A   1     -17.627   6.731  47.253  0.00  0.00    +0.622 C 
ATOM     21  O1  <0> A   1     -18.665   6.966  46.664  0.00  0.00    -0.488 OA
ATOM     22  H10 <0> A   1     -16.836   5.988  48.953  0.00  0.00    +0.400 HD
BRANCH  19  23
ATOM     23  C5  <0> A   1     -18.942   6.100  49.206  0.00  0.00    +0.439 C 
BRANCH  23  28
ATOM     24  C1  <0> A   1     -21.625  10.051  50.891  0.00  0.00    +0.208 C 
ATOM     25  C2  <0> A   1     -20.485   9.122  50.562  0.00  0.00    +0.074 C 
ATOM     26  C3  <0> A   1     -19.182   9.322  50.837  0.00  0.00    +0.233 C 
ATOM     27  N1  <0> A   1     -18.494   8.264  50.382  0.00  0.00    -0.470 N 
ATOM     28  C4  <0> A   1     -19.321   7.416  49.835  0.00  0.00    +0.311 C 
ATOM     29  N2  <0> A   1     -20.574   7.910  49.933  0.00  0.00    -0.499 N 
ATOM     30  H1  <0> A   1     -21.386   7.486  49.612  0.00  0.00    +0.466 HD
ATOM     31  H37 <0> A   1     -17.533   8.148  50.449  0.00  0.00    +0.461 HD
ENDBRANCH  23  28
ENDBRANCH  19  23
ENDBRANCH   1  20
BRANCH   5  32
ATOM     32  C11 <0> A   1     -16.400   5.040  44.977  0.00  0.00    +0.233 C 
ATOM     33  C12 <0> A   1     -16.984   5.409  43.612  0.00  0.00    +0.036 C 
ATOM     34  C13 <0> A   1     -15.337   3.954  44.800  0.00  0.00    +0.048 C 
ENDBRANCH   5  32
BRANCH   4  35
ATOM     35  C14 <0> A   1     -13.683   6.233  44.156  0.00  0.00    +0.120 C 
BRANCH  35  36
ATOM     36  C15 <0> A   1     -13.807   7.109  42.907  0.00  0.00    -0.009 C 
BRANCH  36  37
ATOM     37  C16 <0> A   1     -12.412   7.390  42.342  0.00  0.00    +0.214 C 
BRANCH  37  38
ATOM     38  O5  <0> A   1     -11.673   6.169  42.270  0.00  0.00    -0.541 OA
ATOM     39  H27 <0> A   1     -11.146   6.075  41.466  0.00  0.00    +0.362 HD
ENDBRANCH  37  38
BRANCH  37  40
ATOM     40  C17 <0> A   1     -12.541   7.992  40.942  0.00  0.00    -0.051 C 
BRANCH  40  41
ATOM     41  C18 <0> A   1     -13.019   9.441  41.051  0.00  0.00    +0.231 C 
BRANCH  41  42
ATOM     42  O4  <0> A   1     -11.888  10.309  41.155  0.00  0.00    -0.528 OA
ATOM     43  H26 <0> A   1     -12.116  11.248  41.204  0.00  0.00    +0.349 HD
ENDBRANCH  41  42
BRANCH  41  44
ATOM     44  C19 <0> A   1     -13.829   9.807  39.806  0.00  0.00    -0.103 C 
BRANCH  44  45
ATOM     45  C20 <0> A   1     -13.910  11.306  39.681  0.00  0.00    +0.490 C 
ATOM     46  O2  <0> A   1     -14.558  11.951  40.488  0.00  0.00    -0.681 OA
ATOM     47  O3  <0> A   1     -13.328  11.874  38.773  0.00  0.00    -0.711 OA
ENDBRANCH  44  45
ENDBRANCH  41  44
ENDBRANCH  40  41
ENDBRANCH  37  40
ENDBRANCH  36  37
ENDBRANCH  35  36
ENDBRANCH   4  35
TORSDOF 15
