REMARK VINA RESULT:      -7.6     16.237     19.236
REMARK  Name = CHEMBL330753
REMARK  9 active torsions:
REMARK  status: ('A' for Active; 'I' for Inactive)
REMARK    1  A    between atoms: C1_1  and  C2_2
REMARK    2  A    between atoms: C2_2  and  C3_3
REMARK    3  A    between atoms: C2_2  and  C4_4
REMARK    4  A    between atoms: C6_6  and  C21_28
REMARK    5  A    between atoms: C7_7  and  C15_21
REMARK    6  A    between atoms: N1_8  and  C8_9
REMARK    7  A    between atoms: C8_9  and  C9_10
REMARK    8  A    between atoms: C9_10  and  C10_11
REMARK    9  A    between atoms: C12_14  and  O3_20
REMARK                            x       y       z     vdW  Elec       q    Type
REMARK                         _______ _______ _______ _____ _____    ______ ____
ROOT
ATOM      1  C4  <0> A   1     -27.831  -4.844  50.979  0.00  0.00    +0.037 C 
ATOM      2  C5  <0> A   1     -28.492  -3.684  50.809  0.00  0.00    -0.025 C 
ATOM      3  C6  <0> A   1     -27.585  -2.630  51.075  0.00  0.00    -0.118 C 
ATOM      4  C7  <0> A   1     -26.375  -3.219  51.405  0.00  0.00    +0.098 C 
ATOM      5  N1  <0> A   1     -26.546  -4.575  51.347  0.00  0.00    -0.428 N 
ENDROOT
BRANCH   4   6
ATOM      6  C15 <0> A   1     -25.129  -2.510  51.759  0.00  0.00    -0.032 A 
ATOM      7  C16 <0> A   1     -24.951  -2.007  53.050  0.00  0.00    +0.040 A 
ATOM      8  C17 <0> A   1     -23.786  -1.346  53.376  0.00  0.00    -0.027 A 
ATOM      9  C18 <0> A   1     -22.791  -1.180  52.425  0.00  0.00    +0.106 A 
ATOM     10  C19 <0> A   1     -22.962  -1.676  51.142  0.00  0.00    -0.028 A 
ATOM     11  C20 <0> A   1     -24.121  -2.344  50.807  0.00  0.00    +0.130 A 
ATOM     12  F1  <0> A   1     -21.652  -0.531  52.749  0.00  0.00    -0.141 F 
ENDBRANCH   4   6
BRANCH   3  13
ATOM     13  C21 <0> A   1     -27.873  -1.179  51.011  0.00  0.00    +0.211 A 
ATOM     14  C22 <0> A   1     -27.145  -0.368  50.140  0.00  0.00    -0.032 A 
ATOM     15  C23 <0> A   1     -27.426   0.986  50.092  0.00  0.00    +0.063 A 
ATOM     16  C24 <0> A   1     -28.427   1.486  50.915  0.00  0.00    -0.055 A 
ATOM     17  C25 <0> A   1     -29.109   0.624  51.753  0.00  0.00    +0.257 A 
ATOM     18  N2  <0> A   1     -28.826  -0.662  51.777  0.00  0.00    -0.482 NA
ENDBRANCH   3  13
BRANCH   1  20
ATOM     19  C1  <0> A   1     -29.707  -6.336  51.619  0.00  0.00    +0.040 C 
ATOM     20  C2  <0> A   1     -28.420  -6.220  50.800  0.00  0.00    +0.048 C 
ATOM     21  C3  <0> A   1     -28.734  -6.452  49.320  0.00  0.00    +0.032 C 
ENDBRANCH   1  20
BRANCH   5  22
ATOM     22  C8  <0> A   1     -25.513  -5.575  51.628  0.00  0.00    +0.292 C 
BRANCH  22  23
ATOM     23  C9  <0> A   1     -24.674  -5.811  50.372  0.00  0.00    +0.053 C 
BRANCH  23  24
ATOM     24  C10 <0> A   1     -25.074  -7.142  49.733  0.00  0.00    +0.203 C 
ATOM     25  C11 <0> A   1     -25.109  -8.234  50.805  0.00  0.00    +0.045 C 
ATOM     26  C12 <0> A   1     -25.470  -9.574  50.155  0.00  0.00    +0.186 C 
ATOM     27  C13 <0> A   1     -24.418  -9.907  49.089  0.00  0.00    +0.024 C 
ATOM     28  C14 <0> A   1     -24.279  -8.715  48.168  0.00  0.00    +0.497 C 
ATOM     29  O1  <0> A   1     -24.310  -8.849  46.968  0.00  0.00    -0.450 OA
ATOM     30  O2  <0> A   1     -24.118  -7.496  48.727  0.00  0.00    -0.370 OA
BRANCH  26  31
ATOM     31  O3  <0> A   1     -26.759  -9.477  49.545  0.00  0.00    -0.563 OA
ATOM     32  H19 <0> A   1     -27.412  -9.005  50.078  0.00  0.00    +0.388 HD
ENDBRANCH  26  31
ENDBRANCH  23  24
ENDBRANCH  22  23
ENDBRANCH   5  22
TORSDOF 7
