REMARK VINA RESULT:      -8.5      0.000      0.000
REMARK  Name = CHEMBL488821
REMARK  16 active torsions:
REMARK  status: ('A' for Active; 'I' for Inactive)
REMARK    1  A    between atoms: C1_1  and  C2_2
REMARK    2  A    between atoms: C4_5  and  C6_8
REMARK    3  A    between atoms: C6_8  and  N3_9
REMARK    4  A    between atoms: C7_10  and  C8_12
REMARK    5  A    between atoms: C9_13  and  C26_38
REMARK    6  A    between atoms: C10_14  and  C20_31
REMARK    7  A    between atoms: C11_15  and  C13_18
REMARK    8  A    between atoms: N4_16  and  C12_17
REMARK    9  A    between atoms: C13_18  and  C14_19
REMARK   10  A    between atoms: C14_19  and  C15_20
REMARK   11  A    between atoms: C15_20  and  C16_22
REMARK   12  A    between atoms: C15_20  and  O5_30
REMARK   13  A    between atoms: C16_22  and  C17_23
REMARK   14  A    between atoms: C17_23  and  C18_25
REMARK   15  A    between atoms: C17_23  and  O4_29
REMARK   16  A    between atoms: C18_25  and  C19_26
REMARK                            x       y       z     vdW  Elec       q    Type
REMARK                         _______ _______ _______ _____ _____    ______ ____
ROOT
ATOM      1  C8  <0> A   1     -16.561   6.870  46.170  0.00  0.00    -0.035 C 
ATOM      2  C9  <0> A   1     -15.649   7.848  46.547  0.00  0.00    -0.055 C 
ATOM      3  C10 <0> A   1     -14.501   7.670  45.733  0.00  0.00    -0.121 C 
ATOM      4  C11 <0> A   1     -14.746   6.614  44.906  0.00  0.00    +0.073 C 
ATOM      5  N4  <0> A   1     -15.981   6.125  45.168  0.00  0.00    -0.411 N 
ATOM      6  C12 <0> A   1     -16.604   4.985  44.490  0.00  0.00    +0.326 C 
ENDROOT
BRANCH   3   7
ATOM      7  C20 <0> A   1     -13.262   8.484  45.774  0.00  0.00    -0.011 A 
ATOM      8  C21 <0> A   1     -13.192   9.686  45.074  0.00  0.00    +0.053 A 
ATOM      9  C22 <0> A   1     -12.037  10.440  45.114  0.00  0.00    -0.013 A 
ATOM     10  C23 <0> A   1     -10.948  10.002  45.850  0.00  0.00    +0.096 A 
ATOM     11  C24 <0> A   1     -11.013   8.808  46.548  0.00  0.00    -0.020 A 
ATOM     12  C25 <0> A   1     -12.166   8.050  46.517  0.00  0.00    +0.055 A 
ATOM     13  F1  <0> A   1      -9.818  10.743  45.887  0.00  0.00    -0.142 F 
ENDBRANCH   3   7
BRANCH   2  14
ATOM     14  C26 <0> A   1     -15.839   8.876  47.595  0.00  0.00    -0.011 A 
ATOM     15  C27 <0> A   1     -16.282  10.154  47.251  0.00  0.00    +0.028 A 
ATOM     16  C28 <0> A   1     -16.457  11.107  48.232  0.00  0.00    +0.004 A 
ATOM     17  C29 <0> A   1     -16.195  10.799  49.556  0.00  0.00    -0.001 A 
ATOM     18  C30 <0> A   1     -15.755   9.534  49.903  0.00  0.00    -0.000 A 
ATOM     19  C31 <0> A   1     -15.582   8.570  48.932  0.00  0.00    +0.007 A 
ENDBRANCH   2  14
BRANCH   1  21
ATOM     20  N3  <0> A   1     -18.036   6.001  47.903  0.00  0.00    -0.716 N 
ATOM     21  C7  <0> A   1     -17.895   6.665  46.738  0.00  0.00    +0.602 C 
ATOM     22  O1  <0> A   1     -18.875   7.095  46.159  0.00  0.00    -0.514 OA
ATOM     23  H10 <0> A   1     -17.264   5.592  48.325  0.00  0.00    +0.404 HD
BRANCH  20  24
ATOM     24  C6  <0> A   1     -19.355   5.897  48.531  0.00  0.00    +0.363 C 
BRANCH  24  29
ATOM     25  C1  <0> A   1     -19.774   9.805  52.643  0.00  0.00    +0.146 C 
ATOM     26  C2  <0> A   1     -19.651   8.764  51.560  0.00  0.00    +0.088 A 
ATOM     27  C3  <0> A   1     -20.625   8.666  50.581  0.00  0.00    +0.226 A 
ATOM     28  N1  <0> A   1     -20.516   7.754  49.631  0.00  0.00    -0.418 NA
ATOM     29  C4  <0> A   1     -19.479   6.937  49.615  0.00  0.00    +0.046 A 
ATOM     30  C5  <0> A   1     -18.505   7.035  50.592  0.00  0.00    +0.252 A 
ATOM     31  N2  <0> A   1     -18.611   7.950  51.540  0.00  0.00    -0.438 NA
ENDBRANCH  24  29
ENDBRANCH  20  24
ENDBRANCH   1  21
BRANCH   4  32
ATOM     32  C13 <0> A   1     -13.793   6.075  43.872  0.00  0.00    +0.120 C 
BRANCH  32  33
ATOM     33  C14 <0> A   1     -13.781   7.003  42.655  0.00  0.00    -0.009 C 
BRANCH  33  34
ATOM     34  C15 <0> A   1     -12.335   7.286  42.245  0.00  0.00    +0.213 C 
BRANCH  34  35
ATOM     35  O5  <0> A   1     -11.627   6.052  42.108  0.00  0.00    -0.542 OA
ATOM     36  H23 <0> A   1     -12.157   5.271  42.317  0.00  0.00    +0.363 HD
ENDBRANCH  34  35
BRANCH  34  37
ATOM     37  C16 <0> A   1     -12.321   8.032  40.909  0.00  0.00    -0.051 C 
BRANCH  37  38
ATOM     38  C17 <0> A   1     -12.924   9.426  41.097  0.00  0.00    +0.230 C 
BRANCH  38  39
ATOM     39  O4  <0> A   1     -11.873  10.388  41.214  0.00  0.00    -0.528 OA
ATOM     40  H22 <0> A   1     -11.415  10.369  42.065  0.00  0.00    +0.349 HD
ENDBRANCH  38  39
BRANCH  38  41
ATOM     41  C18 <0> A   1     -13.799   9.771  39.890  0.00  0.00    -0.103 C 
BRANCH  41  42
ATOM     42  C19 <0> A   1     -13.750  11.257  39.642  0.00  0.00    +0.490 C 
ATOM     43  O2  <0> A   1     -12.967  11.712  38.825  0.00  0.00    -0.681 OA
ATOM     44  O3  <0> A   1     -14.491  12.003  40.258  0.00  0.00    -0.713 OA
ENDBRANCH  41  42
ENDBRANCH  38  41
ENDBRANCH  37  38
ENDBRANCH  34  37
ENDBRANCH  33  34
ENDBRANCH  32  33
ENDBRANCH   4  32
TORSDOF 14
