REMARK VINA RESULT:      -7.3      2.502      4.381
REMARK  Name = CHEMBL101512
REMARK  10 active torsions:
REMARK  status: ('A' for Active; 'I' for Inactive)
REMARK    1  A    between atoms: C5_5  and  O1_15
REMARK    2  A    between atoms: C6_6  and  C7_7
REMARK    3  A    between atoms: O1_15  and  C14_16
REMARK    4  A    between atoms: C14_16  and  C15_17
REMARK    5  A    between atoms: C15_17  and  C16_18
REMARK    6  A    between atoms: C15_17  and  O5_26
REMARK    7  A    between atoms: C16_18  and  C17_19
REMARK    8  A    between atoms: C17_19  and  C18_21
REMARK    9  A    between atoms: C17_19  and  O4_25
REMARK   10  A    between atoms: C18_21  and  C19_22
REMARK                            x       y       z     vdW  Elec       q    Type
REMARK                         _______ _______ _______ _____ _____    ______ ____
ROOT
ATOM      1  C1  <0> A   1     -12.928   7.506  47.452  0.00  0.00    +0.083 A 
ATOM      2  C2  <0> A   1     -13.099   6.181  47.803  0.00  0.00    -0.036 A 
ATOM      3  C3  <0> A   1     -13.503   5.255  46.856  0.00  0.00    +0.071 A 
ATOM      4  C4  <0> A   1     -13.737   5.648  45.551  0.00  0.00    -0.052 A 
ATOM      5  C5  <0> A   1     -13.568   6.974  45.184  0.00  0.00    +0.141 A 
ATOM      6  C6  <0> A   1     -13.161   7.913  46.138  0.00  0.00    -0.068 A 
ATOM      7 Cl1  <0> A   1     -14.241   4.480  44.371  0.00  0.00    -0.034 Cl
ATOM      8 Cl2  <0> A   1     -12.808   5.676  49.438  0.00  0.00    -0.050 Cl
ENDROOT
BRANCH   6   9
ATOM      9  C7  <0> A   1     -12.980   9.330  45.757  0.00  0.00    +0.082 C 
ATOM     10  C8  <0> A   1     -13.956  10.206  45.968  0.00  0.00    -0.127 C 
ATOM     11  C9  <0> A   1     -15.203   9.808  46.728  0.00  0.00    +0.074 C 
ATOM     12  C10 <0> A   1     -15.442  10.834  47.842  0.00  0.00    +0.018 C 
ATOM     13  C11 <0> A   1     -15.493  12.238  47.238  0.00  0.00    +0.006 C 
ATOM     14  C12 <0> A   1     -14.139  12.584  46.617  0.00  0.00    +0.018 C 
ATOM     15  C13 <0> A   1     -13.848  11.627  45.462  0.00  0.00    +0.073 C 
ATOM     16  F1  <0> A   1     -11.820   9.735  45.194  0.00  0.00    -0.131 F 
ENDBRANCH   6   9
BRANCH   5  17
ATOM     17  O1  <0> A   1     -13.798   7.361  43.902  0.00  0.00    -0.307 OA
BRANCH  17  18
ATOM     18  C14 <0> A   1     -12.807   7.017  42.933  0.00  0.00    +0.160 C 
BRANCH  18  19
ATOM     19  C15 <0> A   1     -12.393   8.270  42.157  0.00  0.00    +0.229 C 
BRANCH  19  20
ATOM     20  O5  <0> A   1     -12.125   7.922  40.798  0.00  0.00    -0.530 OA
ATOM     21  H22 <0> A   1     -11.570   7.137  40.694  0.00  0.00    +0.364 HD
ENDBRANCH  19  20
BRANCH  19  22
ATOM     22  C16 <0> A   1     -13.525   9.298  42.207  0.00  0.00    -0.040 C 
BRANCH  22  23
ATOM     23  C17 <0> A   1     -13.003  10.655  41.732  0.00  0.00    +0.235 C 
BRANCH  23  24
ATOM     24  O4  <0> A   1     -11.619  10.541  41.396  0.00  0.00    -0.527 OA
ATOM     25  H21 <0> A   1     -11.445  10.527  40.445  0.00  0.00    +0.351 HD
ENDBRANCH  23  24
BRANCH  23  26
ATOM     26  C18 <0> A   1     -13.792  11.102  40.500  0.00  0.00    -0.100 C 
BRANCH  26  27
ATOM     27  C19 <0> A   1     -12.890  11.089  39.293  0.00  0.00    +0.491 C 
ATOM     28  O2  <0> A   1     -12.585  10.030  38.771  0.00  0.00    -0.680 OA
ATOM     29  O3  <0> A   1     -12.465  12.138  38.838  0.00  0.00    -0.713 OA
ENDBRANCH  26  27
ENDBRANCH  23  26
ENDBRANCH  22  23
ENDBRANCH  19  22
ENDBRANCH  18  19
ENDBRANCH  17  18
ENDBRANCH   5  17
TORSDOF 10
