REMARK VINA RESULT:      -8.1     16.461     19.279
REMARK  Name = CHEMBL340139
REMARK  9 active torsions:
REMARK  status: ('A' for Active; 'I' for Inactive)
REMARK    1  A    between atoms: C1_1  and  C2_2
REMARK    2  A    between atoms: C2_2  and  C3_3
REMARK    3  A    between atoms: C2_2  and  C4_4
REMARK    4  A    between atoms: C5_5  and  C23_26
REMARK    5  A    between atoms: C6_6  and  C17_19
REMARK    6  A    between atoms: N1_7  and  C7_9
REMARK    7  A    between atoms: C23_26  and  C24_27
REMARK    8  A    between atoms: C24_27  and  C25_28
REMARK    9  A    between atoms: C27_31  and  O3_37
REMARK                            x       y       z     vdW  Elec       q    Type
REMARK                         _______ _______ _______ _____ _____    ______ ____
ROOT
ATOM      1  C4  <0> A   1     -27.679  -4.939  50.968  0.00  0.00    +0.094 C 
ATOM      2  C5  <0> A   1     -26.334  -4.787  51.300  0.00  0.00    -0.200 C 
ATOM      3  C6  <0> A   1     -26.074  -3.448  51.394  0.00  0.00    +0.131 C 
ATOM      4  N1  <0> A   1     -27.239  -2.789  51.123  0.00  0.00    -0.319 N 
ATOM      5  N2  <0> A   1     -28.221  -3.752  50.857  0.00  0.00    -0.269 NA
ENDROOT
BRANCH   4   6
ATOM      6  C7  <0> A   1     -27.419  -1.403  51.111  0.00  0.00    +0.160 A 
ATOM      7  C8  <0> A   1     -27.068  -0.666  50.001  0.00  0.00    +0.020 A 
ATOM      8  C9  <0> A   1     -27.242   0.715  49.979  0.00  0.00    +0.031 A 
ATOM      9  C10 <0> A   1     -27.763   1.375  51.050  0.00  0.00    +0.036 A 
ATOM     10  C11 <0> A   1     -28.135   0.660  52.201  0.00  0.00    -0.040 A 
ATOM     11  C12 <0> A   1     -27.967  -0.747  52.233  0.00  0.00    -0.044 A 
ATOM     12  C13 <0> A   1     -28.343  -1.459  53.382  0.00  0.00    +0.039 A 
ATOM     13  C14 <0> A   1     -28.869  -0.793  54.448  0.00  0.00    +0.010 A 
ATOM     14  C15 <0> A   1     -29.040   0.589  54.415  0.00  0.00    +0.018 A 
ATOM     15  C16 <0> A   1     -28.676   1.315  53.322  0.00  0.00    +0.023 A 
ENDBRANCH   4   6
BRANCH   3  16
ATOM     16  C17 <0> A   1     -24.773  -2.829  51.726  0.00  0.00    -0.047 A 
ATOM     17  C18 <0> A   1     -23.731  -2.846  50.796  0.00  0.00    +0.082 A 
ATOM     18  C19 <0> A   1     -22.520  -2.267  51.110  0.00  0.00    -0.006 A 
ATOM     19  C20 <0> A   1     -22.336  -1.668  52.347  0.00  0.00    +0.113 A 
ATOM     20  C21 <0> A   1     -23.366  -1.649  53.273  0.00  0.00    -0.011 A 
ATOM     21  C22 <0> A   1     -24.583  -2.220  52.967  0.00  0.00    +0.065 A 
ATOM     22  F1  <0> A   1     -21.147  -1.102  52.650  0.00  0.00    -0.136 F 
ENDBRANCH   3  16
BRANCH   1  24
ATOM     23  C1  <0> A   1     -29.708  -6.244  51.543  0.00  0.00    +0.035 C 
ATOM     24  C2  <0> A   1     -28.392  -6.252  50.764  0.00  0.00    +0.075 C 
ATOM     25  C3  <0> A   1     -28.682  -6.449  49.275  0.00  0.00    +0.035 C 
ENDBRANCH   1  24
BRANCH   2  26
ATOM     26  C23 <0> A   1     -25.342  -5.901  51.518  0.00  0.00    +0.112 C 
BRANCH  26  27
ATOM     27  C24 <0> A   1     -24.611  -6.196  50.207  0.00  0.00    +0.055 C 
BRANCH  27  28
ATOM     28  C25 <0> A   1     -25.161  -7.486  49.595  0.00  0.00    +0.197 C 
ATOM     29  C26 <0> A   1     -24.049  -8.199  48.821  0.00  0.00    +0.040 C 
ATOM     30  C27 <0> A   1     -24.592  -9.510  48.244  0.00  0.00    +0.183 C 
ATOM     31  C28 <0> A   1     -25.085 -10.393  49.398  0.00  0.00    +0.020 C 
ATOM     32  C29 <0> A   1     -26.032  -9.575  50.250  0.00  0.00    +0.496 C 
ATOM     33  O1  <0> A   1     -27.112 -10.012  50.572  0.00  0.00    -0.453 OA
ATOM     34  O2  <0> A   1     -25.637  -8.345  50.638  0.00  0.00    -0.365 OA
BRANCH  30  35
ATOM     35  O3  <0> A   1     -25.677  -9.229  47.355  0.00  0.00    -0.563 OA
ATOM     36  H29 <0> A   1     -25.420  -8.731  46.567  0.00  0.00    +0.386 HD
ENDBRANCH  30  35
ENDBRANCH  27  28
ENDBRANCH  26  27
ENDBRANCH   2  26
TORSDOF 7
