REMARK VINA RESULT:      -8.4      0.177      1.017
REMARK  Name = CHEMBL143347
REMARK  12 active torsions:
REMARK  status: ('A' for Active; 'I' for Inactive)
REMARK    1  A    between atoms: C1_1  and  C2_2
REMARK    2  A    between atoms: C2_2  and  C3_3
REMARK    3  A    between atoms: C2_2  and  C4_4
REMARK    4  A    between atoms: C5_5  and  C19_22
REMARK    5  A    between atoms: C6_6  and  C13_15
REMARK    6  A    between atoms: C20_23  and  C21_24
REMARK    7  A    between atoms: C21_24  and  C22_25
REMARK    8  A    between atoms: C21_24  and  O4_33
REMARK    9  A    between atoms: C22_25  and  C23_26
REMARK   10  A    between atoms: C23_26  and  C24_28
REMARK   11  A    between atoms: C23_26  and  O3_32
REMARK   12  A    between atoms: C24_28  and  C25_29
REMARK                            x       y       z     vdW  Elec       q    Type
REMARK                         _______ _______ _______ _____ _____    ______ ____
ROOT
ATOM      1  C4  <0> A   1     -14.946   6.325  45.466  0.00  0.00    +0.189 A 
ATOM      2  C5  <0> A   1     -14.214   7.516  45.333  0.00  0.00    -0.076 A 
ATOM      3  C6  <0> A   1     -14.484   8.587  46.195  0.00  0.00    +0.019 A 
ATOM      4  C7  <0> A   1     -15.496   8.408  47.172  0.00  0.00    -0.082 A 
ATOM      5  C8  <0> A   1     -15.825   9.430  48.072  0.00  0.00    +0.058 A 
ATOM      6  C9  <0> A   1     -16.805   9.223  48.998  0.00  0.00    -0.033 A 
ATOM      7  C10 <0> A   1     -17.481   8.005  49.060  0.00  0.00    +0.042 A 
ATOM      8  C11 <0> A   1     -17.184   6.993  48.201  0.00  0.00    +0.070 A 
ATOM      9  C12 <0> A   1     -16.182   7.170  47.232  0.00  0.00    +0.134 A 
ATOM     10  N1  <0> A   1     -15.878   6.189  46.373  0.00  0.00    -0.465 NA
ATOM     11 Cl1  <0> A   1     -17.213  10.490  50.113  0.00  0.00    -0.066 Cl
ENDROOT
BRANCH   3  12
ATOM     12  C13 <0> A   1     -13.739   9.860  46.091  0.00  0.00    -0.064 A 
ATOM     13  C14 <0> A   1     -12.575  10.053  46.838  0.00  0.00    +0.073 A 
ATOM     14  C15 <0> A   1     -11.884  11.241  46.737  0.00  0.00    -0.006 A 
ATOM     15  C16 <0> A   1     -12.343  12.244  45.896  0.00  0.00    +0.110 A 
ATOM     16  C17 <0> A   1     -13.498  12.058  45.154  0.00  0.00    -0.011 A 
ATOM     17  C18 <0> A   1     -14.194  10.870  45.242  0.00  0.00    +0.062 A 
ATOM     18  F1  <0> A   1     -11.662  13.407  45.801  0.00  0.00    -0.136 F 
ENDBRANCH   3  12
BRANCH   1  20
ATOM     19  C1  <0> A   1     -14.135   3.985  45.345  0.00  0.00    +0.041 C 
ATOM     20  C2  <0> A   1     -14.652   5.176  44.536  0.00  0.00    +0.039 C 
ATOM     21  C3  <0> A   1     -15.934   4.776  43.800  0.00  0.00    +0.040 C 
ENDBRANCH   1  20
BRANCH   2  22
ATOM     22  C19 <0> A   1     -13.173   7.639  44.294  0.00  0.00    +0.010 C 
ATOM     23  C20 <0> A   1     -13.511   7.637  43.011  0.00  0.00    -0.037 C 
BRANCH  23  24
ATOM     24  C21 <0> A   1     -12.448   7.763  41.951  0.00  0.00    +0.252 C 
BRANCH  24  25
ATOM     25  O4  <0> A   1     -11.670   6.564  41.911  0.00  0.00    -0.536 OA
ATOM     26  H24 <0> A   1     -10.719   6.709  42.009  0.00  0.00    +0.366 HD
ENDBRANCH  24  25
BRANCH  24  27
ATOM     27  C22 <0> A   1     -13.110   7.986  40.589  0.00  0.00    -0.041 C 
BRANCH  27  28
ATOM     28  C23 <0> A   1     -12.545   9.257  39.951  0.00  0.00    +0.232 C 
BRANCH  28  29
ATOM     29  O3  <0> A   1     -12.867   9.273  38.558  0.00  0.00    -0.527 OA
ATOM     30  H23 <0> A   1     -13.813   9.219  38.372  0.00  0.00    +0.350 HD
ENDBRANCH  28  29
BRANCH  28  31
ATOM     31  C24 <0> A   1     -13.159  10.484  40.629  0.00  0.00    -0.102 C 
BRANCH  31  32
ATOM     32  C25 <0> A   1     -13.947  11.276  39.618  0.00  0.00    +0.490 C 
ATOM     33  O1  <0> A   1     -13.370  12.018  38.842  0.00  0.00    -0.681 OA
ATOM     34  O2  <0> A   1     -15.161  11.173  39.576  0.00  0.00    -0.713 OA
ENDBRANCH  31  32
ENDBRANCH  28  31
ENDBRANCH  27  28
ENDBRANCH  24  27
ENDBRANCH  23  24
ENDBRANCH   2  22
TORSDOF 10
