REMARK VINA RESULT:      -7.4      3.337      6.212
REMARK  Name = CHEMBL159951
REMARK  14 active torsions:
REMARK  status: ('A' for Active; 'I' for Inactive)
REMARK    1  A    between atoms: C1_1  and  C2_2
REMARK    2  A    between atoms: C2_2  and  C3_3
REMARK    3  A    between atoms: C2_2  and  C4_4
REMARK    4  A    between atoms: C5_5  and  C20_22
REMARK    5  A    between atoms: C6_6  and  C14_15
REMARK    6  A    between atoms: N1_8  and  C8_9
REMARK    7  A    between atoms: C20_22  and  C21_23
REMARK    8  A    between atoms: C21_23  and  C22_24
REMARK    9  A    between atoms: C22_24  and  C23_26
REMARK   10  A    between atoms: C22_24  and  O4_34
REMARK   11  A    between atoms: C23_26  and  C24_27
REMARK   12  A    between atoms: C24_27  and  C25_29
REMARK   13  A    between atoms: C24_27  and  O3_33
REMARK   14  A    between atoms: C25_29  and  C26_30
REMARK                            x       y       z     vdW  Elec       q    Type
REMARK                         _______ _______ _______ _____ _____    ______ ____
ROOT
ATOM      1  C4  <0> A   1     -12.608   8.338  45.631  0.00  0.00    +0.030 C 
ATOM      2  C5  <0> A   1     -12.863   8.352  44.309  0.00  0.00    -0.135 C 
ATOM      3  C6  <0> A   1     -12.958   9.710  43.912  0.00  0.00    -0.132 C 
ATOM      4  C7  <0> A   1     -12.754  10.467  45.023  0.00  0.00    +0.164 C 
ATOM      5  N1  <0> A   1     -12.546   9.627  46.074  0.00  0.00    -0.431 N 
ENDROOT
BRANCH   3   6
ATOM      6  C14 <0> A   1     -13.228  10.211  42.541  0.00  0.00    -0.005 A 
ATOM      7  C15 <0> A   1     -12.393   9.849  41.486  0.00  0.00    +0.052 A 
ATOM      8  C16 <0> A   1     -12.648  10.317  40.214  0.00  0.00    -0.015 A 
ATOM      9  C17 <0> A   1     -13.733  11.146  39.983  0.00  0.00    +0.088 A 
ATOM     10  C18 <0> A   1     -14.566  11.509  41.029  0.00  0.00    -0.019 A 
ATOM     11  C19 <0> A   1     -14.322  11.041  42.303  0.00  0.00    +0.040 A 
ATOM     12  F1  <0> A   1     -13.979  11.602  38.736  0.00  0.00    -0.143 F 
ENDBRANCH   3   6
BRANCH   5  13
ATOM     13  C8  <0> A   1     -12.293  10.040  47.457  0.00  0.00    +0.236 C 
ATOM     14  C9  <0> A   1     -13.482  10.853  47.973  0.00  0.00    +0.012 C 
ATOM     15  C10 <0> A   1     -13.218  11.284  49.416  0.00  0.00    +0.017 C 
ATOM     16  C11 <0> A   1     -11.952  12.142  49.469  0.00  0.00    +0.007 C 
ATOM     17  C12 <0> A   1     -10.763  11.329  48.954  0.00  0.00    +0.017 C 
ATOM     18  C13 <0> A   1     -11.027  10.898  47.510  0.00  0.00    +0.012 C 
ENDBRANCH   5  13
BRANCH   1  20
ATOM     19  C1  <0> A   1     -11.003   7.075  47.037  0.00  0.00    +0.020 C 
ATOM     20  C2  <0> A   1     -12.428   7.106  46.479  0.00  0.00    +0.068 C 
ATOM     21  C3  <0> A   1     -13.429   7.132  47.636  0.00  0.00    +0.020 C 
ENDBRANCH   1  20
BRANCH   2  22
ATOM     22  C20 <0> A   1     -13.018   7.148  43.416  0.00  0.00    +0.094 C 
BRANCH  22  23
ATOM     23  C21 <0> A   1     -14.504   6.829  43.245  0.00  0.00    -0.014 C 
BRANCH  23  24
ATOM     24  C22 <0> A   1     -14.738   5.339  43.508  0.00  0.00    +0.207 C 
BRANCH  24  25
ATOM     25  O4  <0> A   1     -13.522   4.620  43.293  0.00  0.00    -0.542 OA
ATOM     26  H35 <0> A   1     -12.734   5.179  43.265  0.00  0.00    +0.362 HD
ENDBRANCH  24  25
BRANCH  24  27
ATOM     27  C23 <0> A   1     -15.196   5.144  44.955  0.00  0.00    -0.054 C 
BRANCH  27  28
ATOM     28  C24 <0> A   1     -16.412   6.031  45.230  0.00  0.00    +0.229 C 
BRANCH  28  29
ATOM     29  O3  <0> A   1     -17.503   5.609  44.408  0.00  0.00    -0.528 OA
ATOM     30  H34 <0> A   1     -18.233   5.206  44.899  0.00  0.00    +0.349 HD
ENDBRANCH  28  29
BRANCH  28  31
ATOM     31  C25 <0> A   1     -16.807   5.913  46.703  0.00  0.00    -0.104 C 
BRANCH  31  32
ATOM     32  C26 <0> A   1     -17.827   6.972  47.035  0.00  0.00    +0.490 C 
ATOM     33  O1  <0> A   1     -17.614   7.761  47.940  0.00  0.00    -0.681 OA
ATOM     34  O2  <0> A   1     -18.865   7.039  46.400  0.00  0.00    -0.714 OA
ENDBRANCH  31  32
ENDBRANCH  28  31
ENDBRANCH  27  28
ENDBRANCH  24  27
ENDBRANCH  23  24
ENDBRANCH  22  23
ENDBRANCH   2  22
TORSDOF 12
