REMARK VINA RESULT:      -8.4      0.000      0.000
REMARK  Name = CHEMBL520068
REMARK  16 active torsions:
REMARK  status: ('A' for Active; 'I' for Inactive)
REMARK    1  A    between atoms: C1_1  and  C2_2
REMARK    2  A    between atoms: C2_2  and  C3_3
REMARK    3  A    between atoms: C2_2  and  N1_4
REMARK    4  A    between atoms: C4_5  and  C21_27
REMARK    5  A    between atoms: C5_6  and  C15_20
REMARK    6  A    between atoms: C6_8  and  C7_9
REMARK    7  A    between atoms: N3_11  and  C8_12
REMARK    8  A    between atoms: C8_12  and  C9_13
REMARK    9  A    between atoms: C21_27  and  C22_28
REMARK   10  A    between atoms: C22_28  and  C23_29
REMARK   11  A    between atoms: C23_29  and  C24_31
REMARK   12  A    between atoms: C23_29  and  O5_39
REMARK   13  A    between atoms: C24_31  and  C25_32
REMARK   14  A    between atoms: C25_32  and  C26_34
REMARK   15  A    between atoms: C25_32  and  O4_38
REMARK   16  A    between atoms: C26_34  and  C27_35
REMARK                            x       y       z     vdW  Elec       q    Type
REMARK                         _______ _______ _______ _____ _____    ______ ____
ROOT
ATOM      1  N1  <0> A   1     -15.929   6.693  46.149  0.00  0.00    -0.397 N 
ATOM      2  C4  <0> A   1     -14.826   7.461  45.997  0.00  0.00    +0.047 C 
ATOM      3  C5  <0> A   1     -15.133   8.703  46.478  0.00  0.00    +0.034 C 
ATOM      4  N2  <0> A   1     -16.398   8.678  46.912  0.00  0.00    -0.428 NA
ATOM      5  C6  <0> A   1     -16.895   7.477  46.715  0.00  0.00    +0.131 C 
ENDROOT
BRANCH   3   6
ATOM      6  C15 <0> A   1     -14.221   9.874  46.515  0.00  0.00    -0.007 A 
ATOM      7  C16 <0> A   1     -13.380  10.070  47.607  0.00  0.00    +0.068 A 
ATOM      8  C17 <0> A   1     -12.535  11.160  47.638  0.00  0.00    -0.016 A 
ATOM      9  C18 <0> A   1     -12.522  12.060  46.584  0.00  0.00    +0.100 A 
ATOM     10  C19 <0> A   1     -13.357  11.869  45.495  0.00  0.00    -0.009 A 
ATOM     11  C20 <0> A   1     -14.202  10.778  45.454  0.00  0.00    +0.055 A 
ATOM     12  F2  <0> A   1     -11.693  13.126  46.618  0.00  0.00    -0.140 F 
ENDBRANCH   3   6
BRANCH   5  13
ATOM     13  C7  <0> A   1     -18.265   7.045  47.053  0.00  0.00    +0.615 C 
ATOM     14  O1  <0> A   1     -19.119   7.005  46.190  0.00  0.00    -0.537 OA
ATOM     15  N3  <0> A   1     -18.566   6.695  48.319  0.00  0.00    -0.704 N 
ATOM     16  H10 <0> A   1     -17.884   6.727  49.008  0.00  0.00    +0.415 HD
BRANCH  15  17
ATOM     17  C8  <0> A   1     -19.926   6.266  48.655  0.00  0.00    +0.333 C 
BRANCH  17  18
ATOM     18  C9  <0> A   1     -19.870   4.968  49.420  0.00  0.00    -0.082 A 
ATOM     19  C10 <0> A   1     -18.656   4.479  49.864  0.00  0.00    +0.025 A 
ATOM     20  C11 <0> A   1     -18.604   3.290  50.566  0.00  0.00    +0.046 A 
ATOM     21  C12 <0> A   1     -19.767   2.588  50.825  0.00  0.00    -0.007 A 
ATOM     22  C13 <0> A   1     -20.982   3.077  50.381  0.00  0.00    +0.098 A 
ATOM     23  C14 <0> A   1     -21.035   4.272  49.683  0.00  0.00    +0.005 A 
ATOM     24  F1  <0> A   1     -22.120   2.391  50.633  0.00  0.00    -0.137 F 
ENDBRANCH  17  18
ENDBRANCH  15  17
ENDBRANCH   5  13
BRANCH   1  26
ATOM     25  C1  <0> A   1     -16.310   5.182  44.264  0.00  0.00    +0.048 C 
ATOM     26  C2  <0> A   1     -16.064   5.285  45.771  0.00  0.00    +0.240 C 
ATOM     27  C3  <0> A   1     -14.780   4.534  46.130  0.00  0.00    +0.050 C 
ENDBRANCH   1  26
BRANCH   2  28
ATOM     28  C21 <0> A   1     -13.508   7.029  45.408  0.00  0.00    +0.127 C 
BRANCH  28  29
ATOM     29  C22 <0> A   1     -13.487   7.353  43.912  0.00  0.00    -0.006 C 
BRANCH  29  30
ATOM     30  C23 <0> A   1     -12.287   8.251  43.601  0.00  0.00    +0.214 C 
BRANCH  30  31
ATOM     31  O5  <0> A   1     -11.088   7.615  44.048  0.00  0.00    -0.541 OA
ATOM     32  H30 <0> A   1     -10.297   8.166  43.972  0.00  0.00    +0.363 HD
ENDBRANCH  30  31
BRANCH  30  33
ATOM     33  C24 <0> A   1     -12.206   8.489  42.092  0.00  0.00    -0.051 C 
BRANCH  33  34
ATOM     34  C25 <0> A   1     -13.009   9.740  41.731  0.00  0.00    +0.231 C 
BRANCH  34  35
ATOM     35  O4  <0> A   1     -12.304  10.902  42.172  0.00  0.00    -0.528 OA
ATOM     36  H29 <0> A   1     -11.686  10.736  42.897  0.00  0.00    +0.349 HD
ENDBRANCH  34  35
BRANCH  34  37
ATOM     37  C26 <0> A   1     -13.198   9.804  40.214  0.00  0.00    -0.103 C 
BRANCH  37  38
ATOM     38  C27 <0> A   1     -13.334  11.241  39.784  0.00  0.00    +0.490 C 
ATOM     39  O2  <0> A   1     -14.374  11.843  39.988  0.00  0.00    -0.681 OA
ATOM     40  O3  <0> A   1     -12.403  11.804  39.233  0.00  0.00    -0.713 OA
ENDBRANCH  37  38
ENDBRANCH  34  37
ENDBRANCH  33  34
ENDBRANCH  30  33
ENDBRANCH  29  30
ENDBRANCH  28  29
ENDBRANCH   2  28
TORSDOF 14
