REMARK VINA RESULT:      -7.3     17.134     19.939
REMARK  Name = CHEMBL293461
REMARK  12 active torsions:
REMARK  status: ('A' for Active; 'I' for Inactive)
REMARK    1  A    between atoms: C1_1  and  C2_2
REMARK    2  A    between atoms: C2_2  and  C3_3
REMARK    3  A    between atoms: C2_2  and  C4_4
REMARK    4  A    between atoms: C5_5  and  C17_22
REMARK    5  A    between atoms: C6_6  and  C11_15
REMARK    6  A    between atoms: C18_23  and  C19_24
REMARK    7  A    between atoms: C19_24  and  C20_25
REMARK    8  A    between atoms: C19_24  and  O4_33
REMARK    9  A    between atoms: C20_25  and  C21_26
REMARK   10  A    between atoms: C21_26  and  C22_28
REMARK   11  A    between atoms: C21_26  and  O3_32
REMARK   12  A    between atoms: C22_28  and  C23_29
REMARK                            x       y       z     vdW  Elec       q    Type
REMARK                         _______ _______ _______ _____ _____    ______ ____
ROOT
ATOM      1  C4  <0> A   1     -25.632  -2.721  50.825  0.00  0.00    +0.121 C 
ATOM      2  C5  <0> A   1     -24.709  -3.783  50.879  0.00  0.00    -0.163 C 
ATOM      3  C6  <0> A   1     -25.425  -4.961  50.702  0.00  0.00    +0.146 C 
ATOM      4  N1  <0> A   1     -26.737  -4.609  50.548  0.00  0.00    -0.321 N 
ATOM      5  N2  <0> A   1     -26.825  -3.215  50.635  0.00  0.00    -0.273 NA
ATOM      6  C7  <0> A   1     -27.803  -5.488  50.343  0.00  0.00    +0.324 A 
ATOM      7  C8  <0> A   1     -29.094  -5.114  50.703  0.00  0.00    +0.246 A 
ATOM      8  N3  <0> A   1     -30.099  -5.946  50.507  0.00  0.00    -0.415 NA
ATOM      9  C9  <0> A   1     -29.880  -7.135  49.972  0.00  0.00    +0.212 A 
ATOM     10  C10 <0> A   1     -28.598  -7.510  49.614  0.00  0.00    +0.265 A 
ATOM     11  N4  <0> A   1     -27.588  -6.679  49.800  0.00  0.00    -0.447 NA
ENDROOT
BRANCH   3  12
ATOM     12  C11 <0> A   1     -24.875  -6.331  50.684  0.00  0.00    -0.035 A 
ATOM     13  C12 <0> A   1     -24.546  -6.938  49.470  0.00  0.00    +0.091 A 
ATOM     14  C13 <0> A   1     -24.033  -8.218  49.459  0.00  0.00    -0.009 A 
ATOM     15  C14 <0> A   1     -23.841  -8.901  50.650  0.00  0.00    +0.114 A 
ATOM     16  C15 <0> A   1     -24.166  -8.304  51.858  0.00  0.00    -0.019 A 
ATOM     17  C16 <0> A   1     -24.675  -7.021  51.881  0.00  0.00    +0.069 A 
ATOM     18  F1  <0> A   1     -23.337 -10.154  50.633  0.00  0.00    -0.137 F 
ENDBRANCH   3  12
BRANCH   1  20
ATOM     19  C1  <0> A   1     -26.280  -0.427  50.139  0.00  0.00    +0.039 C 
ATOM     20  C2  <0> A   1     -25.299  -1.258  50.970  0.00  0.00    +0.081 C 
ATOM     21  C3  <0> A   1     -25.407  -0.853  52.442  0.00  0.00    +0.039 C 
ENDBRANCH   1  20
BRANCH   2  22
ATOM     22  C17 <0> A   1     -23.251  -3.668  51.085  0.00  0.00    +0.039 C 
ATOM     23  C18 <0> A   1     -22.749  -3.704  52.312  0.00  0.00    -0.051 C 
BRANCH  23  24
ATOM     24  C19 <0> A   1     -21.261  -3.586  52.522  0.00  0.00    +0.251 C 
BRANCH  24  25
ATOM     25  O4  <0> A   1     -20.622  -3.335  51.268  0.00  0.00    -0.538 OA
ATOM     26  H24 <0> A   1     -19.748  -3.740  51.184  0.00  0.00    +0.366 HD
ENDBRANCH  24  25
BRANCH  24  27
ATOM     27  C20 <0> A   1     -20.972  -2.432  53.482  0.00  0.00    -0.042 C 
BRANCH  27  28
ATOM     28  C21 <0> A   1     -20.025  -2.911  54.585  0.00  0.00    +0.230 C 
BRANCH  28  29
ATOM     29  O3  <0> A   1     -20.484  -4.165  55.095  0.00  0.00    -0.528 OA
ATOM     30  H23 <0> A   1     -20.995  -4.093  55.914  0.00  0.00    +0.350 HD
ENDBRANCH  28  29
BRANCH  28  31
ATOM     31  C22 <0> A   1     -18.617  -3.079  54.013  0.00  0.00    -0.102 C 
BRANCH  31  32
ATOM     32  C23 <0> A   1     -18.164  -4.504  54.198  0.00  0.00    +0.490 C 
ATOM     33  O1  <0> A   1     -17.510  -4.813  55.180  0.00  0.00    -0.681 OA
ATOM     34  O2  <0> A   1     -18.452  -5.348  53.367  0.00  0.00    -0.714 OA
ENDBRANCH  31  32
ENDBRANCH  28  31
ENDBRANCH  27  28
ENDBRANCH  24  27
ENDBRANCH  23  24
ENDBRANCH   2  22
TORSDOF 10
