REMARK VINA RESULT:      -7.6     16.641     22.506
REMARK  Name = CHEMBL427854
REMARK  15 active torsions:
REMARK  status: ('A' for Active; 'I' for Inactive)
REMARK    1  A    between atoms: C1_1  and  C2_2
REMARK    2  A    between atoms: C2_2  and  N1_3
REMARK    3  A    between atoms: C3_4  and  C21_25
REMARK    4  A    between atoms: C4_5  and  C15_18
REMARK    5  A    between atoms: C5_6  and  C14_17
REMARK    6  A    between atoms: C6_7  and  C7_8
REMARK    7  A    between atoms: N2_10  and  C8_11
REMARK    8  A    between atoms: C21_25  and  C22_26
REMARK    9  A    between atoms: C22_26  and  C23_27
REMARK   10  A    between atoms: C23_27  and  C24_29
REMARK   11  A    between atoms: C23_27  and  O5_37
REMARK   12  A    between atoms: C24_29  and  C25_30
REMARK   13  A    between atoms: C25_30  and  C26_32
REMARK   14  A    between atoms: C25_30  and  O4_36
REMARK   15  A    between atoms: C26_32  and  C27_33
REMARK                            x       y       z     vdW  Elec       q    Type
REMARK                         _______ _______ _______ _____ _____    ______ ____
ROOT
ATOM      1  N1  <0> A   1     -28.210  -6.854  50.612  0.00  0.00    -0.407 N 
ATOM      2  C3  <0> A   1     -27.869  -8.115  50.277  0.00  0.00    +0.082 C 
ATOM      3  C4  <0> A   1     -26.522  -8.157  50.056  0.00  0.00    -0.141 C 
ATOM      4  C5  <0> A   1     -26.019  -6.858  50.266  0.00  0.00    -0.082 C 
ATOM      5  C6  <0> A   1     -27.081  -6.068  50.604  0.00  0.00    -0.059 C 
ATOM      6  C14 <0> A   1     -24.582  -6.423  50.138  0.00  0.00    +0.110 C 
ENDROOT
BRANCH   3   7
ATOM      7  C15 <0> A   1     -25.731  -9.353  49.666  0.00  0.00    -0.009 A 
ATOM      8  C16 <0> A   1     -25.580  -9.682  48.320  0.00  0.00    +0.050 A 
ATOM      9  C17 <0> A   1     -24.845 -10.793  47.963  0.00  0.00    -0.016 A 
ATOM     10  C18 <0> A   1     -24.257 -11.580  48.939  0.00  0.00    +0.094 A 
ATOM     11  C19 <0> A   1     -24.404 -11.257  50.278  0.00  0.00    -0.016 A 
ATOM     12  C20 <0> A   1     -25.133 -10.143  50.644  0.00  0.00    +0.053 A 
ATOM     13  F1  <0> A   1     -23.538 -12.667  48.584  0.00  0.00    -0.142 F 
ENDBRANCH   3   7
BRANCH   5  14
ATOM     14  C7  <0> A   1     -27.026  -4.633  50.907  0.00  0.00    +0.602 C 
ATOM     15  O1  <0> A   1     -26.804  -4.259  52.043  0.00  0.00    -0.498 OA
ATOM     16  N2  <0> A   1     -27.221  -3.730  49.925  0.00  0.00    -0.661 N 
ATOM     17  H8  <0> A   1     -27.523  -4.021  49.051  0.00  0.00    +0.415 HD
BRANCH  16  18
ATOM     18  C8  <0> A   1     -26.988  -2.373  50.168  0.00  0.00    +0.144 A 
ATOM     19  C9  <0> A   1     -25.722  -1.836  49.968  0.00  0.00    +0.017 A 
ATOM     20  C10 <0> A   1     -25.496  -0.496  50.210  0.00  0.00    +0.026 A 
ATOM     21  C11 <0> A   1     -26.529   0.314  50.649  0.00  0.00    -0.019 A 
ATOM     22  C12 <0> A   1     -27.790  -0.217  50.848  0.00  0.00    +0.026 A 
ATOM     23  C13 <0> A   1     -28.025  -1.556  50.603  0.00  0.00    -0.027 A 
ENDBRANCH  16  18
ENDBRANCH   5  14
BRANCH   1  25
ATOM     24  C1  <0> A   1     -30.253  -5.916  49.647  0.00  0.00    +0.040 C 
ATOM     25  C2  <0> A   1     -29.566  -6.395  50.927  0.00  0.00    +0.280 C 
ENDBRANCH   1  25
BRANCH   2  26
ATOM     26  C21 <0> A   1     -28.815  -9.283  50.166  0.00  0.00    +0.117 C 
BRANCH  26  27
ATOM     27  C22 <0> A   1     -28.830 -10.053  51.488  0.00  0.00    -0.007 C 
BRANCH  27  28
ATOM     28  C23 <0> A   1     -30.259 -10.102  52.032  0.00  0.00    +0.212 C 
BRANCH  28  29
ATOM     29  O5  <0> A   1     -31.100 -10.788  51.103  0.00  0.00    -0.542 OA
ATOM     30  H30 <0> A   1     -31.119 -10.391  50.221  0.00  0.00    +0.363 HD
ENDBRANCH  28  29
BRANCH  28  31
ATOM     31  C24 <0> A   1     -30.270 -10.843  53.371  0.00  0.00    -0.051 C 
BRANCH  31  32
ATOM     32  C25 <0> A   1     -30.933  -9.965  54.434  0.00  0.00    +0.231 C 
BRANCH  32  33
ATOM     33  O4  <0> A   1     -30.052  -9.820  55.550  0.00  0.00    -0.528 OA
ATOM     34  H29 <0> A   1     -29.865 -10.648  56.013  0.00  0.00    +0.349 HD
ENDBRANCH  32  33
BRANCH  32  35
ATOM     35  C26 <0> A   1     -31.236  -8.587  53.841  0.00  0.00    -0.103 C 
BRANCH  35  36
ATOM     36  C27 <0> A   1     -30.592  -7.522  54.691  0.00  0.00    +0.490 C 
ATOM     37  O2  <0> A   1     -29.447  -7.171  54.466  0.00  0.00    -0.681 OA
ATOM     38  O3  <0> A   1     -31.217  -7.011  55.606  0.00  0.00    -0.713 OA
ENDBRANCH  35  36
ENDBRANCH  32  35
ENDBRANCH  31  32
ENDBRANCH  28  31
ENDBRANCH  27  28
ENDBRANCH  26  27
ENDBRANCH   2  26
TORSDOF 13
