REMARK  Name = CHEMBL63204
REMARK  12 active torsions:
REMARK  status: ('A' for Active; 'I' for Inactive)
REMARK    1  A    between atoms: C1_1  and  C2_2
REMARK    2  A    between atoms: C2_2  and  C3_3
REMARK    3  A    between atoms: C2_2  and  C4_4
REMARK    4  A    between atoms: C5_5  and  C18_22
REMARK    5  A    between atoms: C6_6  and  C12_15
REMARK    6  A    between atoms: C19_23  and  C20_24
REMARK    7  A    between atoms: C20_24  and  C21_25
REMARK    8  A    between atoms: C20_24  and  O4_33
REMARK    9  A    between atoms: C21_25  and  C22_26
REMARK   10  A    between atoms: C22_26  and  C23_28
REMARK   11  A    between atoms: C22_26  and  O3_32
REMARK   12  A    between atoms: C23_28  and  C24_29
REMARK                            x       y       z     vdW  Elec       q    Type
REMARK                         _______ _______ _______ _____ _____    ______ ____
ROOT
ATOM      1  C4  <0> A   1      -1.412  -0.526   0.013  0.00  0.00    +0.116 C 
ATOM      2  C5  <0> A   1      -1.993  -1.346  -0.974  0.00  0.00    -0.169 C 
ATOM      3  C6  <0> A   1      -3.303  -1.597  -0.582  0.00  0.00    +0.148 C 
ATOM      4  N1  <0> A   1      -3.495  -0.944   0.603  0.00  0.00    -0.321 N 
ATOM      5  N2  <0> A   1      -2.301  -0.297   0.941  0.00  0.00    -0.275 NA
ATOM      6  C7  <0> A   1      -4.676  -0.930   1.349  0.00  0.00    +0.368 A 
ATOM      7  C8  <0> A   1      -4.622  -0.694   2.718  0.00  0.00    -0.015 A 
ATOM      8  C9  <0> A   1      -5.800  -0.683   3.445  0.00  0.00    +0.089 A 
ATOM      9  C10 <0> A   1      -6.994  -0.908   2.775  0.00  0.00    -0.041 A 
ATOM     10  C11 <0> A   1      -6.973  -1.135   1.413  0.00  0.00    +0.295 A 
ATOM     11  N3  <0> A   1      -5.836  -1.135   0.745  0.00  0.00    -0.490 NA
ENDROOT
BRANCH   3  12
ATOM     12  C12 <0> A   1      -4.298  -2.412  -1.308  0.00  0.00    -0.033 A 
ATOM     13  C13 <0> A   1      -4.450  -2.266  -2.689  0.00  0.00    +0.088 A 
ATOM     14  C14 <0> A   1      -5.380  -3.029  -3.362  0.00  0.00    -0.011 A 
ATOM     15  C15 <0> A   1      -6.164  -3.940  -2.671  0.00  0.00    +0.112 A 
ATOM     16  C16 <0> A   1      -6.017  -4.089  -1.300  0.00  0.00    -0.021 A 
ATOM     17  C17 <0> A   1      -5.086  -3.335  -0.618  0.00  0.00    +0.074 A 
ATOM     18  F1  <0> A   1      -7.074  -4.685  -3.335  0.00  0.00    -0.138 F 
ENDBRANCH   3  12
BRANCH   1  20
ATOM     19  C1  <0> A   1      -0.019   1.526   0.010  0.00  0.00    +0.037 C 
ATOM     20  C2  <0> A   1       0.002  -0.004   0.002  0.00  0.00    +0.081 C 
ATOM     21  C3  <0> A   1       0.742  -0.511   1.242  0.00  0.00    +0.038 C 
ENDBRANCH   1  20
BRANCH   2  22
ATOM     22  C18 <0> A   1      -1.334  -1.847  -2.196  0.00  0.00    +0.040 C 
ATOM     23  C19 <0> A   1      -1.391  -3.137  -2.500  0.00  0.00    -0.054 C 
BRANCH  23  24
ATOM     24  C20 <0> A   1      -0.718  -3.648  -3.748  0.00  0.00    +0.251 C 
BRANCH  24  25
ATOM     25  O4  <0> A   1       0.006  -2.584  -4.368  0.00  0.00    -0.538 OA
ATOM     26  H25 <0> A   1       0.696  -2.200  -3.809  0.00  0.00    +0.366 HD
ENDBRANCH  24  25
BRANCH  24  27
ATOM     27  C21 <0> A   1       0.247  -4.777  -3.381  0.00  0.00    -0.042 C 
BRANCH  27  28
ATOM     28  C22 <0> A   1       0.837  -5.379  -4.658  0.00  0.00    +0.230 C 
BRANCH  28  29
ATOM     29  O3  <0> A   1       1.637  -4.399  -5.322  0.00  0.00    -0.528 OA
ATOM     30  H24 <0> A   1       2.377  -4.071  -4.793  0.00  0.00    +0.350 HD
ENDBRANCH  28  29
BRANCH  28  31
ATOM     31  C23 <0> A   1       1.705  -6.587  -4.299  0.00  0.00    -0.102 C 
BRANCH  31  32
ATOM     32  C24 <0> A   1       2.186  -7.253  -5.562  0.00  0.00    +0.491 C 
ATOM     33  O1  <0> A   1       1.864  -6.804  -6.649  0.00  0.00    -0.681 OA
ATOM     34  O2  <0> A   1       2.896  -8.242  -5.497  0.00  0.00    -0.714 OA
ENDBRANCH  31  32
ENDBRANCH  28  31
ENDBRANCH  27  28
ENDBRANCH  24  27
ENDBRANCH  23  24
ENDBRANCH   2  22
TORSDOF 10
