REMARK VINA RESULT:      -8.2      0.000      0.000
REMARK  Name = CHEMBL350272
REMARK  4 active torsions:
REMARK  status: ('A' for Active; 'I' for Inactive)
REMARK    1  A    between atoms: C7_8  and  C11_14
REMARK    2  A    between atoms: C11_14  and  C12_15
REMARK    3  A    between atoms: C12_15  and  C13_16
REMARK    4  A    between atoms: C15_18  and  O3_24
REMARK                            x       y       z     vdW  Elec       q    Type
REMARK                         _______ _______ _______ _____ _____    ______ ____
ROOT
ATOM      1  C1  <0> A   1      -2.138   5.435  46.632  0.00  0.00    +0.042 A 
ATOM      2  C2  <0> A   1      -1.855   4.359  45.846  0.00  0.00    +0.057 A 
ATOM      3  C3  <0> A   1      -2.901   3.559  45.359  0.00  0.00    -0.043 A 
ATOM      4  C4  <0> A   1      -4.240   3.886  45.693  0.00  0.00    -0.021 A 
ATOM      5  C5  <0> A   1      -4.494   5.002  46.505  0.00  0.00    +0.059 A 
ATOM      6  C6  <0> A   1      -3.454   5.756  46.960  0.00  0.00    -0.022 A 
ATOM      7 Cl1  <0> A   1      -3.772   7.136  47.965  0.00  0.00    -0.058 Cl
ATOM      8  C7  <0> A   1      -5.286   3.083  45.205  0.00  0.00    -0.046 A 
ATOM      9  C8  <0> A   1      -5.002   2.007  44.421  0.00  0.00    -0.024 A 
ATOM     10  C9  <0> A   1      -3.686   1.686  44.091  0.00  0.00    +0.056 A 
ATOM     11  C10 <0> A   1      -2.646   2.440  44.546  0.00  0.00    -0.015 A 
ATOM     12 Cl2  <0> A   1      -1.015   2.022  44.123  0.00  0.00    -0.044 Cl
ATOM     13 Cl3  <0> A   1      -6.299   1.020  43.822  0.00  0.00    -0.047 Cl
ENDROOT
BRANCH   8  14
ATOM     14  C11 <0> A   1      -6.716   3.413  45.550  0.00  0.00    +0.090 C 
BRANCH  14  15
ATOM     15  C12 <0> A   1      -7.198   2.486  46.667  0.00  0.00    +0.065 C 
BRANCH  15  16
ATOM     16  C13 <0> A   1      -7.561   3.318  47.900  0.00  0.00    +0.200 C 
ATOM     17  C14 <0> A   1      -7.143   2.565  49.166  0.00  0.00    +0.043 C 
ATOM     18  C15 <0> A   1      -7.546   3.382  50.398  0.00  0.00    +0.185 C 
ATOM     19  C16 <0> A   1      -9.066   3.590  50.380  0.00  0.00    +0.022 C 
ATOM     20  C17 <0> A   1      -9.452   4.152  49.030  0.00  0.00    +0.497 C 
ATOM     21  O1  <0> A   1     -10.167   5.122  48.942  0.00  0.00    -0.451 OA
ATOM     22  O2  <0> A   1      -8.975   3.540  47.926  0.00  0.00    -0.369 OA
BRANCH  18  23
ATOM     23  O3  <0> A   1      -6.885   4.649  50.369  0.00  0.00    -0.564 OA
ATOM     24  H15 <0> A   1      -6.780   5.057  51.239  0.00  0.00    +0.387 HD
ENDBRANCH  18  23
ENDBRANCH  15  16
ENDBRANCH  14  15
ENDBRANCH   8  14
TORSDOF 4
