REMARK VINA RESULT:      -7.2      3.360      6.496
REMARK  Name = CHEMBL100165
REMARK  16 active torsions:
REMARK  status: ('A' for Active; 'I' for Inactive)
REMARK    1  A    between atoms: C1_1  and  C2_2
REMARK    2  A    between atoms: C2_2  and  C3_3
REMARK    3  A    between atoms: C2_2  and  C4_4
REMARK    4  A    between atoms: C6_6  and  C19_25
REMARK    5  A    between atoms: C7_7  and  O1_13
REMARK    6  A    between atoms: C8_8  and  C10_10
REMARK    7  A    between atoms: C10_10  and  C11_11
REMARK    8  A    between atoms: C10_10  and  C12_12
REMARK    9  A    between atoms: O1_13  and  C13_14
REMARK   10  A    between atoms: C13_14  and  C14_15
REMARK   11  A    between atoms: C14_15  and  C15_16
REMARK   12  A    between atoms: C14_15  and  O5_24
REMARK   13  A    between atoms: C15_16  and  C16_17
REMARK   14  A    between atoms: C16_17  and  C17_19
REMARK   15  A    between atoms: C16_17  and  O4_23
REMARK   16  A    between atoms: C17_19  and  C18_20
REMARK                            x       y       z     vdW  Elec       q    Type
REMARK                         _______ _______ _______ _____ _____    ______ ____
ROOT
ATOM      1  C4  <0> A   1     -14.155   6.246  44.173  0.00  0.00    -0.081 A 
ATOM      2  C5  <0> A   1     -14.142   7.128  43.111  0.00  0.00    +0.032 A 
ATOM      3  C6  <0> A   1     -13.428   8.320  43.205  0.00  0.00    -0.063 A 
ATOM      4  C7  <0> A   1     -12.728   8.617  44.378  0.00  0.00    +0.109 A 
ATOM      5  C8  <0> A   1     -12.749   7.724  45.437  0.00  0.00    -0.085 A 
ATOM      6  C9  <0> A   1     -13.466   6.546  45.335  0.00  0.00    +0.026 A 
ENDROOT
BRANCH   3   7
ATOM      7  C19 <0> A   1     -13.410   9.270  42.066  0.00  0.00    -0.056 A 
ATOM      8  C20 <0> A   1     -14.072  10.492  42.166  0.00  0.00    +0.079 A 
ATOM      9  C21 <0> A   1     -14.054  11.372  41.104  0.00  0.00    -0.014 A 
ATOM     10  C22 <0> A   1     -13.377  11.044  39.940  0.00  0.00    +0.102 A 
ATOM     11  C23 <0> A   1     -12.718   9.830  39.837  0.00  0.00    -0.020 A 
ATOM     12  C24 <0> A   1     -12.727   8.945  40.896  0.00  0.00    +0.050 A 
ATOM     13  F1  <0> A   1     -13.361  11.909  38.903  0.00  0.00    -0.139 F 
ENDBRANCH   3   7
BRANCH   1  15
ATOM     14  C1  <0> A   1     -14.476   4.002  45.178  0.00  0.00    +0.026 C 
ATOM     15  C2  <0> A   1     -14.927   4.956  44.070  0.00  0.00    +0.023 C 
ATOM     16  C3  <0> A   1     -16.422   5.243  44.221  0.00  0.00    +0.025 C 
ENDBRANCH   1  15
BRANCH   5  17
ATOM     17  C10 <0> A   1     -11.997   8.039  46.704  0.00  0.00    +0.032 C 
ATOM     18  C11 <0> A   1     -12.916   7.829  47.909  0.00  0.00    +0.028 C 
ATOM     19  C12 <0> A   1     -10.784   7.113  46.821  0.00  0.00    +0.024 C 
ENDBRANCH   5  17
BRANCH   4  20
ATOM     20  O1  <0> A   1     -12.029   9.777  44.480  0.00  0.00    -0.316 OA
BRANCH  20  21
ATOM     21  C13 <0> A   1     -12.670  10.864  45.150  0.00  0.00    +0.149 C 
BRANCH  21  22
ATOM     22  C14 <0> A   1     -11.688  11.511  46.129  0.00  0.00    +0.225 C 
BRANCH  22  23
ATOM     23  O5  <0> A   1     -11.442  12.862  45.733  0.00  0.00    -0.531 OA
ATOM     24  H26 <0> A   1     -11.797  13.087  44.860  0.00  0.00    +0.362 HD
ENDBRANCH  22  23
BRANCH  22  25
ATOM     25  C15 <0> A   1     -12.284  11.493  47.537  0.00  0.00    -0.043 C 
BRANCH  25  26
ATOM     26  C16 <0> A   1     -11.179  11.209  48.555  0.00  0.00    +0.235 C 
BRANCH  26  27
ATOM     27  O4  <0> A   1      -9.911  11.210  47.895  0.00  0.00    -0.526 OA
ATOM     28  H25 <0> A   1      -9.868  10.626  47.125  0.00  0.00    +0.350 HD
ENDBRANCH  26  27
BRANCH  26  29
ATOM     29  C17 <0> A   1     -11.191  12.290  49.637  0.00  0.00    -0.101 C 
BRANCH  29  30
ATOM     30  C18 <0> A   1      -9.894  12.248  50.404  0.00  0.00    +0.491 C 
ATOM     31  O2  <0> A   1      -9.379  13.283  50.790  0.00  0.00    -0.680 OA
ATOM     32  O3  <0> A   1      -9.360  11.177  50.640  0.00  0.00    -0.713 OA
ENDBRANCH  29  30
ENDBRANCH  26  29
ENDBRANCH  25  26
ENDBRANCH  22  25
ENDBRANCH  21  22
ENDBRANCH  20  21
ENDBRANCH   4  20
TORSDOF 12
