REMARK VINA RESULT:      -7.5      0.944      1.049
REMARK  Name = CHEMBL348225
REMARK  13 active torsions:
REMARK  status: ('A' for Active; 'I' for Inactive)
REMARK    1  A    between atoms: C1_1  and  C2_2
REMARK    2  A    between atoms: C2_2  and  C3_3
REMARK    3  A    between atoms: C2_2  and  C4_4
REMARK    4  A    between atoms: C5_5  and  C19_20
REMARK    5  A    between atoms: C6_6  and  C14_15
REMARK    6  A    between atoms: C7_7  and  C8_9
REMARK    7  A    between atoms: C20_21  and  C21_22
REMARK    8  A    between atoms: C21_22  and  C22_24
REMARK    9  A    between atoms: C21_22  and  O4_32
REMARK   10  A    between atoms: C22_24  and  C23_25
REMARK   11  A    between atoms: C23_25  and  C24_27
REMARK   12  A    between atoms: C23_25  and  O3_31
REMARK   13  A    between atoms: C24_27  and  C25_28
REMARK                            x       y       z     vdW  Elec       q    Type
REMARK                         _______ _______ _______ _____ _____    ______ ____
ROOT
ATOM      1  C4  <0> A   1     -14.991   6.484  45.224  0.00  0.00    -0.118 C 
ATOM      2  C5  <0> A   1     -14.376   7.691  45.014  0.00  0.00    -0.085 C 
ATOM      3  C6  <0> A   1     -14.348   8.611  46.054  0.00  0.00    -0.073 C 
ATOM      4  C7  <0> A   1     -14.930   8.277  47.243  0.00  0.00    -0.128 C 
ATOM      5  S1  <0> A   1     -15.549   6.635  46.912  0.00  0.00    +0.045 S 
ENDROOT
BRANCH   4   6
ATOM      6  C8  <0> A   1     -15.030   9.074  48.484  0.00  0.00    +0.002 A 
ATOM      7  C9  <0> A   1     -14.007   9.026  49.432  0.00  0.00    +0.019 A 
ATOM      8  C10 <0> A   1     -14.106   9.772  50.588  0.00  0.00    +0.007 A 
ATOM      9  C11 <0> A   1     -15.217  10.567  50.809  0.00  0.00    +0.007 A 
ATOM     10  C12 <0> A   1     -16.235  10.620  49.872  0.00  0.00    +0.009 A 
ATOM     11  C13 <0> A   1     -16.144   9.884  48.709  0.00  0.00    +0.029 A 
ENDBRANCH   4   6
BRANCH   3  12
ATOM     12  C14 <0> A   1     -13.686   9.953  45.874  0.00  0.00    +0.041 C 
ATOM     13  C15 <0> A   1     -12.843  10.297  47.120  0.00  0.00    +0.017 C 
ATOM     14  C16 <0> A   1     -13.031  11.824  47.296  0.00  0.00    +0.010 C 
ATOM     15  C17 <0> A   1     -14.520  12.030  46.920  0.00  0.00    +0.005 C 
ATOM     16  C18 <0> A   1     -14.752  11.055  45.746  0.00  0.00    +0.016 C 
ENDBRANCH   3  12
BRANCH   1  18
ATOM     17  C1  <0> A   1     -14.436   4.099  44.831  0.00  0.00    +0.034 C 
ATOM     18  C2  <0> A   1     -15.157   5.328  44.272  0.00  0.00    +0.084 C 
ATOM     19  C3  <0> A   1     -16.645   5.014  44.106  0.00  0.00    +0.033 C 
ENDBRANCH   1  18
BRANCH   2  20
ATOM     20  C19 <0> A   1     -13.760   8.008  43.708  0.00  0.00    +0.037 C 
ATOM     21  C20 <0> A   1     -12.550   7.549  43.419  0.00  0.00    -0.066 C 
BRANCH  21  22
ATOM     22  C21 <0> A   1     -11.976   7.754  42.041  0.00  0.00    +0.251 C 
BRANCH  22  23
ATOM     23  O4  <0> A   1     -11.382   6.538  41.586  0.00  0.00    -0.539 OA
ATOM     24  H31 <0> A   1     -11.727   5.745  42.019  0.00  0.00    +0.363 HD
ENDBRANCH  22  23
BRANCH  22  25
ATOM     25  C22 <0> A   1     -13.093   8.167  41.079  0.00  0.00    -0.043 C 
BRANCH  25  26
ATOM     26  C23 <0> A   1     -12.648   9.391  40.276  0.00  0.00    +0.231 C 
BRANCH  26  27
ATOM     27  O3  <0> A   1     -13.004   9.216  38.903  0.00  0.00    -0.528 OA
ATOM     28  H30 <0> A   1     -13.955   9.118  38.753  0.00  0.00    +0.349 HD
ENDBRANCH  26  27
BRANCH  26  29
ATOM     29  C24 <0> A   1     -13.340  10.641  40.828  0.00  0.00    -0.102 C 
BRANCH  29  30
ATOM     30  C25 <0> A   1     -14.116  11.312  39.724  0.00  0.00    +0.490 C 
ATOM     31  O1  <0> A   1     -13.535  12.000  38.903  0.00  0.00    -0.681 OA
ATOM     32  O2  <0> A   1     -15.324  11.168  39.654  0.00  0.00    -0.713 OA
ENDBRANCH  29  30
ENDBRANCH  26  29
ENDBRANCH  25  26
ENDBRANCH  22  25
ENDBRANCH  21  22
ENDBRANCH   2  20
TORSDOF 11
