REMARK VINA RESULT:      -8.0      0.000      0.000
REMARK  Name = CHEMBL250383
REMARK  17 active torsions:
REMARK  status: ('A' for Active; 'I' for Inactive)
REMARK    1  A    between atoms: C1_1  and  C2_2
REMARK    2  A    between atoms: C2_2  and  C3_3
REMARK    3  A    between atoms: C2_2  and  C4_4
REMARK    4  A    between atoms: C5_5  and  C19_29
REMARK    5  A    between atoms: N2_7  and  C13_22
REMARK    6  A    between atoms: C6_8  and  O1_9
REMARK    7  A    between atoms: O1_9  and  C7_10
REMARK    8  A    between atoms: C7_10  and  C8_11
REMARK    9  A    between atoms: C8_11  and  C9_13
REMARK   10  A    between atoms: C8_11  and  O5_21
REMARK   11  A    between atoms: C9_13  and  C10_14
REMARK   12  A    between atoms: C10_14  and  C11_16
REMARK   13  A    between atoms: C10_14  and  O4_20
REMARK   14  A    between atoms: C11_16  and  C12_17
REMARK   15  A    between atoms: N3_31  and  C20_32
REMARK   16  A    between atoms: N3_31  and  C21_33
REMARK   17  A    between atoms: C21_33  and  C22_34
REMARK                            x       y       z     vdW  Elec       q    Type
REMARK                         _______ _______ _______ _____ _____    ______ ____
ROOT
ATOM      1  C4  <0> A   1     -15.372   6.818  45.800  0.00  0.00    -0.159 C 
ATOM      2  C5  <0> A   1     -16.294   7.427  46.678  0.00  0.00    +0.047 C 
ATOM      3  N1  <0> A   1     -15.874   8.652  46.929  0.00  0.00    -0.236 NA
ATOM      4  N2  <0> A   1     -14.681   8.858  46.224  0.00  0.00    -0.325 N 
ATOM      5  C6  <0> A   1     -14.390   7.716  45.542  0.00  0.00    +0.260 C 
ENDROOT
BRANCH   4   6
ATOM      6  C13 <0> A   1     -13.917  10.033  46.224  0.00  0.00    +0.127 A 
ATOM      7  C14 <0> A   1     -14.223  11.061  45.343  0.00  0.00    +0.066 A 
ATOM      8  C15 <0> A   1     -13.469  12.218  45.344  0.00  0.00    +0.008 A 
ATOM      9  C16 <0> A   1     -12.409  12.354  46.224  0.00  0.00    +0.108 A 
ATOM     10  C17 <0> A   1     -12.102  11.330  47.104  0.00  0.00    +0.017 A 
ATOM     11  C18 <0> A   1     -12.856  10.173  47.110  0.00  0.00    +0.066 A 
ATOM     12  F1  <0> A   1     -11.673  13.487  46.224  0.00  0.00    -0.132 F 
ENDBRANCH   4   6
BRANCH   2  13
ATOM     13  C19 <0> A   1     -17.517   6.802  47.221  0.00  0.00    +0.600 C 
ATOM     14  O6  <0> A   1     -18.540   6.797  46.565  0.00  0.00    -0.516 OA
ATOM     15  N3  <0> A   1     -17.499   6.238  48.445  0.00  0.00    -0.600 N 
ATOM     16  C20 <0> A   1     -16.296   6.330  49.277  0.00  0.00    +0.296 C 
BRANCH  15  17
ATOM     17  C21 <0> A   1     -18.682   5.530  48.943  0.00  0.00    +0.287 C 
BRANCH  17  18
ATOM     18  C22 <0> A   1     -18.335   4.815  50.250  0.00  0.00    -0.027 C 
ATOM     19  C23 <0> A   1     -19.199   5.373  51.383  0.00  0.00    +0.009 C 
ATOM     20  C24 <0> A   1     -18.852   4.658  52.690  0.00  0.00    +0.001 C 
ATOM     21  C25 <0> A   1     -19.119   3.159  52.537  0.00  0.00    +0.000 C 
ATOM     22  C26 <0> A   1     -18.254   2.600  51.405  0.00  0.00    +0.004 C 
ATOM     23  C27 <0> A   1     -18.602   3.316  50.097  0.00  0.00    +0.017 C 
ENDBRANCH  17  18
ENDBRANCH  15  17
ENDBRANCH   2  13
BRANCH   1  25
ATOM     24  C1  <0> A   1     -15.763   5.473  43.754  0.00  0.00    +0.020 C 
ATOM     25  C2  <0> A   1     -15.461   5.417  45.253  0.00  0.00    +0.078 C 
ATOM     26  C3  <0> A   1     -14.130   4.696  45.478  0.00  0.00    +0.028 C 
ENDBRANCH   1  25
BRANCH   5  27
ATOM     27  O1  <0> A   1     -13.312   7.513  44.744  0.00  0.00    -0.283 OA
BRANCH  27  28
ATOM     28  C7  <0> A   1     -13.382   8.031  43.414  0.00  0.00    +0.154 C 
BRANCH  28  29
ATOM     29  C8  <0> A   1     -12.250   7.436  42.573  0.00  0.00    +0.230 C 
BRANCH  29  30
ATOM     30  O5  <0> A   1     -12.380   6.014  42.539  0.00  0.00    -0.527 OA
ATOM     31  H17 <0> A   1     -13.204   5.684  42.924  0.00  0.00    +0.365 HD
ENDBRANCH  29  30
BRANCH  29  32
ATOM     32  C9  <0> A   1     -12.327   7.989  41.149  0.00  0.00    -0.041 C 
BRANCH  32  33
ATOM     33  C10 <0> A   1     -12.867   9.421  41.186  0.00  0.00    +0.236 C 
BRANCH  33  34
ATOM     34  O4  <0> A   1     -11.775  10.339  41.276  0.00  0.00    -0.526 OA
ATOM     35  H16 <0> A   1     -12.042  11.268  41.292  0.00  0.00    +0.351 HD
ENDBRANCH  33  34
BRANCH  33  36
ATOM     36  C11 <0> A   1     -13.663   9.699  39.910  0.00  0.00    -0.101 C 
BRANCH  36  37
ATOM     37  C12 <0> A   1     -13.662  11.180  39.631  0.00  0.00    +0.491 C 
ATOM     38  O2  <0> A   1     -12.920  11.639  38.780  0.00  0.00    -0.680 OA
ATOM     39  O3  <0> A   1     -14.403  11.919  40.256  0.00  0.00    -0.712 OA
ENDBRANCH  36  37
ENDBRANCH  33  36
ENDBRANCH  32  33
ENDBRANCH  29  32
ENDBRANCH  28  29
ENDBRANCH  27  28
ENDBRANCH   5  27
TORSDOF 14
