REMARK VINA RESULT:      -5.0     21.341     22.696
REMARK  Name = CHEMBL50444
REMARK  6 active torsions:
REMARK  status: ('A' for Active; 'I' for Inactive)
REMARK    1  A    between atoms: C1_1  and  C2_2
REMARK    2  A    between atoms: C2_2  and  C3_3
REMARK    3  A    between atoms: C2_2  and  C5_7
REMARK    4  A    between atoms: C2_2  and  O5_11
REMARK    5  A    between atoms: C3_3  and  C4_4
REMARK    6  A    between atoms: C5_7  and  C6_8
REMARK                            x       y       z     vdW  Elec       q    Type
REMARK                         _______ _______ _______ _____ _____    ______ ____
ROOT
ATOM      1  C1  <0> A   1     -13.372  11.380  42.779  0.00  0.00    +0.022 C 
ATOM      2  C2  <0> A   1     -13.043  10.391  41.660  0.00  0.00    +0.178 C 
ENDROOT
BRANCH   2   3
ATOM      3  O5  <0> A   1     -11.644  10.449  41.369  0.00  0.00    -0.561 OA
ATOM      4  H8  <0> A   1     -11.105   9.862  41.916  0.00  0.00    +0.374 HD
ENDBRANCH   2   3
BRANCH   2   5
ATOM      5  C3  <0> A   1     -13.413   8.975  42.105  0.00  0.00    -0.105 C 
BRANCH   5   6
ATOM      6  C4  <0> A   1     -12.282   8.034  41.779  0.00  0.00    +0.496 C 
ATOM      7  O1  <0> A   1     -11.344   7.917  42.548  0.00  0.00    -0.685 OA
ATOM      8  O2  <0> A   1     -12.305   7.389  40.744  0.00  0.00    -0.719 OA
ENDBRANCH   5   6
ENDBRANCH   2   5
BRANCH   2   9
ATOM      9  C5  <0> A   1     -13.840  10.756  40.405  0.00  0.00    -0.082 C 
BRANCH   9  10
ATOM     10  C6  <0> A   1     -12.899  10.891  39.235  0.00  0.00    +0.499 C 
ATOM     11  O3  <0> A   1     -12.505  11.993  38.895  0.00  0.00    -0.687 OA
ATOM     12  O4  <0> A   1     -12.533   9.898  38.629  0.00  0.00    -0.731 OA
ENDBRANCH   9  10
ENDBRANCH   2   9
TORSDOF 5
