REMARK VINA RESULT:      -7.6      3.610      5.207
REMARK  Name = CHEMBL11891
REMARK  11 active torsions:
REMARK  status: ('A' for Active; 'I' for Inactive)
REMARK    1  A    between atoms: C6_6  and  C7_7
REMARK    2  A    between atoms: C7_7  and  C17_27
REMARK    3  A    between atoms: C8_8  and  C9_9
REMARK    4  A    between atoms: C8_8  and  N1_22
REMARK    5  A    between atoms: C10_10  and  C11_11
REMARK    6  A    between atoms: C11_11  and  C12_13
REMARK    7  A    between atoms: C11_11  and  O4_21
REMARK    8  A    between atoms: C12_13  and  C13_14
REMARK    9  A    between atoms: C13_14  and  C14_16
REMARK   10  A    between atoms: C13_14  and  O3_20
REMARK   11  A    between atoms: C14_16  and  C15_17
REMARK                            x       y       z     vdW  Elec       q    Type
REMARK                         _______ _______ _______ _____ _____    ______ ____
ROOT
ATOM      1  C7  <0> A   1     -15.210   7.727  46.502  0.00  0.00    -0.013 C 
ATOM      2  C8  <0> A   1     -14.773   7.008  45.425  0.00  0.00    +0.158 C 
ENDROOT
BRANCH   1   8
ATOM      3  C1  <0> A   1     -13.364   9.069  47.500  0.00  0.00    +0.071 A 
ATOM      4  C2  <0> A   1     -12.786  10.284  47.799  0.00  0.00    -0.011 A 
ATOM      5  C3  <0> A   1     -13.416  11.463  47.433  0.00  0.00    +0.111 A 
ATOM      6  C4  <0> A   1     -14.630  11.427  46.765  0.00  0.00    -0.005 A 
ATOM      7  C5  <0> A   1     -15.217  10.218  46.460  0.00  0.00    +0.067 A 
ATOM      8  C6  <0> A   1     -14.586   9.027  46.826  0.00  0.00    -0.058 A 
ATOM      9  F2  <0> A   1     -12.847  12.652  47.729  0.00  0.00    -0.136 F 
ENDBRANCH   1   8
BRANCH   1  10
ATOM     10  C17 <0> A   1     -16.307   7.204  47.342  0.00  0.00    -0.080 A 
ATOM     11  C18 <0> A   1     -17.636   7.410  46.967  0.00  0.00    +0.060 A 
ATOM     12  C19 <0> A   1     -18.656   6.919  47.755  0.00  0.00    -0.008 A 
ATOM     13  C20 <0> A   1     -18.364   6.223  48.918  0.00  0.00    +0.112 A 
ATOM     14  C21 <0> A   1     -17.046   6.017  49.295  0.00  0.00    -0.007 A 
ATOM     15  C22 <0> A   1     -16.018   6.497  48.512  0.00  0.00    +0.072 A 
ATOM     16  F1  <0> A   1     -19.368   5.745  49.686  0.00  0.00    -0.135 F 
ENDBRANCH   1  10
BRANCH   2  17
ATOM     17  N1  <0> A   1     -15.363   5.780  45.119  0.00  0.00    -0.332 N 
ATOM     18  C16 <0> A   1     -16.400   5.554  44.282  0.00  0.00    +0.468 C 
ATOM     19  N2  <0> A   1     -16.629   4.266  44.288  0.00  0.00    -0.329 NA
ATOM     20  N3  <0> A   1     -15.810   3.664  45.072  0.00  0.00    -0.035 NA
ATOM     21  N4  <0> A   1     -15.003   4.512  45.612  0.00  0.00    -0.068 NA
ENDBRANCH   2  17
BRANCH   2  22
ATOM     22  C9  <0> A   1     -13.684   7.527  44.592  0.00  0.00    +0.005 C 
ATOM     23  C10 <0> A   1     -13.457   7.002  43.388  0.00  0.00    -0.010 C 
BRANCH  23  24
ATOM     24  C11 <0> A   1     -12.269   7.454  42.579  0.00  0.00    +0.254 C 
BRANCH  24  25
ATOM     25  O4  <0> A   1     -11.579   6.312  42.068  0.00  0.00    -0.533 OA
ATOM     26  H14 <0> A   1     -10.626   6.323  42.231  0.00  0.00    +0.365 HD
ENDBRANCH  24  25
BRANCH  24  27
ATOM     27  C12 <0> A   1     -12.746   8.325  41.415  0.00  0.00    -0.039 C 
BRANCH  27  28
ATOM     28  C13 <0> A   1     -12.316   9.774  41.653  0.00  0.00    +0.233 C 
BRANCH  28  29
ATOM     29  O3  <0> A   1     -12.004  10.390  40.403  0.00  0.00    -0.527 OA
ATOM     30  H13 <0> A   1     -12.442   9.983  39.643  0.00  0.00    +0.350 HD
ENDBRANCH  28  29
BRANCH  28  31
ATOM     31  C14 <0> A   1     -13.454  10.540  42.329  0.00  0.00    -0.101 C 
BRANCH  31  32
ATOM     32  C15 <0> A   1     -12.915  11.296  43.517  0.00  0.00    +0.491 C 
ATOM     33  O1  <0> A   1     -13.235  12.459  43.695  0.00  0.00    -0.681 OA
ATOM     34  O2  <0> A   1     -12.159  10.745  44.298  0.00  0.00    -0.712 OA
ENDBRANCH  31  32
ENDBRANCH  28  31
ENDBRANCH  27  28
ENDBRANCH  24  27
ENDBRANCH  23  24
ENDBRANCH   2  22
TORSDOF 11
