REMARK VINA RESULT:      -7.3     19.216     22.275
REMARK  Name = CHEMBL350272
REMARK  4 active torsions:
REMARK  status: ('A' for Active; 'I' for Inactive)
REMARK    1  A    between atoms: C7_8  and  C11_14
REMARK    2  A    between atoms: C11_14  and  C12_15
REMARK    3  A    between atoms: C12_15  and  C13_16
REMARK    4  A    between atoms: C15_18  and  O3_24
REMARK                            x       y       z     vdW  Elec       q    Type
REMARK                         _______ _______ _______ _____ _____    ______ ____
ROOT
ATOM      1  C1  <0> A   1     -22.775  -1.572  51.147  0.00  0.00    +0.042 A 
ATOM      2  C2  <0> A   1     -24.023  -1.288  50.685  0.00  0.00    +0.057 A 
ATOM      3  C3  <0> A   1     -25.008  -2.288  50.682  0.00  0.00    -0.043 A 
ATOM      4  C4  <0> A   1     -24.686  -3.583  51.162  0.00  0.00    -0.021 A 
ATOM      5  C5  <0> A   1     -23.387  -3.840  51.630  0.00  0.00    +0.059 A 
ATOM      6  C6  <0> A   1     -22.457  -2.845  51.618  0.00  0.00    -0.022 A 
ATOM      7 Cl1  <0> A   1     -20.852  -3.166  52.198  0.00  0.00    -0.058 Cl
ATOM      8  C7  <0> A   1     -25.672  -4.585  51.157  0.00  0.00    -0.046 A 
ATOM      9  C8  <0> A   1     -26.921  -4.301  50.694  0.00  0.00    -0.024 A 
ATOM     10  C9  <0> A   1     -27.239  -3.027  50.223  0.00  0.00    +0.056 A 
ATOM     11  C10 <0> A   1     -26.309  -2.031  50.212  0.00  0.00    -0.015 A 
ATOM     12 Cl2  <0> A   1     -26.727  -0.454  49.621  0.00  0.00    -0.044 Cl
ATOM     13 Cl3  <0> A   1     -28.134  -5.542  50.691  0.00  0.00    -0.047 Cl
ENDROOT
BRANCH   8  14
ATOM     14  C11 <0> A   1     -25.348  -5.968  51.662  0.00  0.00    +0.090 C 
BRANCH  14  15
ATOM     15  C12 <0> A   1     -24.269  -6.594  50.776  0.00  0.00    +0.065 C 
BRANCH  15  16
ATOM     16  C13 <0> A   1     -24.933  -7.344  49.618  0.00  0.00    +0.200 C 
ATOM     17  C14 <0> A   1     -25.687  -8.560  50.163  0.00  0.00    +0.043 C 
ATOM     18  C15 <0> A   1     -26.315  -9.331  48.997  0.00  0.00    +0.185 C 
ATOM     19  C16 <0> A   1     -25.201  -9.780  48.042  0.00  0.00    +0.022 C 
ATOM     20  C17 <0> A   1     -24.362  -8.572  47.690  0.00  0.00    +0.497 C 
ATOM     21  O1  <0> A   1     -24.086  -8.320  46.541  0.00  0.00    -0.451 OA
ATOM     22  O2  <0> A   1     -23.929  -7.784  48.696  0.00  0.00    -0.369 OA
BRANCH  18  23
ATOM     23  O3  <0> A   1     -27.233  -8.485  48.302  0.00  0.00    -0.564 OA
ATOM     24  H15 <0> A   1     -26.832  -7.683  47.940  0.00  0.00    +0.387 HD
ENDBRANCH  18  23
ENDBRANCH  15  16
ENDBRANCH  14  15
ENDBRANCH   8  14
TORSDOF 4
