REMARK VINA RESULT:      -8.0      0.000      0.000
REMARK  Name = CHEMBL122219
REMARK  13 active torsions:
REMARK  status: ('A' for Active; 'I' for Inactive)
REMARK    1  A    between atoms: C1_1  and  C2_2
REMARK    2  A    between atoms: C2_2  and  O1_3
REMARK    3  A    between atoms: O1_3  and  C3_4
REMARK    4  A    between atoms: C3_4  and  C4_6
REMARK    5  A    between atoms: C5_7  and  C24_33
REMARK    6  A    between atoms: C6_8  and  C21_30
REMARK    7  A    between atoms: N1_9  and  C14_18
REMARK    8  A    between atoms: C7_10  and  C8_11
REMARK    9  A    between atoms: C14_18  and  C15_19
REMARK   10  A    between atoms: C15_19  and  C16_20
REMARK   11  A    between atoms: C18_23  and  O5_29
REMARK   12  A    between atoms: C21_30  and  C22_31
REMARK   13  A    between atoms: C21_30  and  C23_32
REMARK                            x       y       z     vdW  Elec       q    Type
REMARK                         _______ _______ _______ _____ _____    ______ ____
ROOT
ATOM      1  C4  <0> A   1     -15.529   8.988  47.066  0.00  0.00    -0.167 C 
ATOM      2  C5  <0> A   1     -15.982   7.603  46.844  0.00  0.00    -0.087 C 
ATOM      3  C6  <0> A   1     -15.148   7.072  45.913  0.00  0.00    +0.068 C 
ATOM      4  N1  <0> A   1     -14.229   8.007  45.546  0.00  0.00    -0.419 N 
ATOM      5  C7  <0> A   1     -14.438   9.171  46.221  0.00  0.00    +0.114 C 
ENDROOT
BRANCH   5   6
ATOM      6  C8  <0> A   1     -13.647  10.408  46.083  0.00  0.00    -0.043 A 
ATOM      7  C9  <0> A   1     -13.992  11.357  45.115  0.00  0.00    +0.056 A 
ATOM      8  C10 <0> A   1     -13.249  12.511  44.992  0.00  0.00    -0.006 A 
ATOM      9  C11 <0> A   1     -12.163  12.734  45.823  0.00  0.00    +0.110 A 
ATOM     10  C12 <0> A   1     -11.817  11.796  46.784  0.00  0.00    -0.004 A 
ATOM     11  C13 <0> A   1     -12.554  10.640  46.922  0.00  0.00    +0.073 A 
ATOM     12  F1  <0> A   1     -11.439  13.867  45.696  0.00  0.00    -0.135 F 
ENDBRANCH   5   6
BRANCH   2  13
ATOM     13  C24 <0> A   1     -17.121   6.925  47.507  0.00  0.00    -0.017 A 
ATOM     14  C25 <0> A   1     -18.425   7.173  47.081  0.00  0.00    +0.020 A 
ATOM     15  C26 <0> A   1     -19.483   6.539  47.702  0.00  0.00    +0.003 A 
ATOM     16  C27 <0> A   1     -19.250   5.660  48.744  0.00  0.00    +0.003 A 
ATOM     17  C28 <0> A   1     -17.958   5.410  49.171  0.00  0.00    +0.003 A 
ATOM     18  C29 <0> A   1     -16.892   6.033  48.554  0.00  0.00    +0.020 A 
ENDBRANCH   2  13
BRANCH   3  19
ATOM     19  C21 <0> A   1     -15.230   5.668  45.371  0.00  0.00    +0.069 C 
ATOM     20  C22 <0> A   1     -15.045   4.668  46.514  0.00  0.00    +0.031 C 
ATOM     21  C23 <0> A   1     -16.599   5.453  44.722  0.00  0.00    +0.033 C 
ENDBRANCH   3  19
BRANCH   1  22
ATOM     22  C3  <0> A   1     -16.113   9.972  47.983  0.00  0.00    +0.552 C 
ATOM     23  O2  <0> A   1     -16.070   9.785  49.183  0.00  0.00    -0.499 OA
BRANCH  22  24
ATOM     24  O1  <0> A   1     -16.698  11.085  47.494  0.00  0.00    -0.343 OA
BRANCH  24  26
ATOM     25  C1  <0> A   1     -15.465  13.107  47.976  0.00  0.00    +0.061 C 
ATOM     26  C2  <0> A   1     -16.681  12.246  48.326  0.00  0.00    +0.194 C 
ENDBRANCH  24  26
ENDBRANCH  22  24
ENDBRANCH   1  22
BRANCH   4  27
ATOM     27  C14 <0> A   1     -13.166   7.793  44.561  0.00  0.00    +0.296 C 
BRANCH  27  28
ATOM     28  C15 <0> A   1     -13.789   7.498  43.195  0.00  0.00    +0.052 C 
BRANCH  28  29
ATOM     29  C16 <0> A   1     -13.117   8.367  42.130  0.00  0.00    +0.204 C 
ATOM     30  C17 <0> A   1     -13.631   9.805  42.245  0.00  0.00    +0.046 C 
ATOM     31  C18 <0> A   1     -12.986  10.663  41.151  0.00  0.00    +0.187 C 
ATOM     32  C19 <0> A   1     -13.350  10.076  39.782  0.00  0.00    +0.024 C 
ATOM     33  C20 <0> A   1     -13.005   8.604  39.788  0.00  0.00    +0.498 C 
ATOM     34  O3  <0> A   1     -12.367   8.110  38.889  0.00  0.00    -0.449 OA
ATOM     35  O4  <0> A   1     -13.428   7.856  40.830  0.00  0.00    -0.370 OA
BRANCH  31  36
ATOM     36  O5  <0> A   1     -11.566  10.659  41.314  0.00  0.00    -0.564 OA
ATOM     37  H20 <0> A   1     -11.119   9.940  40.847  0.00  0.00    +0.388 HD
ENDBRANCH  31  36
ENDBRANCH  28  29
ENDBRANCH  27  28
ENDBRANCH   4  27
TORSDOF 10
