REMARK VINA RESULT:      -8.0      0.000      0.000
REMARK  Name = CHEMBL419542
REMARK  11 active torsions:
REMARK  status: ('A' for Active; 'I' for Inactive)
REMARK    1  A    between atoms: C6_6  and  C7_7
REMARK    2  A    between atoms: C7_7  and  C17_27
REMARK    3  A    between atoms: C8_8  and  C9_9
REMARK    4  A    between atoms: C8_8  and  C16_22
REMARK    5  A    between atoms: C10_10  and  C11_11
REMARK    6  A    between atoms: C11_11  and  C12_13
REMARK    7  A    between atoms: C11_11  and  O4_21
REMARK    8  A    between atoms: C12_13  and  C13_14
REMARK    9  A    between atoms: C13_14  and  C14_16
REMARK   10  A    between atoms: C13_14  and  O3_20
REMARK   11  A    between atoms: C14_16  and  C15_17
REMARK                            x       y       z     vdW  Elec       q    Type
REMARK                         _______ _______ _______ _____ _____    ______ ____
ROOT
ATOM      1  C7  <0> A   1     -14.334   8.251  45.892  0.00  0.00    +0.014 C 
ATOM      2  C8  <0> A   1     -14.323   7.512  44.750  0.00  0.00    -0.039 C 
ENDROOT
BRANCH   1   8
ATOM      3  C1  <0> A   1     -14.326  10.720  45.559  0.00  0.00    +0.070 A 
ATOM      4  C2  <0> A   1     -13.680  11.938  45.598  0.00  0.00    -0.012 A 
ATOM      5  C3  <0> A   1     -12.357  12.010  46.008  0.00  0.00    +0.110 A 
ATOM      6  C4  <0> A   1     -11.678  10.861  46.378  0.00  0.00    -0.007 A 
ATOM      7  C5  <0> A   1     -12.314   9.639  46.343  0.00  0.00    +0.068 A 
ATOM      8  C6  <0> A   1     -13.646   9.559  45.932  0.00  0.00    -0.064 A 
ATOM      9  F2  <0> A   1     -11.729  13.206  46.045  0.00  0.00    -0.136 F 
ENDBRANCH   1   8
BRANCH   1  10
ATOM     10  C17 <0> A   1     -15.034   7.746  47.092  0.00  0.00    -0.078 A 
ATOM     11  C18 <0> A   1     -14.343   6.981  48.035  0.00  0.00    +0.058 A 
ATOM     12  C19 <0> A   1     -15.001   6.512  49.153  0.00  0.00    -0.009 A 
ATOM     13  C20 <0> A   1     -16.344   6.798  49.341  0.00  0.00    +0.108 A 
ATOM     14  C21 <0> A   1     -17.034   7.557  48.408  0.00  0.00    -0.008 A 
ATOM     15  C22 <0> A   1     -16.385   8.036  47.290  0.00  0.00    +0.078 A 
ATOM     16  F1  <0> A   1     -16.983   6.335  50.438  0.00  0.00    -0.136 F 
ENDBRANCH   1  10
BRANCH   2  17
ATOM     17  C16 <0> A   1     -15.024   6.180  44.709  0.00  0.00    +0.246 C 
ATOM     18  N1  <0> A   1     -14.064   5.083  44.921  0.00  0.00    -0.116 NA
ATOM     19  N2  <0> A   1     -14.097   4.393  43.892  0.00  0.00    -0.041 NA
ATOM     20  N3  <0> A   1     -14.997   4.896  42.957  0.00  0.00    -0.042 NA
ATOM     21  N4  <0> A   1     -15.563   5.920  43.363  0.00  0.00    -0.118 NA
ENDBRANCH   2  17
BRANCH   2  22
ATOM     22  C9  <0> A   1     -13.632   8.012  43.563  0.00  0.00    +0.012 C 
ATOM     23  C10 <0> A   1     -12.425   7.540  43.245  0.00  0.00    -0.065 C 
BRANCH  23  24
ATOM     24  C11 <0> A   1     -11.712   8.055  42.020  0.00  0.00    +0.258 C 
BRANCH  24  25
ATOM     25  O4  <0> A   1     -10.585   7.223  41.741  0.00  0.00    -0.533 OA
ATOM     26  H14 <0> A   1      -9.769   7.713  41.565  0.00  0.00    +0.365 HD
ENDBRANCH  24  25
BRANCH  24  27
ATOM     27  C12 <0> A   1     -12.670   8.035  40.826  0.00  0.00    -0.037 C 
BRANCH  27  28
ATOM     28  C13 <0> A   1     -12.502   9.321  40.016  0.00  0.00    +0.233 C 
BRANCH  28  29
ATOM     29  O3  <0> A   1     -13.024   9.127  38.701  0.00  0.00    -0.528 OA
ATOM     30  H13 <0> A   1     -13.769   9.705  38.484  0.00  0.00    +0.350 HD
ENDBRANCH  28  29
BRANCH  28  31
ATOM     31  C14 <0> A   1     -13.259  10.459  40.703  0.00  0.00    -0.099 C 
BRANCH  31  32
ATOM     32  C15 <0> A   1     -14.037  11.238  39.674  0.00  0.00    +0.491 C 
ATOM     33  O1  <0> A   1     -13.452  11.966  38.890  0.00  0.00    -0.681 OA
ATOM     34  O2  <0> A   1     -15.251  11.141  39.626  0.00  0.00    -0.712 OA
ENDBRANCH  31  32
ENDBRANCH  28  31
ENDBRANCH  27  28
ENDBRANCH  24  27
ENDBRANCH  23  24
ENDBRANCH   2  22
TORSDOF 11
