MODEL 1
REMARK VINA RESULT:      -7.6      0.000      0.000
REMARK  Name = CHEMBL301952
REMARK  4 active torsions:
REMARK  status: ('A' for Active; 'I' for Inactive)
REMARK    1  A    between atoms: C6_6  and  C7_7
REMARK    2  A    between atoms: C12_12  and  C13_13
REMARK    3  A    between atoms: C14_14  and  C15_15
REMARK    4  A    between atoms: C17_17  and  O3_23
REMARK                            x       y       z     vdW  Elec       q    Type
REMARK                         _______ _______ _______ _____ _____    ______ ____
ROOT
ATOM      1  C7  <0> A   1     -13.144  11.295  45.435  0.00  0.00    -0.010 A 
ATOM      2  C8  <0> A   1     -12.611  12.496  45.890  0.00  0.00    +0.054 A 
ATOM      3  C9  <0> A   1     -12.532  12.748  47.247  0.00  0.00    -0.022 A 
ATOM      4  C10 <0> A   1     -12.983  11.809  48.161  0.00  0.00    +0.051 A 
ATOM      5  C11 <0> A   1     -13.515  10.612  47.728  0.00  0.00    -0.018 A 
ATOM      6  C12 <0> A   1     -13.608  10.344  46.361  0.00  0.00    -0.030 A 
ATOM      7 Cl1  <0> A   1     -14.078   9.443  48.882  0.00  0.00    -0.043 Cl
ATOM      8 Cl2  <0> A   1     -11.863  14.248  47.808  0.00  0.00    -0.050 Cl
ENDROOT
BRANCH   1  14
ATOM      9  C1  <0> A   1     -14.285  11.544  43.232  0.00  0.00    +0.067 A 
ATOM     10  C2  <0> A   1     -14.361  11.287  41.878  0.00  0.00    -0.012 A 
ATOM     11  C3  <0> A   1     -13.391  10.511  41.263  0.00  0.00    +0.108 A 
ATOM     12  C4  <0> A   1     -12.343   9.989  42.003  0.00  0.00    -0.014 A 
ATOM     13  C5  <0> A   1     -12.259  10.241  43.357  0.00  0.00    +0.072 A 
ATOM     14  C6  <0> A   1     -13.231  11.021  43.981  0.00  0.00    -0.064 A 
ATOM     15  F1  <0> A   1     -13.470  10.262  39.938  0.00  0.00    -0.137 F 
ENDBRANCH   1  14
BRANCH   6  16
ATOM     16  C13 <0> A   1     -14.182   9.068  45.892  0.00  0.00    +0.042 C 
ATOM     17  C14 <0> A   1     -13.406   7.998  45.767  0.00  0.00    -0.002 C 
BRANCH  17  18
ATOM     18  C15 <0> A   1     -13.993   6.695  45.287  0.00  0.00    +0.243 C 
ATOM     19  C16 <0> A   1     -14.413   6.833  43.822  0.00  0.00    +0.051 C 
ATOM     20  C17 <0> A   1     -15.046   5.520  43.350  0.00  0.00    +0.186 C 
ATOM     21  C18 <0> A   1     -16.267   5.214  44.227  0.00  0.00    +0.024 C 
ATOM     22  C19 <0> A   1     -15.840   5.285  45.677  0.00  0.00    +0.497 C 
ATOM     23  O1  <0> A   1     -16.119   4.401  46.452  0.00  0.00    -0.449 OA
ATOM     24  O2  <0> A   1     -15.139   6.366  46.080  0.00  0.00    -0.368 OA
BRANCH  20  25
ATOM     25  O3  <0> A   1     -14.093   4.460  43.465  0.00  0.00    -0.564 OA
ATOM     26  H15 <0> A   1     -14.480   3.575  43.416  0.00  0.00    +0.388 HD
ENDBRANCH  20  25
ENDBRANCH  17  18
ENDBRANCH   6  16
TORSDOF 4
ENDMDL
MODEL 2
REMARK VINA RESULT:      -7.5      9.824     11.140
REMARK  Name = CHEMBL301952
REMARK  4 active torsions:
REMARK  status: ('A' for Active; 'I' for Inactive)
REMARK    1  A    between atoms: C6_6  and  C7_7
REMARK    2  A    between atoms: C12_12  and  C13_13
REMARK    3  A    between atoms: C14_14  and  C15_15
REMARK    4  A    between atoms: C17_17  and  O3_23
REMARK                            x       y       z     vdW  Elec       q    Type
REMARK                         _______ _______ _______ _____ _____    ______ ____
ROOT
ATOM      1  C7  <0> A   1      -3.648   4.117  45.950  0.00  0.00    -0.010 A 
ATOM      2  C8  <0> A   1      -2.454   3.666  45.397  0.00  0.00    +0.054 A 
ATOM      3  C9  <0> A   1      -2.466   2.645  44.464  0.00  0.00    -0.022 A 
ATOM      4  C10 <0> A   1      -3.662   2.065  44.076  0.00  0.00    +0.051 A 
ATOM      5  C11 <0> A   1      -4.856   2.499  44.614  0.00  0.00    -0.018 A 
ATOM      6  C12 <0> A   1      -4.863   3.525  45.560  0.00  0.00    -0.030 A 
ATOM      7 Cl1  <0> A   1      -6.350   1.765  44.120  0.00  0.00    -0.043 Cl
ATOM      8 Cl2  <0> A   1      -0.972   2.088  43.777  0.00  0.00    -0.050 Cl
ENDROOT
BRANCH   1  14
ATOM      9  C1  <0> A   1      -3.694   4.914  48.311  0.00  0.00    +0.067 A 
ATOM     10  C2  <0> A   1      -3.685   5.937  49.238  0.00  0.00    -0.012 A 
ATOM     11  C3  <0> A   1      -3.623   7.255  48.818  0.00  0.00    +0.108 A 
ATOM     12  C4  <0> A   1      -3.570   7.555  47.466  0.00  0.00    -0.014 A 
ATOM     13  C5  <0> A   1      -3.578   6.539  46.532  0.00  0.00    +0.072 A 
ATOM     14  C6  <0> A   1      -3.640   5.211  46.950  0.00  0.00    -0.064 A 
ATOM     15  F1  <0> A   1      -3.615   8.252  49.730  0.00  0.00    -0.137 F 
ENDBRANCH   1  14
BRANCH   6  16
ATOM     16  C13 <0> A   1      -6.136   3.990  46.144  0.00  0.00    +0.042 C 
ATOM     17  C14 <0> A   1      -6.839   3.183  46.929  0.00  0.00    -0.002 C 
BRANCH  17  18
ATOM     18  C15 <0> A   1      -8.140   3.658  47.525  0.00  0.00    +0.243 C 
ATOM     19  C16 <0> A   1      -8.429   5.084  47.051  0.00  0.00    +0.051 C 
ATOM     20  C17 <0> A   1      -9.730   5.578  47.692  0.00  0.00    +0.186 C 
ATOM     21  C18 <0> A   1      -9.575   5.546  49.218  0.00  0.00    +0.024 C 
ATOM     22  C19 <0> A   1      -9.095   4.167  49.618  0.00  0.00    +0.497 C 
ATOM     23  O1  <0> A   1      -9.638   3.554  50.506  0.00  0.00    -0.449 OA
ATOM     24  O2  <0> A   1      -8.043   3.644  48.954  0.00  0.00    -0.368 OA
BRANCH  20  25
ATOM     25  O3  <0> A   1     -10.809   4.728  47.300  0.00  0.00    -0.564 OA
ATOM     26  H15 <0> A   1     -11.272   5.022  46.502  0.00  0.00    +0.388 HD
ENDBRANCH  20  25
ENDBRANCH  17  18
ENDBRANCH   6  16
TORSDOF 4
ENDMDL
MODEL 3
REMARK VINA RESULT:      -7.5     17.557     20.489
REMARK  Name = CHEMBL301952
REMARK  4 active torsions:
REMARK  status: ('A' for Active; 'I' for Inactive)
REMARK    1  A    between atoms: C6_6  and  C7_7
REMARK    2  A    between atoms: C12_12  and  C13_13
REMARK    3  A    between atoms: C14_14  and  C15_15
REMARK    4  A    between atoms: C17_17  and  O3_23
REMARK                            x       y       z     vdW  Elec       q    Type
REMARK                         _______ _______ _______ _____ _____    ______ ____
ROOT
ATOM      1  C7  <0> A   1     -28.231  -3.241  52.570  0.00  0.00    -0.010 A 
ATOM      2  C8  <0> A   1     -29.164  -2.525  53.313  0.00  0.00    +0.054 A 
ATOM      3  C9  <0> A   1     -30.138  -3.194  54.031  0.00  0.00    -0.022 A 
ATOM      4  C10 <0> A   1     -30.193  -4.579  54.015  0.00  0.00    +0.051 A 
ATOM      5  C11 <0> A   1     -29.276  -5.306  53.283  0.00  0.00    -0.018 A 
ATOM      6  C12 <0> A   1     -28.289  -4.646  52.549  0.00  0.00    -0.030 A 
ATOM      7 Cl1  <0> A   1     -29.353  -7.040  53.270  0.00  0.00    -0.043 Cl
ATOM      8 Cl2  <0> A   1     -31.298  -2.295  54.957  0.00  0.00    -0.050 Cl
ENDROOT
BRANCH   1  14
ATOM      9  C1  <0> A   1     -27.408  -2.191  50.465  0.00  0.00    +0.067 A 
ATOM     10  C2  <0> A   1     -26.432  -1.526  49.751  0.00  0.00    -0.012 A 
ATOM     11  C3  <0> A   1     -25.233  -1.191  50.360  0.00  0.00    +0.108 A 
ATOM     12  C4  <0> A   1     -25.007  -1.523  51.686  0.00  0.00    -0.014 A 
ATOM     13  C5  <0> A   1     -25.978  -2.188  52.407  0.00  0.00    +0.072 A 
ATOM     14  C6  <0> A   1     -27.186  -2.527  51.799  0.00  0.00    -0.064 A 
ATOM     15  F1  <0> A   1     -24.280  -0.540  49.657  0.00  0.00    -0.137 F 
ENDBRANCH   1  14
BRANCH   6  16
ATOM     16  C13 <0> A   1     -27.309  -5.417  51.759  0.00  0.00    +0.042 C 
ATOM     17  C14 <0> A   1     -26.177  -5.821  52.320  0.00  0.00    -0.002 C 
BRANCH  17  18
ATOM     18  C15 <0> A   1     -25.176  -6.609  51.514  0.00  0.00    +0.243 C 
ATOM     19  C16 <0> A   1     -25.877  -7.249  50.314  0.00  0.00    +0.051 C 
ATOM     20  C17 <0> A   1     -24.865  -8.083  49.521  0.00  0.00    +0.186 C 
ATOM     21  C18 <0> A   1     -24.286  -9.166  50.439  0.00  0.00    +0.024 C 
ATOM     22  C19 <0> A   1     -23.784  -8.500  51.702  0.00  0.00    +0.497 C 
ATOM     23  O1  <0> A   1     -22.680  -8.737  52.132  0.00  0.00    -0.449 OA
ATOM     24  O2  <0> A   1     -24.605  -7.636  52.333  0.00  0.00    -0.368 OA
BRANCH  20  25
ATOM     25  O3  <0> A   1     -23.813  -7.237  49.050  0.00  0.00    -0.564 OA
ATOM     26  H15 <0> A   1     -23.905  -6.311  49.313  0.00  0.00    +0.388 HD
ENDBRANCH  20  25
ENDBRANCH  17  18
ENDBRANCH   6  16
TORSDOF 4
ENDMDL
MODEL 4
REMARK VINA RESULT:      -7.4     13.324     14.695
REMARK  Name = CHEMBL301952
REMARK  4 active torsions:
REMARK  status: ('A' for Active; 'I' for Inactive)
REMARK    1  A    between atoms: C6_6  and  C7_7
REMARK    2  A    between atoms: C12_12  and  C13_13
REMARK    3  A    between atoms: C14_14  and  C15_15
REMARK    4  A    between atoms: C17_17  and  O3_23
REMARK                            x       y       z     vdW  Elec       q    Type
REMARK                         _______ _______ _______ _____ _____    ______ ____
ROOT
ATOM      1  C7  <0> A   1      -0.538  10.353  53.082  0.00  0.00    -0.010 A 
ATOM      2  C8  <0> A   1      -0.291  11.125  54.213  0.00  0.00    +0.054 A 
ATOM      3  C9  <0> A   1      -1.316  11.851  54.791  0.00  0.00    -0.022 A 
ATOM      4  C10 <0> A   1      -2.591  11.818  54.250  0.00  0.00    +0.051 A 
ATOM      5  C11 <0> A   1      -2.854  11.058  53.128  0.00  0.00    -0.018 A 
ATOM      6  C12 <0> A   1      -1.831  10.323  52.528  0.00  0.00    -0.030 A 
ATOM      7 Cl1  <0> A   1      -4.455  11.023  52.458  0.00  0.00    -0.043 Cl
ATOM      8 Cl2  <0> A   1      -1.001  12.811  56.203  0.00  0.00    -0.050 Cl
ENDROOT
BRANCH   1  14
ATOM      9  C1  <0> A   1       0.814   8.269  52.880  0.00  0.00    +0.067 A 
ATOM     10  C2  <0> A   1       1.835   7.546  52.296  0.00  0.00    -0.012 A 
ATOM     11  C3  <0> A   1       2.603   8.115  51.292  0.00  0.00    +0.108 A 
ATOM     12  C4  <0> A   1       2.352   9.410  50.871  0.00  0.00    -0.014 A 
ATOM     13  C5  <0> A   1       1.333  10.140  51.449  0.00  0.00    +0.072 A 
ATOM     14  C6  <0> A   1       0.557   9.573  52.458  0.00  0.00    -0.064 A 
ATOM     15  F1  <0> A   1       3.601   7.403  50.725  0.00  0.00    -0.137 F 
ENDBRANCH   1  14
BRANCH   6  16
ATOM     16  C13 <0> A   1      -2.104   9.513  51.325  0.00  0.00    +0.042 C 
ATOM     17  C14 <0> A   1      -2.667   8.317  51.444  0.00  0.00    -0.002 C 
BRANCH  17  18
ATOM     18  C15 <0> A   1      -2.946   7.490  50.215  0.00  0.00    +0.243 C 
ATOM     19  C16 <0> A   1      -1.769   6.546  49.956  0.00  0.00    +0.051 C 
ATOM     20  C17 <0> A   1      -2.039   5.737  48.683  0.00  0.00    +0.186 C 
ATOM     21  C18 <0> A   1      -2.212   6.706  47.507  0.00  0.00    +0.024 C 
ATOM     22  C19 <0> A   1      -3.247   7.741  47.892  0.00  0.00    +0.497 C 
ATOM     23  O1  <0> A   1      -4.163   8.009  47.151  0.00  0.00    -0.449 OA
ATOM     24  O2  <0> A   1      -3.117   8.355  49.086  0.00  0.00    -0.368 OA
BRANCH  20  25
ATOM     25  O3  <0> A   1      -3.229   4.964  48.850  0.00  0.00    -0.564 OA
ATOM     26  H15 <0> A   1      -3.893   5.109  48.161  0.00  0.00    +0.388 HD
ENDBRANCH  20  25
ENDBRANCH  17  18
ENDBRANCH   6  16
TORSDOF 4
ENDMDL
MODEL 5
REMARK VINA RESULT:      -7.4     10.218     11.465
REMARK  Name = CHEMBL301952
REMARK  4 active torsions:
REMARK  status: ('A' for Active; 'I' for Inactive)
REMARK    1  A    between atoms: C6_6  and  C7_7
REMARK    2  A    between atoms: C12_12  and  C13_13
REMARK    3  A    between atoms: C14_14  and  C15_15
REMARK    4  A    between atoms: C17_17  and  O3_23
REMARK                            x       y       z     vdW  Elec       q    Type
REMARK                         _______ _______ _______ _____ _____    ______ ____
ROOT
ATOM      1  C7  <0> A   1      -2.885   4.825  46.474  0.00  0.00    -0.010 A 
ATOM      2  C8  <0> A   1      -1.689   4.336  45.957  0.00  0.00    +0.054 A 
ATOM      3  C9  <0> A   1      -1.707   3.356  44.982  0.00  0.00    -0.022 A 
ATOM      4  C10 <0> A   1      -2.911   2.855  44.514  0.00  0.00    +0.051 A 
ATOM      5  C11 <0> A   1      -4.107   3.328  45.015  0.00  0.00    -0.018 A 
ATOM      6  C12 <0> A   1      -4.107   4.312  46.004  0.00  0.00    -0.030 A 
ATOM      7 Cl1  <0> A   1      -5.610   2.693  44.423  0.00  0.00    -0.043 Cl
ATOM      8 Cl2  <0> A   1      -0.212   2.752  44.339  0.00  0.00    -0.050 Cl
ENDROOT
BRANCH   1  14
ATOM      9  C1  <0> A   1      -2.783   5.520  48.865  0.00  0.00    +0.067 A 
ATOM     10  C2  <0> A   1      -2.769   6.502  49.836  0.00  0.00    -0.012 A 
ATOM     11  C3  <0> A   1      -2.840   7.837  49.474  0.00  0.00    +0.108 A 
ATOM     12  C4  <0> A   1      -2.928   8.195  48.138  0.00  0.00    -0.014 A 
ATOM     13  C5  <0> A   1      -2.942   7.220  47.161  0.00  0.00    +0.072 A 
ATOM     14  C6  <0> A   1      -2.870   5.875  47.520  0.00  0.00    -0.064 A 
ATOM     15  F1  <0> A   1      -2.826   8.794  50.427  0.00  0.00    -0.137 F 
ENDBRANCH   1  14
BRANCH   6  16
ATOM     16  C13 <0> A   1      -5.382   4.818  46.549  0.00  0.00    +0.042 C 
ATOM     17  C14 <0> A   1      -6.007   4.145  47.507  0.00  0.00    -0.002 C 
BRANCH  17  18
ATOM     18  C15 <0> A   1      -7.309   4.662  48.064  0.00  0.00    +0.243 C 
ATOM     19  C16 <0> A   1      -8.029   3.535  48.809  0.00  0.00    +0.051 C 
ATOM     20  C17 <0> A   1      -9.371   4.052  49.337  0.00  0.00    +0.186 C 
ATOM     21  C18 <0> A   1     -10.219   4.533  48.153  0.00  0.00    +0.024 C 
ATOM     22  C19 <0> A   1      -9.388   5.498  47.334  0.00  0.00    +0.497 C 
ATOM     23  O1  <0> A   1      -9.831   6.570  46.998  0.00  0.00    -0.449 OA
ATOM     24  O2  <0> A   1      -8.137   5.125  46.991  0.00  0.00    -0.368 OA
BRANCH  20  25
ATOM     25  O3  <0> A   1      -9.144   5.138  50.239  0.00  0.00    -0.564 OA
ATOM     26  H15 <0> A   1      -9.362   4.936  51.160  0.00  0.00    +0.388 HD
ENDBRANCH  20  25
ENDBRANCH  17  18
ENDBRANCH   6  16
TORSDOF 4
ENDMDL
MODEL 6
REMARK VINA RESULT:      -7.4      9.914     11.737
REMARK  Name = CHEMBL301952
REMARK  4 active torsions:
REMARK  status: ('A' for Active; 'I' for Inactive)
REMARK    1  A    between atoms: C6_6  and  C7_7
REMARK    2  A    between atoms: C12_12  and  C13_13
REMARK    3  A    between atoms: C14_14  and  C15_15
REMARK    4  A    between atoms: C17_17  and  O3_23
REMARK                            x       y       z     vdW  Elec       q    Type
REMARK                         _______ _______ _______ _____ _____    ______ ____
ROOT
ATOM      1  C7  <0> A   1      -6.308   3.420  45.356  0.00  0.00    -0.010 A 
ATOM      2  C8  <0> A   1      -6.647   2.252  44.681  0.00  0.00    +0.054 A 
ATOM      3  C9  <0> A   1      -5.660   1.477  44.103  0.00  0.00    -0.022 A 
ATOM      4  C10 <0> A   1      -4.330   1.856  44.189  0.00  0.00    +0.051 A 
ATOM      5  C11 <0> A   1      -3.975   3.012  44.855  0.00  0.00    -0.018 A 
ATOM      6  C12 <0> A   1      -4.959   3.809  45.440  0.00  0.00    -0.030 A 
ATOM      7 Cl1  <0> A   1      -2.306   3.478  44.958  0.00  0.00    -0.043 Cl
ATOM      8 Cl2  <0> A   1      -6.089   0.019  43.263  0.00  0.00    -0.050 Cl
ENDROOT
BRANCH   1  14
ATOM      9  C1  <0> A   1      -8.116   3.755  47.039  0.00  0.00    +0.067 A 
ATOM     10  C2  <0> A   1      -9.098   4.536  47.615  0.00  0.00    -0.012 A 
ATOM     11  C3  <0> A   1      -9.335   5.815  47.139  0.00  0.00    +0.108 A 
ATOM     12  C4  <0> A   1      -8.591   6.316  46.083  0.00  0.00    -0.014 A 
ATOM     13  C5  <0> A   1      -7.607   5.543  45.502  0.00  0.00    +0.072 A 
ATOM     14  C6  <0> A   1      -7.364   4.255  45.977  0.00  0.00    -0.064 A 
ATOM     15  F1  <0> A   1     -10.297   6.576  47.706  0.00  0.00    -0.137 F 
ENDBRANCH   1  14
BRANCH   6  16
ATOM     16  C13 <0> A   1      -4.587   5.050  46.148  0.00  0.00    +0.042 C 
ATOM     17  C14 <0> A   1      -4.418   5.037  47.464  0.00  0.00    -0.002 C 
BRANCH  17  18
ATOM     18  C15 <0> A   1      -4.038   6.304  48.187  0.00  0.00    +0.243 C 
ATOM     19  C16 <0> A   1      -2.649   6.757  47.729  0.00  0.00    +0.051 C 
ATOM     20  C17 <0> A   1      -2.249   8.021  48.496  0.00  0.00    +0.186 C 
ATOM     21  C18 <0> A   1      -2.238   7.708  49.997  0.00  0.00    +0.024 C 
ATOM     22  C19 <0> A   1      -3.565   7.078  50.361  0.00  0.00    +0.497 C 
ATOM     23  O1  <0> A   1      -4.203   7.475  51.308  0.00  0.00    -0.449 OA
ATOM     24  O2  <0> A   1      -4.015   6.060  49.598  0.00  0.00    -0.368 OA
BRANCH  20  25
ATOM     25  O3  <0> A   1      -3.191   9.062  48.228  0.00  0.00    -0.564 OA
ATOM     26  H15 <0> A   1      -4.103   8.752  48.131  0.00  0.00    +0.388 HD
ENDBRANCH  20  25
ENDBRANCH  17  18
ENDBRANCH   6  16
TORSDOF 4
ENDMDL
MODEL 7
REMARK VINA RESULT:      -7.3     17.952     20.820
REMARK  Name = CHEMBL301952
REMARK  4 active torsions:
REMARK  status: ('A' for Active; 'I' for Inactive)
REMARK    1  A    between atoms: C6_6  and  C7_7
REMARK    2  A    between atoms: C12_12  and  C13_13
REMARK    3  A    between atoms: C14_14  and  C15_15
REMARK    4  A    between atoms: C17_17  and  O3_23
REMARK                            x       y       z     vdW  Elec       q    Type
REMARK                         _______ _______ _______ _____ _____    ______ ____
ROOT
ATOM      1  C7  <0> A   1     -26.913  -3.914  51.105  0.00  0.00    -0.010 A 
ATOM      2  C8  <0> A   1     -27.515  -2.679  50.887  0.00  0.00    +0.054 A 
ATOM      3  C9  <0> A   1     -26.739  -1.572  50.601  0.00  0.00    -0.022 A 
ATOM      4  C10 <0> A   1     -25.359  -1.682  50.530  0.00  0.00    +0.051 A 
ATOM      5  C11 <0> A   1     -24.744  -2.900  50.743  0.00  0.00    -0.018 A 
ATOM      6  C12 <0> A   1     -25.512  -4.027  51.039  0.00  0.00    -0.030 A 
ATOM      7 Cl1  <0> A   1     -23.015  -3.028  50.652  0.00  0.00    -0.043 Cl
ATOM      8 Cl2  <0> A   1     -27.497  -0.034  50.329  0.00  0.00    -0.050 Cl
ENDROOT
BRANCH   1  14
ATOM      9  C1  <0> A   1     -27.917  -5.512  52.733  0.00  0.00    +0.067 A 
ATOM     10  C2  <0> A   1     -28.690  -6.620  53.014  0.00  0.00    -0.012 A 
ATOM     11  C3  <0> A   1     -29.292  -7.326  51.985  0.00  0.00    +0.108 A 
ATOM     12  C4  <0> A   1     -29.120  -6.925  50.670  0.00  0.00    -0.014 A 
ATOM     13  C5  <0> A   1     -28.349  -5.818  50.380  0.00  0.00    +0.072 A 
ATOM     14  C6  <0> A   1     -27.742  -5.104  51.412  0.00  0.00    -0.064 A 
ATOM     15  F1  <0> A   1     -30.048  -8.410  52.265  0.00  0.00    -0.137 F 
ENDBRANCH   1  14
BRANCH   6  16
ATOM     16  C13 <0> A   1     -24.860  -5.330  51.273  0.00  0.00    +0.042 C 
ATOM     17  C14 <0> A   1     -24.767  -6.212  50.286  0.00  0.00    -0.002 C 
BRANCH  17  18
ATOM     18  C15 <0> A   1     -24.101  -7.543  50.526  0.00  0.00    +0.243 C 
ATOM     19  C16 <0> A   1     -25.090  -8.671  50.223  0.00  0.00    +0.051 C 
ATOM     20  C17 <0> A   1     -24.423 -10.021  50.507  0.00  0.00    +0.186 C 
ATOM     21  C18 <0> A   1     -24.002 -10.065  51.981  0.00  0.00    +0.024 C 
ATOM     22  C19 <0> A   1     -23.190  -8.824  52.281  0.00  0.00    +0.497 C 
ATOM     23  O1  <0> A   1     -22.126  -8.899  52.850  0.00  0.00    -0.449 OA
ATOM     24  O2  <0> A   1     -23.688  -7.631  51.894  0.00  0.00    -0.368 OA
BRANCH  20  25
ATOM     25  O3  <0> A   1     -23.272 -10.171  49.673  0.00  0.00    -0.564 OA
ATOM     26  H15 <0> A   1     -22.662  -9.421  49.705  0.00  0.00    +0.388 HD
ENDBRANCH  20  25
ENDBRANCH  17  18
ENDBRANCH   6  16
TORSDOF 4
ENDMDL
MODEL 8
REMARK VINA RESULT:      -7.2     18.341     21.622
REMARK  Name = CHEMBL301952
REMARK  4 active torsions:
REMARK  status: ('A' for Active; 'I' for Inactive)
REMARK    1  A    between atoms: C6_6  and  C7_7
REMARK    2  A    between atoms: C12_12  and  C13_13
REMARK    3  A    between atoms: C14_14  and  C15_15
REMARK    4  A    between atoms: C17_17  and  O3_23
REMARK                            x       y       z     vdW  Elec       q    Type
REMARK                         _______ _______ _______ _____ _____    ______ ____
ROOT
ATOM      1  C7  <0> A   1     -24.890  -5.037  51.061  0.00  0.00    -0.010 A 
ATOM      2  C8  <0> A   1     -23.914  -4.053  50.942  0.00  0.00    +0.054 A 
ATOM      3  C9  <0> A   1     -24.253  -2.721  51.089  0.00  0.00    -0.022 A 
ATOM      4  C10 <0> A   1     -25.563  -2.356  51.355  0.00  0.00    +0.051 A 
ATOM      5  C11 <0> A   1     -26.545  -3.319  51.476  0.00  0.00    -0.018 A 
ATOM      6  C12 <0> A   1     -26.221  -4.668  51.325  0.00  0.00    -0.030 A 
ATOM      7 Cl1  <0> A   1     -28.184  -2.852  51.809  0.00  0.00    -0.043 Cl
ATOM      8 Cl2  <0> A   1     -23.030  -1.498  50.941  0.00  0.00    -0.050 Cl
ENDROOT
BRANCH   1  14
ATOM      9  C1  <0> A   1     -24.628  -7.078  49.655  0.00  0.00    +0.067 A 
ATOM     10  C2  <0> A   1     -24.292  -8.409  49.514  0.00  0.00    -0.012 A 
ATOM     11  C3  <0> A   1     -23.856  -9.136  50.610  0.00  0.00    +0.108 A 
ATOM     12  C4  <0> A   1     -23.759  -8.533  51.853  0.00  0.00    -0.014 A 
ATOM     13  C5  <0> A   1     -24.093  -7.202  52.004  0.00  0.00    +0.072 A 
ATOM     14  C6  <0> A   1     -24.530  -6.466  50.904  0.00  0.00    -0.064 A 
ATOM     15  F1  <0> A   1     -23.529 -10.439  50.466  0.00  0.00    -0.137 F 
ENDBRANCH   1  14
BRANCH   6  16
ATOM     16  C13 <0> A   1     -27.268  -5.702  51.448  0.00  0.00    +0.042 C 
ATOM     17  C14 <0> A   1     -27.642  -6.127  52.648  0.00  0.00    -0.002 C 
BRANCH  17  18
ATOM     18  C15 <0> A   1     -28.711  -7.182  52.773  0.00  0.00    +0.243 C 
ATOM     19  C16 <0> A   1     -29.874  -6.846  51.836  0.00  0.00    +0.051 C 
ATOM     20  C17 <0> A   1     -30.976  -7.899  51.997  0.00  0.00    +0.186 C 
ATOM     21  C18 <0> A   1     -31.451  -7.901  53.455  0.00  0.00    +0.024 C 
ATOM     22  C19 <0> A   1     -30.238  -8.038  54.350  0.00  0.00    +0.497 C 
ATOM     23  O1  <0> A   1     -30.212  -8.852  55.243  0.00  0.00    -0.449 OA
ATOM     24  O2  <0> A   1     -29.187  -7.223  54.123  0.00  0.00    -0.368 OA
BRANCH  20  25
ATOM     25  O3  <0> A   1     -30.459  -9.188  51.657  0.00  0.00    -0.564 OA
ATOM     26  H15 <0> A   1     -30.114  -9.685  52.411  0.00  0.00    +0.388 HD
ENDBRANCH  20  25
ENDBRANCH  17  18
ENDBRANCH   6  16
TORSDOF 4
ENDMDL
MODEL 9
REMARK VINA RESULT:      -7.2     16.974     19.932
REMARK  Name = CHEMBL301952
REMARK  4 active torsions:
REMARK  status: ('A' for Active; 'I' for Inactive)
REMARK    1  A    between atoms: C6_6  and  C7_7
REMARK    2  A    between atoms: C12_12  and  C13_13
REMARK    3  A    between atoms: C14_14  and  C15_15
REMARK    4  A    between atoms: C17_17  and  O3_23
REMARK                            x       y       z     vdW  Elec       q    Type
REMARK                         _______ _______ _______ _____ _____    ______ ____
ROOT
ATOM      1  C7  <0> A   1     -27.473  -2.954  52.066  0.00  0.00    -0.010 A 
ATOM      2  C8  <0> A   1     -28.563  -2.120  52.299  0.00  0.00    +0.054 A 
ATOM      3  C9  <0> A   1     -29.801  -2.665  52.581  0.00  0.00    -0.022 A 
ATOM      4  C10 <0> A   1     -29.968  -4.040  52.632  0.00  0.00    +0.051 A 
ATOM      5  C11 <0> A   1     -28.898  -4.882  52.403  0.00  0.00    -0.018 A 
ATOM      6  C12 <0> A   1     -27.641  -4.349  52.112  0.00  0.00    -0.030 A 
ATOM      7 Cl1  <0> A   1     -29.116  -6.603  52.470  0.00  0.00    -0.043 Cl
ATOM      8 Cl2  <0> A   1     -31.157  -1.620  52.872  0.00  0.00    -0.050 Cl
ENDROOT
BRANCH   1  14
ATOM      9  C1  <0> A   1     -25.831  -1.982  50.462  0.00  0.00    +0.067 A 
ATOM     10  C2  <0> A   1     -24.591  -1.442  50.186  0.00  0.00    -0.012 A 
ATOM     11  C3  <0> A   1     -23.658  -1.288  51.199  0.00  0.00    +0.108 A 
ATOM     12  C4  <0> A   1     -23.964  -1.677  52.493  0.00  0.00    -0.014 A 
ATOM     13  C5  <0> A   1     -25.201  -2.217  52.779  0.00  0.00    +0.072 A 
ATOM     14  C6  <0> A   1     -26.143  -2.374  51.763  0.00  0.00    -0.064 A 
ATOM     15  F1  <0> A   1     -22.446  -0.759  50.923  0.00  0.00    -0.137 F 
ENDBRANCH   1  14
BRANCH   6  16
ATOM     16  C13 <0> A   1     -26.495  -5.244  51.861  0.00  0.00    +0.042 C 
ATOM     17  C14 <0> A   1     -26.294  -5.739  50.646  0.00  0.00    -0.002 C 
BRANCH  17  18
ATOM     18  C15 <0> A   1     -25.124  -6.653  50.389  0.00  0.00    +0.243 C 
ATOM     19  C16 <0> A   1     -25.479  -7.638  49.272  0.00  0.00    +0.051 C 
ATOM     20  C17 <0> A   1     -24.302  -8.591  49.043  0.00  0.00    +0.186 C 
ATOM     21  C18 <0> A   1     -24.014  -9.347  50.346  0.00  0.00    +0.024 C 
ATOM     22  C19 <0> A   1     -23.866  -8.333  51.460  0.00  0.00    +0.497 C 
ATOM     23  O1  <0> A   1     -22.926  -8.375  52.218  0.00  0.00    -0.449 OA
ATOM     24  O2  <0> A   1     -24.816  -7.382  51.582  0.00  0.00    -0.368 OA
BRANCH  20  25
ATOM     25  O3  <0> A   1     -23.148  -7.842  48.655  0.00  0.00    -0.564 OA
ATOM     26  H15 <0> A   1     -23.253  -6.884  48.743  0.00  0.00    +0.388 HD
ENDBRANCH  20  25
ENDBRANCH  17  18
ENDBRANCH   6  16
TORSDOF 4
ENDMDL
MODEL 10
REMARK VINA RESULT:      -7.2     14.256     17.038
REMARK  Name = CHEMBL301952
REMARK  4 active torsions:
REMARK  status: ('A' for Active; 'I' for Inactive)
REMARK    1  A    between atoms: C6_6  and  C7_7
REMARK    2  A    between atoms: C12_12  and  C13_13
REMARK    3  A    between atoms: C14_14  and  C15_15
REMARK    4  A    between atoms: C17_17  and  O3_23
REMARK                            x       y       z     vdW  Elec       q    Type
REMARK                         _______ _______ _______ _____ _____    ______ ____
ROOT
ATOM      1  C7  <0> A   1     -21.649  -0.719  52.770  0.00  0.00    -0.010 A 
ATOM      2  C8  <0> A   1     -21.005   0.511  52.854  0.00  0.00    +0.054 A 
ATOM      3  C9  <0> A   1     -21.542   1.616  52.220  0.00  0.00    -0.022 A 
ATOM      4  C10 <0> A   1     -22.719   1.507  51.497  0.00  0.00    +0.051 A 
ATOM      5  C11 <0> A   1     -23.371   0.294  51.404  0.00  0.00    -0.018 A 
ATOM      6  C12 <0> A   1     -22.841  -0.833  52.033  0.00  0.00    -0.030 A 
ATOM      7 Cl1  <0> A   1     -24.846   0.168  50.496  0.00  0.00    -0.043 Cl
ATOM      8 Cl2  <0> A   1     -20.734   3.149  52.329  0.00  0.00    -0.050 Cl
ENDROOT
BRANCH   1  14
ATOM      9  C1  <0> A   1     -20.196  -2.745  52.767  0.00  0.00    +0.067 A 
ATOM     10  C2  <0> A   1     -19.666  -3.849  53.403  0.00  0.00    -0.012 A 
ATOM     11  C3  <0> A   1     -20.008  -4.124  54.717  0.00  0.00    +0.108 A 
ATOM     12  C4  <0> A   1     -20.883  -3.295  55.399  0.00  0.00    -0.014 A 
ATOM     13  C5  <0> A   1     -21.418  -2.188  54.771  0.00  0.00    +0.072 A 
ATOM     14  C6  <0> A   1     -21.077  -1.907  53.449  0.00  0.00    -0.064 A 
ATOM     15  F1  <0> A   1     -19.486  -5.206  55.335  0.00  0.00    -0.137 F 
ENDBRANCH   1  14
BRANCH   6  16
ATOM     16  C13 <0> A   1     -23.530  -2.134  51.931  0.00  0.00    +0.042 C 
ATOM     17  C14 <0> A   1     -23.368  -2.887  50.851  0.00  0.00    -0.002 C 
BRANCH  17  18
ATOM     18  C15 <0> A   1     -24.072  -4.216  50.747  0.00  0.00    +0.243 C 
ATOM     19  C16 <0> A   1     -25.576  -4.014  50.944  0.00  0.00    +0.051 C 
ATOM     20  C17 <0> A   1     -26.283  -5.372  50.879  0.00  0.00    +0.186 C 
ATOM     21  C18 <0> A   1     -25.719  -6.279  51.980  0.00  0.00    +0.024 C 
ATOM     22  C19 <0> A   1     -24.210  -6.286  51.863  0.00  0.00    +0.497 C 
ATOM     23  O1  <0> A   1     -23.592  -7.325  51.864  0.00  0.00    -0.449 OA
ATOM     24  O2  <0> A   1     -23.576  -5.100  51.759  0.00  0.00    -0.368 OA
BRANCH  20  25
ATOM     25  O3  <0> A   1     -26.056  -5.969  49.601  0.00  0.00    -0.564 OA
ATOM     26  H15 <0> A   1     -25.505  -5.437  49.010  0.00  0.00    +0.388 HD
ENDBRANCH  20  25
ENDBRANCH  17  18
ENDBRANCH   6  16
TORSDOF 4
ENDMDL
