REMARK VINA RESULT:      -8.0      0.333      1.077
REMARK  Name = CHEMBL358623
REMARK  15 active torsions:
REMARK  status: ('A' for Active; 'I' for Inactive)
REMARK    1  A    between atoms: C1_1  and  C2_2
REMARK    2  A    between atoms: C2_2  and  C3_3
REMARK    3  A    between atoms: C2_2  and  C4_4
REMARK    4  A    between atoms: C5_5  and  C18_20
REMARK    5  A    between atoms: C6_6  and  C12_13
REMARK    6  A    between atoms: C7_7  and  C8_9
REMARK    7  A    between atoms: C9_10  and  C10_11
REMARK    8  A    between atoms: C9_10  and  C11_12
REMARK    9  A    between atoms: C19_21  and  C20_22
REMARK   10  A    between atoms: C20_22  and  C21_24
REMARK   11  A    between atoms: C20_22  and  O4_32
REMARK   12  A    between atoms: C21_24  and  C22_25
REMARK   13  A    between atoms: C22_25  and  C23_27
REMARK   14  A    between atoms: C22_25  and  O3_31
REMARK   15  A    between atoms: C23_27  and  C24_28
REMARK                            x       y       z     vdW  Elec       q    Type
REMARK                         _______ _______ _______ _____ _____    ______ ____
ROOT
ATOM      1  C4  <0> A   1     -14.960   6.475  45.398  0.00  0.00    -0.153 C 
ATOM      2  C5  <0> A   1     -14.224   7.616  45.248  0.00  0.00    -0.071 C 
ATOM      3  C6  <0> A   1     -14.516   8.725  46.122  0.00  0.00    -0.072 C 
ATOM      4  C7  <0> A   1     -15.528   8.547  47.056  0.00  0.00    -0.108 C 
ATOM      5  S1  <0> A   1     -16.074   6.881  46.728  0.00  0.00    +0.076 S 
ENDROOT
BRANCH   3   6
ATOM      6  C12 <0> A   1     -13.767   9.999  46.029  0.00  0.00    -0.030 A 
ATOM      7  C13 <0> A   1     -14.195  11.000  45.157  0.00  0.00    +0.064 A 
ATOM      8  C14 <0> A   1     -13.494  12.184  45.074  0.00  0.00    -0.013 A 
ATOM      9  C15 <0> A   1     -12.366  12.382  45.855  0.00  0.00    +0.099 A 
ATOM     10  C16 <0> A   1     -11.937  11.391  46.722  0.00  0.00    -0.016 A 
ATOM     11  C17 <0> A   1     -12.634  10.204  46.818  0.00  0.00    +0.049 A 
ATOM     12  F1  <0> A   1     -11.683  13.544  45.770  0.00  0.00    -0.140 F 
ENDBRANCH   3   6
BRANCH   4  13
ATOM     13  C8  <0> A   1     -16.029   9.495  48.059  0.00  0.00    +0.043 C 
ATOM     14  C9  <0> A   1     -15.516   9.498  49.288  0.00  0.00    -0.109 C 
ATOM     15  C10 <0> A   1     -14.422   8.527  49.649  0.00  0.00    +0.096 C 
ATOM     16  C11 <0> A   1     -16.031  10.471  50.317  0.00  0.00    +0.090 C 
ENDBRANCH   4  13
BRANCH   1  18
ATOM     17  C1  <0> A   1     -14.222   4.109  45.503  0.00  0.00    +0.032 C 
ATOM     18  C2  <0> A   1     -14.858   5.186  44.622  0.00  0.00    +0.081 C 
ATOM     19  C3  <0> A   1     -16.257   4.737  44.194  0.00  0.00    +0.033 C 
ENDBRANCH   1  18
BRANCH   2  20
ATOM     20  C18 <0> A   1     -13.165   7.712  44.223  0.00  0.00    +0.014 C 
ATOM     21  C19 <0> A   1     -13.483   7.672  42.936  0.00  0.00    -0.046 C 
BRANCH  21  22
ATOM     22  C20 <0> A   1     -12.402   7.770  41.890  0.00  0.00    +0.249 C 
BRANCH  22  23
ATOM     23  O4  <0> A   1     -11.639   6.562  41.880  0.00  0.00    -0.538 OA
ATOM     24  H28 <0> A   1     -11.637   6.091  42.724  0.00  0.00    +0.364 HD
ENDBRANCH  22  23
BRANCH  22  25
ATOM     25  C21 <0> A   1     -13.040   7.983  40.516  0.00  0.00    -0.042 C 
BRANCH  25  26
ATOM     26  C22 <0> A   1     -12.473   9.255  39.883  0.00  0.00    +0.230 C 
BRANCH  26  27
ATOM     27  O3  <0> A   1     -12.821   9.294  38.498  0.00  0.00    -0.528 OA
ATOM     28  H27 <0> A   1     -12.788  10.179  38.108  0.00  0.00    +0.350 HD
ENDBRANCH  26  27
BRANCH  26  29
ATOM     29  C23 <0> A   1     -13.057  10.481  40.589  0.00  0.00    -0.102 C 
BRANCH  29  30
ATOM     30  C24 <0> A   1     -13.882  11.278  39.613  0.00  0.00    +0.491 C 
ATOM     31  O1  <0> A   1     -15.096  11.158  39.599  0.00  0.00    -0.681 OA
ATOM     32  O2  <0> A   1     -13.337  12.043  38.836  0.00  0.00    -0.713 OA
ENDBRANCH  29  30
ENDBRANCH  26  29
ENDBRANCH  25  26
ENDBRANCH  22  25
ENDBRANCH  21  22
ENDBRANCH   2  20
TORSDOF 11
