REMARK VINA RESULT:      -7.1      2.478      4.808
REMARK  Name = CHEMBL101774
REMARK  17 active torsions:
REMARK  status: ('A' for Active; 'I' for Inactive)
REMARK    1  A    between atoms: C1_1  and  C2_2
REMARK    2  A    between atoms: C4_4  and  C25_32
REMARK    3  A    between atoms: C5_5  and  O1_20
REMARK    4  A    between atoms: C6_6  and  C8_8
REMARK    5  A    between atoms: C8_8  and  C9_9
REMARK    6  A    between atoms: C8_8  and  C13_13
REMARK    7  A    between atoms: C9_9  and  C10_10
REMARK    8  A    between atoms: C10_10  and  C11_11
REMARK    9  A    between atoms: C10_10  and  C12_12
REMARK   10  A    between atoms: O1_20  and  C19_21
REMARK   11  A    between atoms: C19_21  and  C20_22
REMARK   12  A    between atoms: C20_22  and  C21_23
REMARK   13  A    between atoms: C20_22  and  O5_31
REMARK   14  A    between atoms: C21_23  and  C22_24
REMARK   15  A    between atoms: C22_24  and  C23_26
REMARK   16  A    between atoms: C22_24  and  O4_30
REMARK   17  A    between atoms: C23_26  and  C24_27
REMARK                            x       y       z     vdW  Elec       q    Type
REMARK                         _______ _______ _______ _____ _____    ______ ____
ROOT
ATOM      1  C1  <0> A   1     -10.925   5.574  49.230  0.00  0.00    +0.087 C 
ATOM      2  C2  <0> A   1     -11.113   6.368  47.962  0.00  0.00    -0.087 A 
ATOM      3  C3  <0> A   1     -10.023   6.661  47.164  0.00  0.00    +0.008 A 
ATOM      4  C4  <0> A   1     -10.192   7.389  46.002  0.00  0.00    -0.094 A 
ATOM      5  C5  <0> A   1     -11.457   7.826  45.637  0.00  0.00    +0.096 A 
ATOM      6  C6  <0> A   1     -12.550   7.529  46.440  0.00  0.00    -0.076 A 
ATOM      7  C7  <0> A   1     -12.376   6.797  47.598  0.00  0.00    +0.012 A 
ATOM      8  C25 <0> A   1      -9.004   7.709  45.132  0.00  0.00    +0.096 C 
ENDROOT
BRANCH   6   9
ATOM      9  C8  <0> A   1     -13.925   8.003  46.046  0.00  0.00    +0.088 C 
BRANCH   9  10
ATOM     10  C13 <0> A   1     -14.723   6.839  45.516  0.00  0.00    -0.080 A 
ATOM     11  C14 <0> A   1     -14.741   6.574  44.159  0.00  0.00    +0.044 A 
ATOM     12  C15 <0> A   1     -15.472   5.507  43.672  0.00  0.00    -0.018 A 
ATOM     13  C16 <0> A   1     -16.186   4.702  44.544  0.00  0.00    +0.093 A 
ATOM     14  C17 <0> A   1     -16.167   4.968  45.903  0.00  0.00    -0.009 A 
ATOM     15  C18 <0> A   1     -15.431   6.032  46.388  0.00  0.00    +0.046 A 
ATOM     16  F1  <0> A   1     -16.901   3.659  44.069  0.00  0.00    -0.141 F 
ENDBRANCH   9  10
BRANCH   9  17
ATOM     17  C9  <0> A   1     -14.631   8.592  47.269  0.00  0.00    +0.032 C 
BRANCH  17  18
ATOM     18  C10 <0> A   1     -14.829  10.095  47.068  0.00  0.00    -0.023 C 
ATOM     19  C11 <0> A   1     -14.001  10.861  48.102  0.00  0.00    +0.018 C 
ATOM     20  C12 <0> A   1     -14.375  10.486  45.660  0.00  0.00    +0.011 C 
ENDBRANCH  17  18
ENDBRANCH   9  17
ENDBRANCH   6   9
BRANCH   5  21
ATOM     21  O1  <0> A   1     -11.627   8.543  44.495  0.00  0.00    -0.317 OA
BRANCH  21  22
ATOM     22  C19 <0> A   1     -11.673   7.809  43.269  0.00  0.00    +0.144 C 
BRANCH  22  23
ATOM     23  C20 <0> A   1     -12.024   8.756  42.120  0.00  0.00    +0.224 C 
BRANCH  23  24
ATOM     24  O5  <0> A   1     -11.931   8.054  40.879  0.00  0.00    -0.531 OA
ATOM     25  H29 <0> A   1     -11.469   8.544  40.184  0.00  0.00    +0.363 HD
ENDBRANCH  23  24
BRANCH  23  26
ATOM     26  C21 <0> A   1     -13.450   9.278  42.306  0.00  0.00    -0.044 C 
BRANCH  26  27
ATOM     27  C22 <0> A   1     -13.553  10.694  41.736  0.00  0.00    +0.235 C 
BRANCH  27  28
ATOM     28  O4  <0> A   1     -12.241  11.224  41.536  0.00  0.00    -0.527 OA
ATOM     29  H28 <0> A   1     -11.823  10.939  40.712  0.00  0.00    +0.350 HD
ENDBRANCH  27  28
BRANCH  27  30
ATOM     30  C23 <0> A   1     -14.295  10.652  40.398  0.00  0.00    -0.101 C 
BRANCH  30  31
ATOM     31  C24 <0> A   1     -13.335  10.972  39.281  0.00  0.00    +0.491 C 
ATOM     32  O2  <0> A   1     -12.610  10.101  38.833  0.00  0.00    -0.680 OA
ATOM     33  O3  <0> A   1     -13.285  12.102  38.826  0.00  0.00    -0.713 OA
ENDBRANCH  30  31
ENDBRANCH  27  30
ENDBRANCH  26  27
ENDBRANCH  23  26
ENDBRANCH  22  23
ENDBRANCH  21  22
ENDBRANCH   5  21
TORSDOF 13
