REMARK VINA RESULT:      -8.1      4.557      9.305
REMARK  Name = CHEMBL352790
REMARK  9 active torsions:
REMARK  status: ('A' for Active; 'I' for Inactive)
REMARK    1  A    between atoms: C1_1  and  C2_2
REMARK    2  A    between atoms: C4_5  and  O4_28
REMARK    3  A    between atoms: C6_8  and  C13_17
REMARK    4  A    between atoms: C7_10  and  C12_16
REMARK    5  A    between atoms: C13_17  and  C14_18
REMARK    6  A    between atoms: C14_18  and  C15_19
REMARK    7  A    between atoms: C17_21  and  O3_27
REMARK    8  A    between atoms: O4_28  and  C20_29
REMARK    9  A    between atoms: C20_29  and  C21_31
REMARK                            x       y       z     vdW  Elec       q    Type
REMARK                         _______ _______ _______ _____ _____    ______ ____
ROOT
ATOM      1  C1  <0> A   1       0.124  13.112  56.088  0.00  0.00    +0.033 C 
ATOM      2  C2  <0> A   1      -0.572  11.805  55.706  0.00  0.00    +0.026 C 
ATOM      3  C3  <0> A   1       0.161  11.151  54.526  0.00  0.00    +0.019 C 
ATOM      4  C4  <0> A   1      -0.544   9.839  54.190  0.00  0.00    +0.179 C 
ATOM      5  C5  <0> A   1      -1.995  10.054  53.832  0.00  0.00    +0.043 C 
ATOM      6  C6  <0> A   1      -2.215  10.069  52.317  0.00  0.00    +0.013 C 
ATOM      7  C7  <0> A   1      -3.719  10.055  52.039  0.00  0.00    +0.022 C 
ATOM      8  C8  <0> A   1      -4.438  11.105  52.831  0.00  0.00    -0.032 C 
ATOM      9  C9  <0> A   1      -3.947  11.679  53.916  0.00  0.00    -0.006 C 
ATOM     10  C10 <0> A   1      -2.601  11.301  54.404  0.00  0.00    -0.086 C 
ATOM     11  C11 <0> A   1      -1.986  12.088  55.269  0.00  0.00    -0.021 C 
ATOM     12  C12 <0> A   1      -4.282   8.681  52.407  0.00  0.00    +0.029 C 
ENDROOT
BRANCH   6  13
ATOM     13  C13 <0> A   1      -1.563   8.834  51.692  0.00  0.00    +0.056 C 
BRANCH  13  14
ATOM     14  C14 <0> A   1      -1.420   9.041  50.183  0.00  0.00    +0.039 C 
BRANCH  14  15
ATOM     15  C15 <0> A   1      -2.326   8.053  49.444  0.00  0.00    +0.192 C 
ATOM     16  C16 <0> A   1      -2.044   6.632  49.940  0.00  0.00    +0.039 C 
ATOM     17  C17 <0> A   1      -2.921   5.642  49.169  0.00  0.00    +0.183 C 
ATOM     18  C18 <0> A   1      -2.603   5.756  47.674  0.00  0.00    +0.018 C 
ATOM     19  C19 <0> A   1      -2.703   7.212  47.276  0.00  0.00    +0.495 C 
ATOM     20  O1  <0> A   1      -3.336   7.549  46.305  0.00  0.00    -0.452 OA
ATOM     21  O2  <0> A   1      -2.063   8.124  48.039  0.00  0.00    -0.365 OA
BRANCH  17  22
ATOM     22  O3  <0> A   1      -4.299   5.949  49.392  0.00  0.00    -0.562 OA
ATOM     23  H27 <0> A   1      -4.482   6.337  50.259  0.00  0.00    +0.386 HD
ENDBRANCH  17  22
ENDBRANCH  14  15
ENDBRANCH  13  14
ENDBRANCH   6  13
BRANCH   4  24
ATOM     24  O4  <0> A   1       0.120   9.224  53.083  0.00  0.00    -0.316 OA
BRANCH  24  25
ATOM     25  C20 <0> A   1       0.921   8.177  53.356  0.00  0.00    +0.498 C 
ATOM     26  O5  <0> A   1       0.590   7.361  54.193  0.00  0.00    -0.498 OA
BRANCH  25  27
ATOM     27  C21 <0> A   1       2.201   8.019  52.637  0.00  0.00    -0.137 A 
ATOM     28  C22 <0> A   1       2.350   8.541  51.349  0.00  0.00    +0.105 A 
ATOM     29  C23 <0> A   1       3.548   8.391  50.683  0.00  0.00    -0.014 A 
ATOM     30  C24 <0> A   1       4.603   7.727  51.288  0.00  0.00    +0.137 A 
ATOM     31  C25 <0> A   1       4.460   7.207  52.566  0.00  0.00    -0.017 A 
ATOM     32  C26 <0> A   1       3.270   7.356  53.244  0.00  0.00    +0.124 A 
ATOM     33  F1  <0> A   1       5.774   7.582  50.630  0.00  0.00    -0.131 F 
ENDBRANCH  25  27
ENDBRANCH  24  25
ENDBRANCH   4  24
TORSDOF 7
