REMARK VINA RESULT:      -7.7      2.559      4.731
REMARK  Name = CHEMBL333258
REMARK  7 active torsions:
REMARK  status: ('A' for Active; 'I' for Inactive)
REMARK    1  A    between atoms: C1_1  and  C2_2
REMARK    2  A    between atoms: C2_2  and  C3_3
REMARK    3  A    between atoms: C2_2  and  C4_4
REMARK    4  A    between atoms: C5_5  and  C19_22
REMARK    5  A    between atoms: C6_6  and  C13_15
REMARK    6  A    between atoms: C20_23  and  C21_24
REMARK    7  A    between atoms: C23_27  and  O3_33
REMARK                            x       y       z     vdW  Elec       q    Type
REMARK                         _______ _______ _______ _____ _____    ______ ____
ROOT
ATOM      1  C4  <0> A   1     -24.833  -2.778  51.902  0.00  0.00    +0.189 A 
ATOM      2  C5  <0> A   1     -25.620  -3.939  51.953  0.00  0.00    -0.092 A 
ATOM      3  C6  <0> A   1     -27.015  -3.820  52.026  0.00  0.00    +0.028 A 
ATOM      4  C7  <0> A   1     -27.565  -2.514  52.045  0.00  0.00    -0.083 A 
ATOM      5  C8  <0> A   1     -28.950  -2.310  52.117  0.00  0.00    +0.057 A 
ATOM      6  C9  <0> A   1     -29.443  -1.039  52.134  0.00  0.00    -0.031 A 
ATOM      7  C10 <0> A   1     -28.587   0.060  52.078  0.00  0.00    +0.049 A 
ATOM      8  C11 <0> A   1     -27.238  -0.105  52.006  0.00  0.00    +0.071 A 
ATOM      9  C12 <0> A   1     -26.692  -1.400  51.989  0.00  0.00    +0.137 A 
ATOM     10  N1  <0> A   1     -25.367  -1.584  51.926  0.00  0.00    -0.462 NA
ATOM     11 Cl1  <0> A   1     -31.159  -0.786  52.223  0.00  0.00    -0.060 Cl
ENDROOT
BRANCH   3  12
ATOM     12  C13 <0> A   1     -27.883  -5.016  52.082  0.00  0.00    -0.067 A 
ATOM     13  C14 <0> A   1     -28.161  -5.623  53.308  0.00  0.00    +0.073 A 
ATOM     14  C15 <0> A   1     -28.971  -6.737  53.354  0.00  0.00    -0.011 A 
ATOM     15  C16 <0> A   1     -29.508  -7.256  52.186  0.00  0.00    +0.110 A 
ATOM     16  C17 <0> A   1     -29.234  -6.658  50.966  0.00  0.00    -0.009 A 
ATOM     17  C18 <0> A   1     -28.430  -5.539  50.909  0.00  0.00    +0.067 A 
ATOM     18  F1  <0> A   1     -30.301  -8.349  52.237  0.00  0.00    -0.136 F 
ENDBRANCH   3  12
BRANCH   1  20
ATOM     19  C1  <0> A   1     -22.829  -2.237  50.545  0.00  0.00    +0.042 C 
ATOM     20  C2  <0> A   1     -23.334  -2.910  51.823  0.00  0.00    +0.037 C 
ATOM     21  C3  <0> A   1     -22.698  -2.236  53.040  0.00  0.00    +0.041 C 
ENDBRANCH   1  20
BRANCH   2  22
ATOM     22  C19 <0> A   1     -24.986  -5.271  51.930  0.00  0.00    +0.056 C 
ATOM     23  C20 <0> A   1     -24.829  -5.913  50.778  0.00  0.00    -0.014 C 
BRANCH  23  24
ATOM     24  C21 <0> A   1     -24.182  -7.273  50.754  0.00  0.00    +0.243 C 
ATOM     25  C22 <0> A   1     -25.201  -8.316  50.289  0.00  0.00    +0.051 C 
ATOM     26  C23 <0> A   1     -24.551  -9.704  50.306  0.00  0.00    +0.186 C 
ATOM     27  C24 <0> A   1     -24.087 -10.016  51.733  0.00  0.00    +0.023 C 
ATOM     28  C25 <0> A   1     -23.243  -8.859  52.222  0.00  0.00    +0.497 C 
ATOM     29  O1  <0> A   1     -22.164  -9.048  52.733  0.00  0.00    -0.449 OA
ATOM     30  O2  <0> A   1     -23.728  -7.609  52.070  0.00  0.00    -0.368 OA
BRANCH  26  31
ATOM     31  O3  <0> A   1     -23.431  -9.718  49.421  0.00  0.00    -0.564 OA
ATOM     32  H23 <0> A   1     -22.841 -10.475  49.544  0.00  0.00    +0.388 HD
ENDBRANCH  26  31
ENDBRANCH  23  24
ENDBRANCH   2  22
TORSDOF 5
