REMARK VINA RESULT:      -8.2      0.000      0.000
REMARK  Name = CHEMBL82467
REMARK  16 active torsions:
REMARK  status: ('A' for Active; 'I' for Inactive)
REMARK    1  A    between atoms: C1_1  and  C2_2
REMARK    2  A    between atoms: C2_2  and  C3_3
REMARK    3  A    between atoms: C3_3  and  C4_4
REMARK    4  A    between atoms: C3_3  and  C5_5
REMARK    5  A    between atoms: C3_3  and  C6_6
REMARK    6  A    between atoms: C6_6  and  O2_8
REMARK    7  A    between atoms: O2_8  and  C7_9
REMARK    8  A    between atoms: C9_12  and  C24_35
REMARK    9  A    between atoms: C9_12  and  C25_36
REMARK   10  A    between atoms: C12_17  and  C17_24
REMARK   11  A    between atoms: C13_19  and  C16_23
REMARK   12  A    between atoms: C17_24  and  C18_25
REMARK   13  A    between atoms: C18_25  and  C19_26
REMARK   14  A    between atoms: C21_28  and  O6_34
REMARK   15  A    between atoms: C25_36  and  S1_37
REMARK   16  A    between atoms: S1_37  and  C26_38
REMARK                            x       y       z     vdW  Elec       q    Type
REMARK                         _______ _______ _______ _____ _____    ______ ____
ROOT
ATOM      1  C7  <0> A   1     -27.873  -6.502  52.082  0.00  0.00    +0.187 C 
ATOM      2  C8  <0> A   1     -26.588  -7.104  51.542  0.00  0.00    +0.020 C 
ATOM      3  C9  <0> A   1     -26.641  -7.446  50.057  0.00  0.00    +0.156 C 
ATOM      4  O3  <0> A   1     -27.239  -6.392  49.305  0.00  0.00    -0.345 OA
ATOM      5  C10 <0> A   1     -28.548  -6.027  49.715  0.00  0.00    +0.161 C 
ATOM      6  C11 <0> A   1     -28.541  -5.506  51.143  0.00  0.00    -0.013 C 
ATOM      7  C12 <0> A   1     -27.964  -4.110  51.283  0.00  0.00    +0.001 C 
ATOM      8  C13 <0> A   1     -28.643  -3.145  50.309  0.00  0.00    -0.013 C 
ATOM      9  C14 <0> A   1     -28.490  -3.657  48.877  0.00  0.00    +0.007 C 
ATOM     10  C15 <0> A   1     -29.165  -5.020  48.749  0.00  0.00    +0.041 C 
ATOM     11  C16 <0> A   1     -27.996  -1.762  50.429  0.00  0.00    +0.018 C 
ATOM     12  C24 <0> A   1     -27.392  -8.760  49.841  0.00  0.00    +0.042 C 
ENDROOT
BRANCH   1  13
ATOM     13  O2  <0> A   1     -28.802  -7.549  52.401  0.00  0.00    -0.346 OA
BRANCH  13  14
ATOM     14  C6  <0> A   1     -29.509  -7.413  53.534  0.00  0.00    +0.469 C 
ATOM     15  O1  <0> A   1     -29.050  -6.789  54.461  0.00  0.00    -0.502 OA
BRANCH  14  16
ATOM     16  C3  <0> A   1     -30.875  -8.039  53.650  0.00  0.00    -0.052 C 
ATOM     17  C4  <0> A   1     -30.977  -9.220  52.682  0.00  0.00    +0.062 C 
ATOM     18  C5  <0> A   1     -31.943  -7.001  53.303  0.00  0.00    +0.061 C 
BRANCH  16  20
ATOM     19  C1  <0> A   1     -30.509  -9.941  55.229  0.00  0.00    +0.025 C 
ATOM     20  C2  <0> A   1     -31.090  -8.533  55.082  0.00  0.00    +0.036 C 
ENDBRANCH  16  20
ENDBRANCH  14  16
ENDBRANCH  13  14
ENDBRANCH   1  13
BRANCH   7  21
ATOM     21  C17 <0> A   1     -26.454  -4.063  51.070  0.00  0.00    +0.024 C 
BRANCH  21  22
ATOM     22  C18 <0> A   1     -25.776  -3.543  52.338  0.00  0.00    +0.078 C 
BRANCH  22  23
ATOM     23  C19 <0> A   1     -24.741  -2.479  51.966  0.00  0.00    +0.184 C 
ATOM     24  C20 <0> A   1     -23.726  -3.074  50.987  0.00  0.00    +0.044 C 
ATOM     25  C21 <0> A   1     -22.668  -2.019  50.648  0.00  0.00    +0.183 C 
ATOM     26  C22 <0> A   1     -21.969  -1.584  51.942  0.00  0.00    +0.011 C 
ATOM     27  C23 <0> A   1     -23.030  -1.192  52.948  0.00  0.00    +0.488 C 
ATOM     28  O4  <0> A   1     -22.956  -0.151  53.555  0.00  0.00    -0.447 OA
ATOM     29  O5  <0> A   1     -24.060  -2.040  53.146  0.00  0.00    -0.357 OA
BRANCH  25  30
ATOM     30  O6  <0> A   1     -23.297  -0.890  50.039  0.00  0.00    -0.562 OA
ATOM     31  H36 <0> A   1     -24.225  -1.033  49.809  0.00  0.00    +0.385 HD
ENDBRANCH  25  30
ENDBRANCH  22  23
ENDBRANCH  21  22
ENDBRANCH   7  21
BRANCH   3  32
ATOM     32  C25 <0> A   1     -25.198  -7.631  49.551  0.00  0.00    +0.095 C 
BRANCH  32  33
ATOM     33  S1  <0> A   1     -24.211  -8.457  50.830  0.00  0.00    -0.102 S 
BRANCH  33  34
ATOM     34  C26 <0> A   1     -24.263 -10.159  50.376  0.00  0.00    -0.100 A 
ATOM     35  C27 <0> A   1     -24.070 -10.532  49.051  0.00  0.00    -0.024 A 
ATOM     36  C28 <0> A   1     -24.111 -11.867  48.699  0.00  0.00    +0.026 A 
ATOM     37  C29 <0> A   1     -24.344 -12.831  49.662  0.00  0.00    +0.002 A 
ATOM     38  C30 <0> A   1     -24.538 -12.463  50.981  0.00  0.00    +0.028 A 
ATOM     39  C31 <0> A   1     -24.492 -11.131  51.342  0.00  0.00    +0.030 A 
ENDBRANCH  33  34
ENDBRANCH  32  33
ENDBRANCH   3  32
TORSDOF 11
