REMARK VINA RESULT:      -8.6      0.872      1.594
REMARK  Name = CHEMBL310463
REMARK  17 active torsions:
REMARK  status: ('A' for Active; 'I' for Inactive)
REMARK    1  A    between atoms: C1_1  and  C2_2
REMARK    2  A    between atoms: C2_2  and  C3_3
REMARK    3  A    between atoms: C3_3  and  C4_4
REMARK    4  A    between atoms: C3_3  and  C5_5
REMARK    5  A    between atoms: C3_3  and  C6_6
REMARK    6  A    between atoms: C6_6  and  O2_8
REMARK    7  A    between atoms: O2_8  and  C7_9
REMARK    8  A    between atoms: C9_12  and  C33_48
REMARK    9  A    between atoms: C10_14  and  O6_37
REMARK   10  A    between atoms: C13_19  and  C18_26
REMARK   11  A    between atoms: C14_21  and  C17_25
REMARK   12  A    between atoms: C18_26  and  C19_27
REMARK   13  A    between atoms: C19_27  and  C20_28
REMARK   14  A    between atoms: C22_30  and  O5_36
REMARK   15  A    between atoms: O6_37  and  C25_38
REMARK   16  A    between atoms: N1_40  and  C26_41
REMARK   17  A    between atoms: C26_41  and  C27_42
REMARK                            x       y       z     vdW  Elec       q    Type
REMARK                         _______ _______ _______ _____ _____    ______ ____
ROOT
ATOM      1  C7  <0> A   1      -3.882   5.735  50.170  0.00  0.00    +0.185 C 
ATOM      2  C8  <0> A   1      -4.055   5.636  51.696  0.00  0.00    +0.011 C 
ATOM      3  C9  <0> A   1      -3.797   7.003  52.327  0.00  0.00    -0.015 C 
ATOM      4  C10 <0> A   1      -2.367   7.444  52.014  0.00  0.00    +0.207 C 
ATOM      5  C11 <0> A   1      -2.161   7.514  50.506  0.00  0.00    +0.015 C 
ATOM      6  C12 <0> A   1      -2.457   6.156  49.851  0.00  0.00    +0.025 C 
ATOM      7  C13 <0> A   1      -2.135   6.267  48.373  0.00  0.00    -0.006 C 
ATOM      8  C14 <0> A   1      -2.840   7.405  47.657  0.00  0.00    -0.019 C 
ATOM      9  C15 <0> A   1      -2.759   8.724  48.409  0.00  0.00    +0.018 C 
ATOM     10  C16 <0> A   1      -3.089   8.561  49.891  0.00  0.00    +0.022 C 
ATOM     11  C17 <0> A   1      -4.285   7.055  47.311  0.00  0.00    +0.015 C 
ATOM     12  C33 <0> A   1      -3.979   6.906  53.844  0.00  0.00    +0.030 C 
ENDROOT
BRANCH   1  13
ATOM     13  O2  <0> A   1      -4.191   4.451  49.625  0.00  0.00    -0.334 OA
BRANCH  13  14
ATOM     14  C6  <0> A   1      -5.474   4.218  49.306  0.00  0.00    +0.471 C 
ATOM     15  O1  <0> A   1      -5.981   4.796  48.375  0.00  0.00    -0.508 OA
BRANCH  14  16
ATOM     16  C3  <0> A   1      -6.283   3.232  50.112  0.00  0.00    -0.057 C 
ATOM     17  C4  <0> A   1      -5.352   2.443  51.034  0.00  0.00    +0.056 C 
ATOM     18  C5  <0> A   1      -7.004   2.270  49.166  0.00  0.00    +0.077 C 
BRANCH  16  20
ATOM     19  C1  <0> A   1      -8.707   3.786  50.353  0.00  0.00    +0.023 C 
ATOM     20  C2  <0> A   1      -7.314   3.988  50.953  0.00  0.00    +0.033 C 
ENDBRANCH  16  20
ENDBRANCH  14  16
ENDBRANCH  13  14
ENDBRANCH   1  13
BRANCH   7  21
ATOM     21  C18 <0> A   1      -2.352   4.951  47.628  0.00  0.00    +0.035 C 
BRANCH  21  22
ATOM     22  C19 <0> A   1      -1.716   5.041  46.239  0.00  0.00    +0.043 C 
BRANCH  22  23
ATOM     23  C20 <0> A   1      -2.643   4.390  45.210  0.00  0.00    +0.196 C 
ATOM     24  C21 <0> A   1      -3.674   3.518  45.932  0.00  0.00    +0.037 C 
ATOM     25  C22 <0> A   1      -4.575   2.835  44.897  0.00  0.00    +0.182 C 
ATOM     26  C23 <0> A   1      -3.704   1.975  43.972  0.00  0.00    +0.015 C 
ATOM     27  C24 <0> A   1      -2.581   2.838  43.440  0.00  0.00    +0.495 C 
ATOM     28  O3  <0> A   1      -2.325   2.865  42.260  0.00  0.00    -0.447 OA
ATOM     29  O4  <0> A   1      -1.873   3.575  44.321  0.00  0.00    -0.361 OA
BRANCH  25  30
ATOM     30  O5  <0> A   1      -5.258   3.827  44.128  0.00  0.00    -0.563 OA
ATOM     31  H38 <0> A   1      -5.608   3.502  43.288  0.00  0.00    +0.386 HD
ENDBRANCH  25  30
ENDBRANCH  22  23
ENDBRANCH  21  22
ENDBRANCH   7  21
BRANCH   4  32
ATOM     32  O6  <0> A   1      -1.444   6.517  52.588  0.00  0.00    -0.353 OA
BRANCH  32  33
ATOM     33  C25 <0> A   1      -0.396   7.033  53.257  0.00  0.00    +0.647 C 
ATOM     34  O7  <0> A   1      -0.578   7.858  54.130  0.00  0.00    -0.565 OA
ATOM     35  N1  <0> A   1       0.856   6.634  52.959  0.00  0.00    -0.707 N 
ATOM     36  H39 <0> A   1       1.003   5.974  52.262  0.00  0.00    +0.407 HD
BRANCH  35  37
ATOM     37  C26 <0> A   1       1.998   7.195  53.686  0.00  0.00    +0.341 C 
BRANCH  37  38
ATOM     38  C27 <0> A   1       3.144   7.413  52.733  0.00  0.00    -0.115 A 
ATOM     39  C28 <0> A   1       4.438   7.141  53.135  0.00  0.00    +0.028 A 
ATOM     40  C29 <0> A   1       5.490   7.340  52.260  0.00  0.00    +0.004 A 
ATOM     41  C30 <0> A   1       5.247   7.812  50.983  0.00  0.00    +0.017 A 
ATOM     42  C31 <0> A   1       3.953   8.083  50.581  0.00  0.00    +0.004 A 
ATOM     43  C32 <0> A   1       2.901   7.879  51.454  0.00  0.00    +0.028 A 
ENDBRANCH  37  38
ENDBRANCH  35  37
ENDBRANCH  32  33
ENDBRANCH   4  32
TORSDOF 12
