REMARK VINA RESULT:      -7.6      3.195      9.265
REMARK  Name = CHEMBL400874
REMARK  18 active torsions:
REMARK  status: ('A' for Active; 'I' for Inactive)
REMARK    1  A    between atoms: C1_1  and  C2_2
REMARK    2  A    between atoms: C2_2  and  C3_3
REMARK    3  A    between atoms: C2_2  and  N1_4
REMARK    4  A    between atoms: C4_5  and  C29_34
REMARK    5  A    between atoms: C5_6  and  C23_27
REMARK    6  A    between atoms: C6_7  and  C17_21
REMARK    7  A    between atoms: C7_8  and  C8_9
REMARK    8  A    between atoms: N2_11  and  C9_12
REMARK    9  A    between atoms: C9_12  and  C10_13
REMARK   10  A    between atoms: C13_16  and  C16_19
REMARK   11  A    between atoms: C29_34  and  C30_35
REMARK   12  A    between atoms: C30_35  and  C31_36
REMARK   13  A    between atoms: C31_36  and  C32_38
REMARK   14  A    between atoms: C31_36  and  O5_46
REMARK   15  A    between atoms: C32_38  and  C33_39
REMARK   16  A    between atoms: C33_39  and  C34_41
REMARK   17  A    between atoms: C33_39  and  O4_45
REMARK   18  A    between atoms: C34_41  and  C35_42
REMARK                            x       y       z     vdW  Elec       q    Type
REMARK                         _______ _______ _______ _____ _____    ______ ____
ROOT
ATOM      1  N1  <0> A   1     -15.496   6.211  46.222  0.00  0.00    -0.401 N 
ATOM      2  C4  <0> A   1     -16.176   6.646  47.310  0.00  0.00    +0.074 C 
ATOM      3  C5  <0> A   1     -15.541   7.736  47.824  0.00  0.00    -0.121 C 
ATOM      4  C6  <0> A   1     -14.406   7.991  47.013  0.00  0.00    -0.060 C 
ATOM      5  C7  <0> A   1     -14.400   7.018  46.021  0.00  0.00    -0.031 C 
ENDROOT
BRANCH   3   6
ATOM      6  C23 <0> A   1     -15.961   8.514  49.016  0.00  0.00    -0.009 A 
ATOM      7  C24 <0> A   1     -16.622   9.730  48.859  0.00  0.00    +0.050 A 
ATOM      8  C25 <0> A   1     -17.011  10.451  49.970  0.00  0.00    -0.016 A 
ATOM      9  C26 <0> A   1     -16.744   9.966  51.240  0.00  0.00    +0.095 A 
ATOM     10  C27 <0> A   1     -16.086   8.758  51.401  0.00  0.00    -0.018 A 
ATOM     11  C28 <0> A   1     -15.699   8.027  50.296  0.00  0.00    +0.056 A 
ATOM     12  F1  <0> A   1     -17.125  10.676  52.325  0.00  0.00    -0.142 F 
ENDBRANCH   3   6
BRANCH   4  13
ATOM     13  C17 <0> A   1     -13.418   9.080  47.191  0.00  0.00    -0.009 A 
ATOM     14  C18 <0> A   1     -12.409   8.960  48.146  0.00  0.00    +0.025 A 
ATOM     15  C19 <0> A   1     -11.492   9.978  48.307  0.00  0.00    +0.003 A 
ATOM     16  C20 <0> A   1     -11.573  11.117  47.526  0.00  0.00    -0.003 A 
ATOM     17  C21 <0> A   1     -12.573  11.241  46.578  0.00  0.00    -0.000 A 
ATOM     18  C22 <0> A   1     -13.492  10.228  46.402  0.00  0.00    +0.010 A 
ENDBRANCH   4  13
BRANCH   5  19
ATOM     19  C8  <0> A   1     -13.407   6.879  44.953  0.00  0.00    +0.605 C 
ATOM     20  O1  <0> A   1     -12.270   6.533  45.221  0.00  0.00    -0.518 OA
ATOM     21  N2  <0> A   1     -13.750   7.134  43.675  0.00  0.00    -0.718 N 
ATOM     22  H10 <0> A   1     -14.636   7.471  43.470  0.00  0.00    +0.405 HD
BRANCH  21  23
ATOM     23  C9  <0> A   1     -12.787   6.900  42.598  0.00  0.00    +0.323 C 
BRANCH  23  24
ATOM     24  C10 <0> A   1     -12.782   8.082  41.663  0.00  0.00    -0.081 A 
ATOM     25  C11 <0> A   1     -12.719   7.878  40.297  0.00  0.00    +0.039 A 
ATOM     26  C12 <0> A   1     -12.714   8.956  39.434  0.00  0.00    +0.066 A 
ATOM     27  C13 <0> A   1     -12.774  10.254  39.945  0.00  0.00    -0.018 A 
ATOM     28  C14 <0> A   1     -12.838  10.452  41.325  0.00  0.00    +0.065 A 
ATOM     29  C15 <0> A   1     -12.847   9.366  42.176  0.00  0.00    +0.037 A 
BRANCH  27  30
ATOM     30  C16 <0> A   1     -12.770  11.377  39.056  0.00  0.00    +0.248 C 
ATOM     31  N3  <0> A   1     -12.766  12.269  38.352  0.00  0.00    -0.408 NA
ENDBRANCH  27  30
ENDBRANCH  23  24
ENDBRANCH  21  23
ENDBRANCH   5  19
BRANCH   1  33
ATOM     32  C1  <0> A   1     -16.377   5.549  44.039  0.00  0.00    +0.046 C 
ATOM     33  C2  <0> A   1     -15.864   5.059  45.394  0.00  0.00    +0.229 C 
ATOM     34  C3  <0> A   1     -14.639   4.167  45.185  0.00  0.00    +0.043 C 
ENDBRANCH   1  33
BRANCH   2  35
ATOM     35  C29 <0> A   1     -17.433   6.024  47.860  0.00  0.00    +0.116 C 
BRANCH  35  36
ATOM     36  C30 <0> A   1     -18.652   6.772  47.319  0.00  0.00    -0.007 C 
BRANCH  36  37
ATOM     37  C31 <0> A   1     -19.756   6.785  48.378  0.00  0.00    +0.212 C 
BRANCH  37  38
ATOM     38  O5  <0> A   1     -20.633   5.678  48.164  0.00  0.00    -0.541 OA
ATOM     39  H35 <0> A   1     -21.295   5.827  47.474  0.00  0.00    +0.362 HD
ENDBRANCH  37  38
BRANCH  37  40
ATOM     40  C32 <0> A   1     -19.129   6.677  49.769  0.00  0.00    -0.051 C 
BRANCH  40  41
ATOM     41  C33 <0> A   1     -20.038   7.359  50.793  0.00  0.00    +0.230 C 
BRANCH  41  42
ATOM     42  O4  <0> A   1     -21.197   7.874  50.133  0.00  0.00    -0.528 OA
ATOM     43  H34 <0> A   1     -21.741   7.196  49.710  0.00  0.00    +0.349 HD
ENDBRANCH  41  42
BRANCH  41  44
ATOM     44  C34 <0> A   1     -20.465   6.342  51.854  0.00  0.00    -0.103 C 
BRANCH  44  45
ATOM     45  C35 <0> A   1     -21.837   5.816  51.523  0.00  0.00    +0.490 C 
ATOM     46  O2  <0> A   1     -22.820   6.286  52.071  0.00  0.00    -0.681 OA
ATOM     47  O3  <0> A   1     -21.966   4.920  50.705  0.00  0.00    -0.713 OA
ENDBRANCH  44  45
ENDBRANCH  41  44
ENDBRANCH  40  41
ENDBRANCH  37  40
ENDBRANCH  36  37
ENDBRANCH  35  36
ENDBRANCH   2  35
TORSDOF 16
