REMARK VINA RESULT:      -7.2     16.436     19.748
REMARK  Name = CHEMBL235712
REMARK  15 active torsions:
REMARK  status: ('A' for Active; 'I' for Inactive)
REMARK    1  A    between atoms: C1_1  and  C2_2
REMARK    2  A    between atoms: C2_2  and  C3_3
REMARK    3  A    between atoms: C2_2  and  N1_4
REMARK    4  A    between atoms: C4_5  and  C20_24
REMARK    5  A    between atoms: C5_6  and  C14_17
REMARK    6  A    between atoms: C6_7  and  C9_11
REMARK    7  A    between atoms: C7_8  and  C8_9
REMARK    8  A    between atoms: C20_24  and  C21_25
REMARK    9  A    between atoms: C21_25  and  C22_26
REMARK   10  A    between atoms: C22_26  and  C23_28
REMARK   11  A    between atoms: C22_26  and  O4_36
REMARK   12  A    between atoms: C23_28  and  C24_29
REMARK   13  A    between atoms: C24_29  and  C25_31
REMARK   14  A    between atoms: C24_29  and  O3_35
REMARK   15  A    between atoms: C25_31  and  C26_32
REMARK                            x       y       z     vdW  Elec       q    Type
REMARK                         _______ _______ _______ _____ _____    ______ ____
ROOT
ATOM      1  N1  <0> A   1     -27.462  -4.995  51.611  0.00  0.00    -0.399 N 
ATOM      2  C4  <0> A   1     -26.160  -4.646  51.761  0.00  0.00    +0.088 C 
ATOM      3  C5  <0> A   1     -26.059  -3.287  51.750  0.00  0.00    -0.097 C 
ATOM      4  C6  <0> A   1     -27.370  -2.765  51.583  0.00  0.00    -0.033 C 
ATOM      5  C7  <0> A   1     -28.225  -3.858  51.494  0.00  0.00    +0.069 C 
ENDROOT
BRANCH   3   6
ATOM      6  C14 <0> A   1     -24.811  -2.497  51.888  0.00  0.00    -0.000 A 
ATOM      7  C15 <0> A   1     -23.958  -2.344  50.798  0.00  0.00    +0.049 A 
ATOM      8  C16 <0> A   1     -22.798  -1.607  50.931  0.00  0.00    -0.022 A 
ATOM      9  C17 <0> A   1     -22.482  -1.022  52.145  0.00  0.00    +0.096 A 
ATOM     10  C18 <0> A   1     -23.327  -1.173  53.232  0.00  0.00    -0.023 A 
ATOM     11  C19 <0> A   1     -24.492  -1.901  53.107  0.00  0.00    +0.079 A 
ATOM     12  F1  <0> A   1     -21.346  -0.302  52.271  0.00  0.00    -0.144 F 
ENDBRANCH   3   6
BRANCH   4  13
ATOM     13  C9  <0> A   1     -27.751  -1.337  51.514  0.00  0.00    +0.198 A 
ATOM     14  C10 <0> A   1     -27.293  -0.549  50.458  0.00  0.00    -0.046 A 
ATOM     15  C11 <0> A   1     -27.657   0.784  50.407  0.00  0.00    +0.064 A 
ATOM     16  C12 <0> A   1     -28.469   1.289  51.414  0.00  0.00    -0.043 A 
ATOM     17  C13 <0> A   1     -28.887   0.452  52.432  0.00  0.00    +0.266 A 
ATOM     18  N3  <0> A   1     -28.530  -0.817  52.455  0.00  0.00    -0.458 NA
ENDBRANCH   4  13
BRANCH   1  20
ATOM     19  C1  <0> A   1     -28.991  -6.564  52.698  0.00  0.00    +0.047 C 
ATOM     20  C2  <0> A   1     -27.973  -6.367  51.572  0.00  0.00    +0.235 C 
ATOM     21  C3  <0> A   1     -28.650  -6.621  50.222  0.00  0.00    +0.047 C 
ENDBRANCH   1  20
BRANCH   5  22
ATOM     22  C8  <0> A   1     -29.645  -3.807  51.316  0.00  0.00    +0.287 C 
ATOM     23  N2  <0> A   1     -30.771  -3.766  51.174  0.00  0.00    -0.406 NA
ENDBRANCH   5  22
BRANCH   2  24
ATOM     24  C20 <0> A   1     -25.009  -5.605  51.917  0.00  0.00    +0.124 C 
BRANCH  24  25
ATOM     25  C21 <0> A   1     -24.378  -5.870  50.548  0.00  0.00    -0.005 C 
BRANCH  25  26
ATOM     26  C22 <0> A   1     -24.854  -7.224  50.019  0.00  0.00    +0.214 C 
BRANCH  26  27
ATOM     27  O4  <0> A   1     -24.868  -7.200  48.591  0.00  0.00    -0.542 OA
ATOM     28  H27 <0> A   1     -25.354  -7.933  48.190  0.00  0.00    +0.363 HD
ENDBRANCH  26  27
BRANCH  26  29
ATOM     29  C23 <0> A   1     -23.906  -8.323  50.503  0.00  0.00    -0.051 C 
BRANCH  29  30
ATOM     30  C24 <0> A   1     -24.636  -9.667  50.493  0.00  0.00    +0.231 C 
BRANCH  30  31
ATOM     31  O3  <0> A   1     -25.983  -9.476  50.055  0.00  0.00    -0.528 OA
ATOM     32  H26 <0> A   1     -26.531 -10.271  50.109  0.00  0.00    +0.349 HD
ENDBRANCH  30  31
BRANCH  30  33
ATOM     33  C25 <0> A   1     -23.922 -10.629  49.540  0.00  0.00    -0.103 C 
BRANCH  33  34
ATOM     34  C26 <0> A   1     -24.712 -10.749  48.262  0.00  0.00    +0.490 C 
ATOM     35  O1  <0> A   1     -24.657  -9.863  47.425  0.00  0.00    -0.681 OA
ATOM     36  O2  <0> A   1     -25.407 -11.732  48.065  0.00  0.00    -0.713 OA
ENDBRANCH  33  34
ENDBRANCH  30  33
ENDBRANCH  29  30
ENDBRANCH  26  29
ENDBRANCH  25  26
ENDBRANCH  24  25
ENDBRANCH   2  24
TORSDOF 13
