REMARK VINA RESULT:      -7.4      0.000      0.000
REMARK  Name = CHEMBL330777
REMARK  13 active torsions:
REMARK  status: ('A' for Active; 'I' for Inactive)
REMARK    1  A    between atoms: C1_1  and  C2_2
REMARK    2  A    between atoms: C2_2  and  O1_3
REMARK    3  A    between atoms: O1_3  and  C3_4
REMARK    4  A    between atoms: C3_4  and  C4_6
REMARK    5  A    between atoms: C5_7  and  C24_32
REMARK    6  A    between atoms: C6_8  and  C18_26
REMARK    7  A    between atoms: N1_9  and  C11_14
REMARK    8  A    between atoms: C7_10  and  C8_11
REMARK    9  A    between atoms: C8_11  and  C9_12
REMARK   10  A    between atoms: C8_11  and  C10_13
REMARK   11  A    between atoms: C11_14  and  C12_15
REMARK   12  A    between atoms: C12_15  and  C13_16
REMARK   13  A    between atoms: C15_19  and  O5_25
REMARK                            x       y       z     vdW  Elec       q    Type
REMARK                         _______ _______ _______ _____ _____    ______ ____
ROOT
ATOM      1  C4  <0> A   1     -13.090  10.044  45.694  0.00  0.00    -0.188 C 
ATOM      2  C5  <0> A   1     -13.350   8.733  45.075  0.00  0.00    -0.066 C 
ATOM      3  C6  <0> A   1     -14.145   8.044  45.970  0.00  0.00    +0.072 C 
ATOM      4  N1  <0> A   1     -14.367   8.849  47.058  0.00  0.00    -0.419 N 
ATOM      5  C7  <0> A   1     -13.742  10.033  46.907  0.00  0.00    +0.099 C 
ENDROOT
BRANCH   3   6
ATOM      6  C18 <0> A   1     -14.666   6.675  45.788  0.00  0.00    -0.022 A 
ATOM      7  C19 <0> A   1     -15.952   6.477  45.280  0.00  0.00    +0.036 A 
ATOM      8  C20 <0> A   1     -16.432   5.195  45.111  0.00  0.00    +0.008 A 
ATOM      9  C21 <0> A   1     -15.645   4.107  45.445  0.00  0.00    +0.012 A 
ATOM     10  C22 <0> A   1     -14.370   4.297  45.950  0.00  0.00    +0.010 A 
ATOM     11  C23 <0> A   1     -13.875   5.573  46.118  0.00  0.00    +0.015 A 
ENDBRANCH   3   6
BRANCH   2  12
ATOM     12  C24 <0> A   1     -12.859   8.252  43.764  0.00  0.00    -0.015 A 
ATOM     13  C25 <0> A   1     -11.518   7.903  43.603  0.00  0.00    +0.023 A 
ATOM     14  C26 <0> A   1     -11.067   7.456  42.378  0.00  0.00    +0.002 A 
ATOM     15  C27 <0> A   1     -11.942   7.353  41.311  0.00  0.00    +0.003 A 
ATOM     16  C28 <0> A   1     -13.273   7.698  41.464  0.00  0.00    +0.002 A 
ATOM     17  C29 <0> A   1     -13.738   8.141  42.686  0.00  0.00    +0.018 A 
ENDBRANCH   2  12
BRANCH   5  18
ATOM     18  C8  <0> A   1     -13.758  11.164  47.902  0.00  0.00    +0.046 C 
ATOM     19  C9  <0> A   1     -12.322  11.593  48.208  0.00  0.00    +0.042 C 
ATOM     20  C10 <0> A   1     -14.531  12.347  47.317  0.00  0.00    +0.043 C 
ENDBRANCH   5  18
BRANCH   1  21
ATOM     21  C3  <0> A   1     -12.290  11.142  45.132  0.00  0.00    +0.555 C 
ATOM     22  O2  <0> A   1     -11.080  11.135  45.252  0.00  0.00    -0.498 OA
BRANCH  21  23
ATOM     23  O1  <0> A   1     -12.898  12.156  44.484  0.00  0.00    -0.345 OA
BRANCH  23  25
ATOM     24  C1  <0> A   1     -13.252  11.591  42.161  0.00  0.00    +0.061 C 
ATOM     25  C2  <0> A   1     -13.902  11.806  43.529  0.00  0.00    +0.192 C 
ENDBRANCH  23  25
ENDBRANCH  21  23
ENDBRANCH   1  21
BRANCH   4  26
ATOM     26  C11 <0> A   1     -15.169   8.472  48.224  0.00  0.00    +0.298 C 
BRANCH  26  27
ATOM     27  C12 <0> A   1     -16.615   8.927  48.018  0.00  0.00    +0.053 C 
BRANCH  27  28
ATOM     28  C13 <0> A   1     -17.565   7.923  48.674  0.00  0.00    +0.204 C 
ATOM     29  C14 <0> A   1     -16.753   6.878  49.443  0.00  0.00    +0.046 C 
ATOM     30  C15 <0> A   1     -17.705   5.852  50.063  0.00  0.00    +0.187 C 
ATOM     31  C16 <0> A   1     -18.511   5.181  48.943  0.00  0.00    +0.024 C 
ATOM     32  C17 <0> A   1     -19.134   6.266  48.092  0.00  0.00    +0.497 C 
ATOM     33  O3  <0> A   1     -20.307   6.232  47.804  0.00  0.00    -0.450 OA
ATOM     34  O4  <0> A   1     -18.343   7.271  47.664  0.00  0.00    -0.368 OA
BRANCH  30  35
ATOM     35  O5  <0> A   1     -18.595   6.509  50.967  0.00  0.00    -0.564 OA
ATOM     36  H23 <0> A   1     -19.531   6.341  50.791  0.00  0.00    +0.388 HD
ENDBRANCH  30  35
ENDBRANCH  27  28
ENDBRANCH  26  27
ENDBRANCH   4  26
TORSDOF 10
