REMARK VINA RESULT:      -8.2      3.670      7.516
REMARK  Name = CHEMBL154699
REMARK  6 active torsions:
REMARK  status: ('A' for Active; 'I' for Inactive)
REMARK    1  A    between atoms: C4_4  and  C7_7
REMARK    2  A    between atoms: C9_9  and  C25_30
REMARK    3  A    between atoms: C10_10  and  C18_19
REMARK    4  A    between atoms: C11_11  and  C12_13
REMARK    5  A    between atoms: C19_20  and  C20_21
REMARK    6  A    between atoms: C22_23  and  O3_29
REMARK                            x       y       z     vdW  Elec       q    Type
REMARK                         _______ _______ _______ _____ _____    ______ ____
ROOT
ATOM      1  C7  <0> A   1     -25.700  -6.031  51.427  0.00  0.00    +0.178 A 
ATOM      2  C8  <0> A   1     -26.979  -6.329  51.887  0.00  0.00    -0.015 A 
ATOM      3  C9  <0> A   1     -27.802  -5.291  52.320  0.00  0.00    +0.012 A 
ATOM      4  C10 <0> A   1     -27.293  -3.975  52.273  0.00  0.00    -0.099 A 
ATOM      5  C11 <0> A   1     -25.998  -3.768  51.797  0.00  0.00    +0.164 A 
ATOM      6  N1  <0> A   1     -25.256  -4.779  51.402  0.00  0.00    -0.467 NA
ENDROOT
BRANCH   3   7
ATOM      7  C25 <0> A   1     -29.170  -5.561  52.818  0.00  0.00    -0.066 A 
ATOM      8  C26 <0> A   1     -29.393  -5.770  54.178  0.00  0.00    +0.075 A 
ATOM      9  C27 <0> A   1     -30.669  -6.021  54.636  0.00  0.00    -0.013 A 
ATOM     10  C28 <0> A   1     -31.730  -6.066  53.746  0.00  0.00    +0.109 A 
ATOM     11  C29 <0> A   1     -31.515  -5.859  52.393  0.00  0.00    -0.013 A 
ATOM     12  C30 <0> A   1     -30.242  -5.601  51.926  0.00  0.00    +0.061 A 
ATOM     13  F1  <0> A   1     -32.979  -6.313  54.199  0.00  0.00    -0.136 F 
ENDBRANCH   3   7
BRANCH   1  17
ATOM     14  C1  <0> A   1     -23.167  -9.177  50.098  0.00  0.00    +0.017 A 
ATOM     15  C2  <0> A   1     -23.381  -8.990  51.452  0.00  0.00    +0.000 A 
ATOM     16  C3  <0> A   1     -24.201  -7.970  51.889  0.00  0.00    +0.057 A 
ATOM     17  C4  <0> A   1     -24.816  -7.129  50.963  0.00  0.00    -0.052 A 
ATOM     18  C5  <0> A   1     -24.597  -7.322  49.601  0.00  0.00    +0.024 A 
ATOM     19  C6  <0> A   1     -23.774  -8.345  49.175  0.00  0.00    +0.003 A 
ENDBRANCH   1  17
BRANCH   5  20
ATOM     20  C12 <0> A   1     -25.442  -2.369  51.740  0.00  0.00    +0.054 C 
ATOM     21  C13 <0> A   1     -25.336  -1.921  50.281  0.00  0.00    +0.026 C 
ATOM     22  C14 <0> A   1     -24.771  -0.500  50.223  0.00  0.00    +0.005 C 
ATOM     23  C15 <0> A   1     -23.382  -0.478  50.864  0.00  0.00    +0.003 C 
ATOM     24  C16 <0> A   1     -23.487  -0.926  52.324  0.00  0.00    +0.006 C 
ATOM     25  C17 <0> A   1     -24.053  -2.346  52.382  0.00  0.00    +0.025 C 
ENDBRANCH   5  20
BRANCH   4  26
ATOM     26  C18 <0> A   1     -28.119  -2.837  52.719  0.00  0.00    +0.049 C 
ATOM     27  C19 <0> A   1     -28.856  -2.167  51.841  0.00  0.00    -0.012 C 
BRANCH  27  28
ATOM     28  C20 <0> A   1     -29.699  -1.004  52.297  0.00  0.00    +0.242 C 
ATOM     29  C21 <0> A   1     -29.388  -0.689  53.762  0.00  0.00    +0.050 C 
ATOM     30  C22 <0> A   1     -30.276   0.466  54.233  0.00  0.00    +0.186 C 
ATOM     31  C23 <0> A   1     -31.745   0.057  54.079  0.00  0.00    +0.024 C 
ATOM     32  C24 <0> A   1     -31.955  -0.434  52.664  0.00  0.00    +0.498 C 
ATOM     33  O1  <0> A   1     -32.876  -0.028  51.994  0.00  0.00    -0.450 OA
ATOM     34  O2  <0> A   1     -31.086  -1.339  52.169  0.00  0.00    -0.369 OA
BRANCH  30  35
ATOM     35  O3  <0> A   1     -30.013   1.626  53.440  0.00  0.00    -0.563 OA
ATOM     36  H26 <0> A   1     -29.768   2.407  53.955  0.00  0.00    +0.387 HD
ENDBRANCH  30  35
ENDBRANCH  27  28
ENDBRANCH   4  26
TORSDOF 6
