MODEL 1
REMARK VINA RESULT:      -8.3      0.000      0.000
REMARK  Name = CHEMBL50566
REMARK  8 active torsions:
REMARK  status: ('A' for Active; 'I' for Inactive)
REMARK    1  A    between atoms: C1_1  and  C2_2
REMARK    2  A    between atoms: C4_4  and  C22_27
REMARK    3  A    between atoms: C5_5  and  C15_16
REMARK    4  A    between atoms: C6_6  and  C8_8
REMARK    5  A    between atoms: C12_12  and  C14_14
REMARK    6  A    between atoms: C15_16  and  C16_17
REMARK    7  A    between atoms: C16_17  and  C17_18
REMARK    8  A    between atoms: C19_20  and  O3_26
REMARK                            x       y       z     vdW  Elec       q    Type
REMARK                         _______ _______ _______ _____ _____    ______ ____
ROOT
ATOM      1  C1  <0> A   1     -14.244  11.222  39.961  0.00  0.00    +0.089 C 
ATOM      2  C2  <0> A   1     -13.815  10.513  41.219  0.00  0.00    -0.083 A 
ATOM      3  C3  <0> A   1     -13.300   9.231  41.147  0.00  0.00    +0.007 A 
ATOM      4  C4  <0> A   1     -12.903   8.574  42.298  0.00  0.00    -0.074 A 
ATOM      5  C5  <0> A   1     -13.019   9.195  43.525  0.00  0.00    -0.072 A 
ATOM      6  C6  <0> A   1     -13.537  10.487  43.604  0.00  0.00    -0.041 A 
ATOM      7  C7  <0> A   1     -13.930  11.146  42.441  0.00  0.00    +0.014 A 
ATOM      8  C22 <0> A   1     -12.344   7.177  42.213  0.00  0.00    +0.091 C 
ENDROOT
BRANCH   6   9
ATOM      9  C8  <0> A   1     -13.664  11.160  44.920  0.00  0.00    -0.047 A 
ATOM     10  C9  <0> A   1     -12.543  11.718  45.530  0.00  0.00    +0.049 A 
ATOM     11  C10 <0> A   1     -12.665  12.343  46.754  0.00  0.00    -0.009 A 
ATOM     12  C11 <0> A   1     -13.902  12.416  47.376  0.00  0.00    +0.097 A 
ATOM     13  C12 <0> A   1     -15.019  11.862  46.772  0.00  0.00    -0.114 A 
ATOM     14  C13 <0> A   1     -14.906  11.241  45.546  0.00  0.00    +0.055 A 
ATOM     15  C14 <0> A   1     -16.361  11.943  47.454  0.00  0.00    +0.104 C 
ATOM     16  F1  <0> A   1     -14.018  13.028  48.575  0.00  0.00    -0.137 F 
ENDBRANCH   6   9
BRANCH   5  17
ATOM     17  C15 <0> A   1     -12.587   8.479  44.778  0.00  0.00    +0.073 C 
BRANCH  17  18
ATOM     18  C16 <0> A   1     -13.800   8.258  45.685  0.00  0.00    +0.059 C 
BRANCH  18  19
ATOM     19  C17 <0> A   1     -14.609   7.065  45.172  0.00  0.00    +0.196 C 
ATOM     20  C18 <0> A   1     -15.604   6.623  46.249  0.00  0.00    +0.040 C 
ATOM     21  C19 <0> A   1     -16.384   5.403  45.749  0.00  0.00    +0.184 C 
ATOM     22  C20 <0> A   1     -15.393   4.271  45.445  0.00  0.00    +0.021 C 
ATOM     23  C21 <0> A   1     -14.316   4.817  44.533  0.00  0.00    +0.496 C 
ATOM     24  O1  <0> A   1     -13.995   4.227  43.528  0.00  0.00    -0.453 OA
ATOM     25  O2  <0> A   1     -13.724   5.980  44.874  0.00  0.00    -0.367 OA
BRANCH  21  26
ATOM     26  O3  <0> A   1     -17.101   5.746  44.562  0.00  0.00    -0.563 OA
ATOM     27  H22 <0> A   1     -16.935   6.646  44.250  0.00  0.00    +0.386 HD
ENDBRANCH  21  26
ENDBRANCH  18  19
ENDBRANCH  17  18
ENDBRANCH   5  17
TORSDOF 5
ENDMDL
MODEL 2
REMARK VINA RESULT:      -8.3      9.539     11.136
REMARK  Name = CHEMBL50566
REMARK  8 active torsions:
REMARK  status: ('A' for Active; 'I' for Inactive)
REMARK    1  A    between atoms: C1_1  and  C2_2
REMARK    2  A    between atoms: C4_4  and  C22_27
REMARK    3  A    between atoms: C5_5  and  C15_16
REMARK    4  A    between atoms: C6_6  and  C8_8
REMARK    5  A    between atoms: C12_12  and  C14_14
REMARK    6  A    between atoms: C15_16  and  C16_17
REMARK    7  A    between atoms: C16_17  and  C17_18
REMARK    8  A    between atoms: C19_20  and  O3_26
REMARK                            x       y       z     vdW  Elec       q    Type
REMARK                         _______ _______ _______ _____ _____    ______ ____
ROOT
ATOM      1  C1  <0> A   1      -0.866   2.559  44.077  0.00  0.00    +0.089 C 
ATOM      2  C2  <0> A   1      -2.090   3.135  44.740  0.00  0.00    -0.083 A 
ATOM      3  C3  <0> A   1      -3.345   2.651  44.413  0.00  0.00    +0.007 A 
ATOM      4  C4  <0> A   1      -4.473   3.175  45.018  0.00  0.00    -0.074 A 
ATOM      5  C5  <0> A   1      -4.353   4.184  45.952  0.00  0.00    -0.072 A 
ATOM      6  C6  <0> A   1      -3.092   4.676  46.285  0.00  0.00    -0.041 A 
ATOM      7  C7  <0> A   1      -1.958   4.140  45.677  0.00  0.00    +0.014 A 
ATOM      8  C22 <0> A   1      -5.836   2.644  44.656  0.00  0.00    +0.091 C 
ENDROOT
BRANCH   6   9
ATOM      9  C8  <0> A   1      -2.956   5.760  47.288  0.00  0.00    -0.047 A 
ATOM     10  C9  <0> A   1      -3.308   7.066  46.957  0.00  0.00    +0.049 A 
ATOM     11  C10 <0> A   1      -3.180   8.072  47.893  0.00  0.00    -0.009 A 
ATOM     12  C11 <0> A   1      -2.701   7.784  49.161  0.00  0.00    +0.097 A 
ATOM     13  C12 <0> A   1      -2.350   6.486  49.495  0.00  0.00    -0.114 A 
ATOM     14  C13 <0> A   1      -2.481   5.474  48.566  0.00  0.00    +0.055 A 
ATOM     15  C14 <0> A   1      -1.829   6.178  50.875  0.00  0.00    +0.104 C 
ATOM     16  F1  <0> A   1      -2.577   8.771  50.076  0.00  0.00    -0.137 F 
ENDBRANCH   6   9
BRANCH   5  17
ATOM     17  C15 <0> A   1      -5.582   4.755  46.610  0.00  0.00    +0.073 C 
BRANCH  17  18
ATOM     18  C16 <0> A   1      -5.825   4.043  47.943  0.00  0.00    +0.059 C 
BRANCH  18  19
ATOM     19  C17 <0> A   1      -7.330   3.943  48.200  0.00  0.00    +0.196 C 
ATOM     20  C18 <0> A   1      -8.059   5.023  47.396  0.00  0.00    +0.040 C 
ATOM     21  C19 <0> A   1      -9.561   4.947  47.688  0.00  0.00    +0.184 C 
ATOM     22  C20 <0> A   1      -9.786   5.161  49.190  0.00  0.00    +0.021 C 
ATOM     23  C21 <0> A   1      -8.892   4.201  49.944  0.00  0.00    +0.496 C 
ATOM     24  O1  <0> A   1      -9.331   3.513  50.836  0.00  0.00    -0.453 OA
ATOM     25  O2  <0> A   1      -7.591   4.136  49.594  0.00  0.00    -0.367 OA
BRANCH  21  26
ATOM     26  O3  <0> A   1     -10.058   3.664  47.304  0.00  0.00    -0.563 OA
ATOM     27  H22 <0> A   1      -9.376   2.983  47.233  0.00  0.00    +0.386 HD
ENDBRANCH  21  26
ENDBRANCH  18  19
ENDBRANCH  17  18
ENDBRANCH   5  17
TORSDOF 5
ENDMDL
MODEL 3
REMARK VINA RESULT:      -8.2     17.004     19.419
REMARK  Name = CHEMBL50566
REMARK  8 active torsions:
REMARK  status: ('A' for Active; 'I' for Inactive)
REMARK    1  A    between atoms: C1_1  and  C2_2
REMARK    2  A    between atoms: C4_4  and  C22_27
REMARK    3  A    between atoms: C5_5  and  C15_16
REMARK    4  A    between atoms: C6_6  and  C8_8
REMARK    5  A    between atoms: C12_12  and  C14_14
REMARK    6  A    between atoms: C15_16  and  C16_17
REMARK    7  A    between atoms: C16_17  and  C17_18
REMARK    8  A    between atoms: C19_20  and  O3_26
REMARK                            x       y       z     vdW  Elec       q    Type
REMARK                         _______ _______ _______ _____ _____    ______ ____
ROOT
ATOM      1  C1  <0> A   1     -24.711  -0.039  55.200  0.00  0.00    +0.089 C 
ATOM      2  C2  <0> A   1     -24.557  -1.022  54.069  0.00  0.00    -0.083 A 
ATOM      3  C3  <0> A   1     -23.296  -1.454  53.698  0.00  0.00    +0.007 A 
ATOM      4  C4  <0> A   1     -23.147  -2.357  52.660  0.00  0.00    -0.074 A 
ATOM      5  C5  <0> A   1     -24.256  -2.831  51.989  0.00  0.00    -0.072 A 
ATOM      6  C6  <0> A   1     -25.529  -2.400  52.359  0.00  0.00    -0.041 A 
ATOM      7  C7  <0> A   1     -25.674  -1.494  53.409  0.00  0.00    +0.014 A 
ATOM      8  C22 <0> A   1     -21.771  -2.822  52.260  0.00  0.00    +0.091 C 
ENDROOT
BRANCH   6   9
ATOM      9  C8  <0> A   1     -26.725  -2.906  51.643  0.00  0.00    -0.047 A 
ATOM     10  C9  <0> A   1     -26.963  -2.524  50.324  0.00  0.00    +0.049 A 
ATOM     11  C10 <0> A   1     -28.077  -2.997  49.662  0.00  0.00    -0.009 A 
ATOM     12  C11 <0> A   1     -28.958  -3.851  50.306  0.00  0.00    +0.097 A 
ATOM     13  C12 <0> A   1     -28.725  -4.233  51.617  0.00  0.00    -0.114 A 
ATOM     14  C13 <0> A   1     -27.610  -3.769  52.285  0.00  0.00    +0.055 A 
ATOM     15  C14 <0> A   1     -29.686  -5.161  52.313  0.00  0.00    +0.104 C 
ATOM     16  F1  <0> A   1     -30.048  -4.313  49.654  0.00  0.00    -0.137 F 
ENDBRANCH   6   9
BRANCH   5  17
ATOM     17  C15 <0> A   1     -24.092  -3.814  50.859  0.00  0.00    +0.073 C 
BRANCH  17  18
ATOM     18  C16 <0> A   1     -24.328  -5.234  51.379  0.00  0.00    +0.059 C 
BRANCH  18  19
ATOM     19  C17 <0> A   1     -25.033  -6.060  50.302  0.00  0.00    +0.196 C 
ATOM     20  C18 <0> A   1     -26.208  -6.818  50.927  0.00  0.00    +0.040 C 
ATOM     21  C19 <0> A   1     -26.887  -7.676  49.855  0.00  0.00    +0.184 C 
ATOM     22  C20 <0> A   1     -25.860  -8.665  49.287  0.00  0.00    +0.021 C 
ATOM     23  C21 <0> A   1     -24.634  -7.884  48.865  0.00  0.00    +0.496 C 
ATOM     24  O1  <0> A   1     -24.138  -8.048  47.775  0.00  0.00    -0.453 OA
ATOM     25  O2  <0> A   1     -24.111  -7.001  49.740  0.00  0.00    -0.367 OA
BRANCH  21  26
ATOM     26  O3  <0> A   1     -27.376  -6.836  48.808  0.00  0.00    -0.563 OA
ATOM     27  H22 <0> A   1     -27.910  -6.093  49.118  0.00  0.00    +0.386 HD
ENDBRANCH  21  26
ENDBRANCH  18  19
ENDBRANCH  17  18
ENDBRANCH   5  17
TORSDOF 5
ENDMDL
MODEL 4
REMARK VINA RESULT:      -8.1     21.900     24.150
REMARK  Name = CHEMBL50566
REMARK  8 active torsions:
REMARK  status: ('A' for Active; 'I' for Inactive)
REMARK    1  A    between atoms: C1_1  and  C2_2
REMARK    2  A    between atoms: C4_4  and  C22_27
REMARK    3  A    between atoms: C5_5  and  C15_16
REMARK    4  A    between atoms: C6_6  and  C8_8
REMARK    5  A    between atoms: C12_12  and  C14_14
REMARK    6  A    between atoms: C15_16  and  C16_17
REMARK    7  A    between atoms: C16_17  and  C17_18
REMARK    8  A    between atoms: C19_20  and  O3_26
REMARK                            x       y       z     vdW  Elec       q    Type
REMARK                         _______ _______ _______ _____ _____    ______ ____
ROOT
ATOM      1  C1  <0> A   1     -31.836  18.927  32.854  0.00  0.00    +0.089 C 
ATOM      2  C2  <0> A   1     -31.735  20.382  33.229  0.00  0.00    -0.083 A 
ATOM      3  C3  <0> A   1     -32.874  21.168  33.259  0.00  0.00    +0.007 A 
ATOM      4  C4  <0> A   1     -32.788  22.506  33.603  0.00  0.00    -0.074 A 
ATOM      5  C5  <0> A   1     -31.565  23.063  33.918  0.00  0.00    -0.072 A 
ATOM      6  C6  <0> A   1     -30.415  22.276  33.889  0.00  0.00    -0.041 A 
ATOM      7  C7  <0> A   1     -30.508  20.929  33.547  0.00  0.00    +0.014 A 
ATOM      8  C22 <0> A   1     -34.032  23.355  33.633  0.00  0.00    +0.091 C 
ENDROOT
BRANCH   6   9
ATOM      9  C8  <0> A   1     -29.098  22.870  34.227  0.00  0.00    -0.047 A 
ATOM     10  C9  <0> A   1     -28.669  22.910  35.551  0.00  0.00    +0.049 A 
ATOM     11  C10 <0> A   1     -27.443  23.463  35.861  0.00  0.00    -0.009 A 
ATOM     12  C11 <0> A   1     -26.640  23.979  34.856  0.00  0.00    +0.097 A 
ATOM     13  C12 <0> A   1     -27.063  23.941  33.537  0.00  0.00    -0.114 A 
ATOM     14  C13 <0> A   1     -28.285  23.384  33.219  0.00  0.00    +0.055 A 
ATOM     15  C14 <0> A   1     -26.186  24.503  32.449  0.00  0.00    +0.104 C 
ATOM     16  F1  <0> A   1     -25.440  24.519  35.162  0.00  0.00    -0.137 F 
ENDBRANCH   6   9
BRANCH   5  17
ATOM     17  C15 <0> A   1     -31.473  24.520  34.292  0.00  0.00    +0.073 C 
BRANCH  17  18
ATOM     18  C16 <0> A   1     -32.148  24.743  35.647  0.00  0.00    +0.059 C 
BRANCH  18  19
ATOM     19  C17 <0> A   1     -31.081  24.816  36.741  0.00  0.00    +0.196 C 
ATOM     20  C18 <0> A   1     -31.759  24.868  38.113  0.00  0.00    +0.040 C 
ATOM     21  C19 <0> A   1     -30.690  24.983  39.204  0.00  0.00    +0.184 C 
ATOM     22  C20 <0> A   1     -29.875  26.261  38.967  0.00  0.00    +0.021 C 
ATOM     23  C21 <0> A   1     -29.392  26.255  37.533  0.00  0.00    +0.496 C 
ATOM     24  O1  <0> A   1     -28.234  26.476  37.266  0.00  0.00    -0.453 OA
ATOM     25  O2  <0> A   1     -30.291  25.996  36.561  0.00  0.00    -0.367 OA
BRANCH  21  26
ATOM     26  O3  <0> A   1     -29.828  23.845  39.152  0.00  0.00    -0.563 OA
ATOM     27  H22 <0> A   1     -28.961  24.026  38.765  0.00  0.00    +0.386 HD
ENDBRANCH  21  26
ENDBRANCH  18  19
ENDBRANCH  17  18
ENDBRANCH   5  17
TORSDOF 5
ENDMDL
MODEL 5
REMARK VINA RESULT:      -8.1      2.310      4.786
REMARK  Name = CHEMBL50566
REMARK  8 active torsions:
REMARK  status: ('A' for Active; 'I' for Inactive)
REMARK    1  A    between atoms: C1_1  and  C2_2
REMARK    2  A    between atoms: C4_4  and  C22_27
REMARK    3  A    between atoms: C5_5  and  C15_16
REMARK    4  A    between atoms: C6_6  and  C8_8
REMARK    5  A    between atoms: C12_12  and  C14_14
REMARK    6  A    between atoms: C15_16  and  C16_17
REMARK    7  A    between atoms: C16_17  and  C17_18
REMARK    8  A    between atoms: C19_20  and  O3_26
REMARK                            x       y       z     vdW  Elec       q    Type
REMARK                         _______ _______ _______ _____ _____    ______ ____
ROOT
ATOM      1  C1  <0> A   1     -12.278  13.917  48.182  0.00  0.00    +0.089 C 
ATOM      2  C2  <0> A   1     -12.891  12.643  47.663  0.00  0.00    -0.083 A 
ATOM      3  C3  <0> A   1     -13.623  11.832  48.513  0.00  0.00    +0.007 A 
ATOM      4  C4  <0> A   1     -14.189  10.661  48.042  0.00  0.00    -0.074 A 
ATOM      5  C5  <0> A   1     -14.025  10.294  46.722  0.00  0.00    -0.072 A 
ATOM      6  C6  <0> A   1     -13.289  11.106  45.861  0.00  0.00    -0.041 A 
ATOM      7  C7  <0> A   1     -12.726  12.288  46.339  0.00  0.00    +0.014 A 
ATOM      8  C22 <0> A   1     -14.984   9.783  48.974  0.00  0.00    +0.091 C 
ENDROOT
BRANCH   6   9
ATOM      9  C8  <0> A   1     -13.110  10.717  44.441  0.00  0.00    -0.047 A 
ATOM     10  C9  <0> A   1     -12.114   9.811  44.085  0.00  0.00    +0.049 A 
ATOM     11  C10 <0> A   1     -11.951   9.452  42.763  0.00  0.00    -0.009 A 
ATOM     12  C11 <0> A   1     -12.776   9.993  41.789  0.00  0.00    +0.097 A 
ATOM     13  C12 <0> A   1     -13.768  10.895  42.139  0.00  0.00    -0.114 A 
ATOM     14  C13 <0> A   1     -13.941  11.254  43.460  0.00  0.00    +0.055 A 
ATOM     15  C14 <0> A   1     -14.662  11.480  41.077  0.00  0.00    +0.104 C 
ATOM     16  F1  <0> A   1     -12.614   9.640  40.495  0.00  0.00    -0.137 F 
ENDBRANCH   6   9
BRANCH   5  17
ATOM     17  C15 <0> A   1     -14.642   9.017  46.211  0.00  0.00    +0.073 C 
BRANCH  17  18
ATOM     18  C16 <0> A   1     -13.825   7.822  46.705  0.00  0.00    +0.059 C 
BRANCH  18  19
ATOM     19  C17 <0> A   1     -13.746   6.767  45.600  0.00  0.00    +0.196 C 
ATOM     20  C18 <0> A   1     -14.492   7.269  44.360  0.00  0.00    +0.040 C 
ATOM     21  C19 <0> A   1     -14.447   6.194  43.270  0.00  0.00    +0.184 C 
ATOM     22  C20 <0> A   1     -15.108   4.917  43.805  0.00  0.00    +0.021 C 
ATOM     23  C21 <0> A   1     -14.469   4.574  45.133  0.00  0.00    +0.496 C 
ATOM     24  O1  <0> A   1     -14.074   3.454  45.362  0.00  0.00    -0.453 OA
ATOM     25  O2  <0> A   1     -14.353   5.552  46.055  0.00  0.00    -0.367 OA
BRANCH  21  26
ATOM     26  O3  <0> A   1     -13.088   5.923  42.921  0.00  0.00    -0.563 OA
ATOM     27  H22 <0> A   1     -12.618   6.682  42.553  0.00  0.00    +0.386 HD
ENDBRANCH  21  26
ENDBRANCH  18  19
ENDBRANCH  17  18
ENDBRANCH   5  17
TORSDOF 5
ENDMDL
MODEL 6
REMARK VINA RESULT:      -8.0      2.135      2.789
REMARK  Name = CHEMBL50566
REMARK  8 active torsions:
REMARK  status: ('A' for Active; 'I' for Inactive)
REMARK    1  A    between atoms: C1_1  and  C2_2
REMARK    2  A    between atoms: C4_4  and  C22_27
REMARK    3  A    between atoms: C5_5  and  C15_16
REMARK    4  A    between atoms: C6_6  and  C8_8
REMARK    5  A    between atoms: C12_12  and  C14_14
REMARK    6  A    between atoms: C15_16  and  C16_17
REMARK    7  A    between atoms: C16_17  and  C17_18
REMARK    8  A    between atoms: C19_20  and  O3_26
REMARK                            x       y       z     vdW  Elec       q    Type
REMARK                         _______ _______ _______ _____ _____    ______ ____
ROOT
ATOM      1  C1  <0> A   1     -14.112  11.227  39.769  0.00  0.00    +0.089 C 
ATOM      2  C2  <0> A   1     -13.673  10.528  41.030  0.00  0.00    -0.083 A 
ATOM      3  C3  <0> A   1     -13.080   9.280  40.957  0.00  0.00    +0.007 A 
ATOM      4  C4  <0> A   1     -12.674   8.633  42.111  0.00  0.00    -0.074 A 
ATOM      5  C5  <0> A   1     -12.861   9.229  43.341  0.00  0.00    -0.072 A 
ATOM      6  C6  <0> A   1     -13.459  10.486  43.421  0.00  0.00    -0.041 A 
ATOM      7  C7  <0> A   1     -13.860  11.136  42.255  0.00  0.00    +0.014 A 
ATOM      8  C22 <0> A   1     -12.029   7.274  42.023  0.00  0.00    +0.091 C 
ENDROOT
BRANCH   6   9
ATOM      9  C8  <0> A   1     -13.662  11.132  44.741  0.00  0.00    -0.047 A 
ATOM     10  C9  <0> A   1     -12.610  11.806  45.358  0.00  0.00    +0.049 A 
ATOM     11  C10 <0> A   1     -12.803  12.405  46.586  0.00  0.00    -0.009 A 
ATOM     12  C11 <0> A   1     -14.041  12.337  47.205  0.00  0.00    +0.097 A 
ATOM     13  C12 <0> A   1     -15.090  11.668  46.595  0.00  0.00    -0.114 A 
ATOM     14  C13 <0> A   1     -14.906  11.071  45.364  0.00  0.00    +0.055 A 
ATOM     15  C14 <0> A   1     -16.433  11.596  47.273  0.00  0.00    +0.104 C 
ATOM     16  F1  <0> A   1     -14.227  12.925  48.407  0.00  0.00    -0.137 F 
ENDBRANCH   6   9
BRANCH   5  17
ATOM     17  C15 <0> A   1     -12.420   8.524  44.597  0.00  0.00    +0.073 C 
BRANCH  17  18
ATOM     18  C16 <0> A   1     -13.563   7.653  45.123  0.00  0.00    +0.059 C 
BRANCH  18  19
ATOM     19  C17 <0> A   1     -13.569   7.689  46.653  0.00  0.00    +0.196 C 
ATOM     20  C18 <0> A   1     -14.992   7.954  47.152  0.00  0.00    +0.040 C 
ATOM     21  C19 <0> A   1     -14.987   8.031  48.682  0.00  0.00    +0.184 C 
ATOM     22  C20 <0> A   1     -14.052   9.166  49.119  0.00  0.00    +0.021 C 
ATOM     23  C21 <0> A   1     -12.715   8.966  48.438  0.00  0.00    +0.496 C 
ATOM     24  O1  <0> A   1     -11.684   9.011  49.069  0.00  0.00    -0.453 OA
ATOM     25  O2  <0> A   1     -12.706   8.737  47.110  0.00  0.00    -0.367 OA
BRANCH  21  26
ATOM     26  O3  <0> A   1     -14.525   6.792  49.222  0.00  0.00    -0.563 OA
ATOM     27  H22 <0> A   1     -13.771   6.880  49.820  0.00  0.00    +0.386 HD
ENDBRANCH  21  26
ENDBRANCH  18  19
ENDBRANCH  17  18
ENDBRANCH   5  17
TORSDOF 5
ENDMDL
MODEL 7
REMARK VINA RESULT:      -8.0      2.152      4.704
REMARK  Name = CHEMBL50566
REMARK  8 active torsions:
REMARK  status: ('A' for Active; 'I' for Inactive)
REMARK    1  A    between atoms: C1_1  and  C2_2
REMARK    2  A    between atoms: C4_4  and  C22_27
REMARK    3  A    between atoms: C5_5  and  C15_16
REMARK    4  A    between atoms: C6_6  and  C8_8
REMARK    5  A    between atoms: C12_12  and  C14_14
REMARK    6  A    between atoms: C15_16  and  C16_17
REMARK    7  A    between atoms: C16_17  and  C17_18
REMARK    8  A    between atoms: C19_20  and  O3_26
REMARK                            x       y       z     vdW  Elec       q    Type
REMARK                         _______ _______ _______ _____ _____    ______ ____
ROOT
ATOM      1  C1  <0> A   1     -11.951  13.928  48.082  0.00  0.00    +0.089 C 
ATOM      2  C2  <0> A   1     -12.746  12.751  47.580  0.00  0.00    -0.083 A 
ATOM      3  C3  <0> A   1     -13.618  12.094  48.430  0.00  0.00    +0.007 A 
ATOM      4  C4  <0> A   1     -14.351  11.012  47.976  0.00  0.00    -0.074 A 
ATOM      5  C5  <0> A   1     -14.216  10.582  46.672  0.00  0.00    -0.072 A 
ATOM      6  C6  <0> A   1     -13.339  11.239  45.811  0.00  0.00    -0.041 A 
ATOM      7  C7  <0> A   1     -12.607  12.332  46.272  0.00  0.00    +0.014 A 
ATOM      8  C22 <0> A   1     -15.299  10.302  48.908  0.00  0.00    +0.091 C 
ENDROOT
BRANCH   6   9
ATOM      9  C8  <0> A   1     -13.189  10.782  44.408  0.00  0.00    -0.047 A 
ATOM     10  C9  <0> A   1     -12.254   9.800  44.089  0.00  0.00    +0.049 A 
ATOM     11  C10 <0> A   1     -12.118   9.377  42.783  0.00  0.00    -0.009 A 
ATOM     12  C11 <0> A   1     -12.909   9.929  41.788  0.00  0.00    +0.097 A 
ATOM     13  C12 <0> A   1     -13.841  10.906  42.101  0.00  0.00    -0.114 A 
ATOM     14  C13 <0> A   1     -13.987  11.330  43.406  0.00  0.00    +0.055 A 
ATOM     15  C14 <0> A   1     -14.699  11.503  41.015  0.00  0.00    +0.104 C 
ATOM     16  F1  <0> A   1     -12.774   9.513  40.510  0.00  0.00    -0.137 F 
ENDBRANCH   6   9
BRANCH   5  17
ATOM     17  C15 <0> A   1     -15.015   9.404  46.179  0.00  0.00    +0.073 C 
BRANCH  17  18
ATOM     18  C16 <0> A   1     -14.247   8.111  46.462  0.00  0.00    +0.059 C 
BRANCH  18  19
ATOM     19  C17 <0> A   1     -14.811   6.983  45.596  0.00  0.00    +0.196 C 
ATOM     20  C18 <0> A   1     -14.704   5.656  46.353  0.00  0.00    +0.040 C 
ATOM     21  C19 <0> A   1     -15.232   4.522  45.468  0.00  0.00    +0.184 C 
ATOM     22  C20 <0> A   1     -14.397   4.468  44.181  0.00  0.00    +0.021 C 
ATOM     23  C21 <0> A   1     -14.370   5.855  43.576  0.00  0.00    +0.496 C 
ATOM     24  O1  <0> A   1     -14.618   6.026  42.405  0.00  0.00    -0.453 OA
ATOM     25  O2  <0> A   1     -14.062   6.893  44.379  0.00  0.00    -0.367 OA
BRANCH  21  26
ATOM     26  O3  <0> A   1     -16.601   4.766  45.144  0.00  0.00    -0.563 OA
ATOM     27  H22 <0> A   1     -17.173   4.883  45.914  0.00  0.00    +0.386 HD
ENDBRANCH  21  26
ENDBRANCH  18  19
ENDBRANCH  17  18
ENDBRANCH   5  17
TORSDOF 5
ENDMDL
MODEL 8
REMARK VINA RESULT:      -8.0      9.952     11.556
REMARK  Name = CHEMBL50566
REMARK  8 active torsions:
REMARK  status: ('A' for Active; 'I' for Inactive)
REMARK    1  A    between atoms: C1_1  and  C2_2
REMARK    2  A    between atoms: C4_4  and  C22_27
REMARK    3  A    between atoms: C5_5  and  C15_16
REMARK    4  A    between atoms: C6_6  and  C8_8
REMARK    5  A    between atoms: C12_12  and  C14_14
REMARK    6  A    between atoms: C15_16  and  C16_17
REMARK    7  A    between atoms: C16_17  and  C17_18
REMARK    8  A    between atoms: C19_20  and  O3_26
REMARK                            x       y       z     vdW  Elec       q    Type
REMARK                         _______ _______ _______ _____ _____    ______ ____
ROOT
ATOM      1  C1  <0> A   1      -1.809   2.407  43.838  0.00  0.00    +0.089 C 
ATOM      2  C2  <0> A   1      -2.973   2.987  44.597  0.00  0.00    -0.083 A 
ATOM      3  C3  <0> A   1      -4.258   2.543  44.338  0.00  0.00    +0.007 A 
ATOM      4  C4  <0> A   1      -5.332   3.071  45.031  0.00  0.00    -0.074 A 
ATOM      5  C5  <0> A   1      -5.127   4.046  45.986  0.00  0.00    -0.072 A 
ATOM      6  C6  <0> A   1      -3.835   4.498  46.252  0.00  0.00    -0.041 A 
ATOM      7  C7  <0> A   1      -2.757   3.959  45.554  0.00  0.00    +0.014 A 
ATOM      8  C22 <0> A   1      -6.727   2.582  44.743  0.00  0.00    +0.091 C 
ENDROOT
BRANCH   6   9
ATOM      9  C8  <0> A   1      -3.609   5.546  47.278  0.00  0.00    -0.047 A 
ATOM     10  C9  <0> A   1      -3.525   6.885  46.903  0.00  0.00    +0.049 A 
ATOM     11  C10 <0> A   1      -3.314   7.856  47.860  0.00  0.00    -0.009 A 
ATOM     12  C11 <0> A   1      -3.186   7.500  49.193  0.00  0.00    +0.097 A 
ATOM     13  C12 <0> A   1      -3.268   6.170  49.571  0.00  0.00    -0.114 A 
ATOM     14  C13 <0> A   1      -3.485   5.194  48.620  0.00  0.00    +0.055 A 
ATOM     15  C14 <0> A   1      -3.127   5.789  51.022  0.00  0.00    +0.104 C 
ATOM     16  F1  <0> A   1      -2.979   8.454  50.128  0.00  0.00    -0.137 F 
ENDBRANCH   6   9
BRANCH   5  17
ATOM     17  C15 <0> A   1      -6.297   4.621  46.741  0.00  0.00    +0.073 C 
BRANCH  17  18
ATOM     18  C16 <0> A   1      -6.962   3.520  47.570  0.00  0.00    +0.059 C 
BRANCH  18  19
ATOM     19  C17 <0> A   1      -6.382   3.526  48.985  0.00  0.00    +0.196 C 
ATOM     20  C18 <0> A   1      -6.436   2.110  49.566  0.00  0.00    +0.040 C 
ATOM     21  C19 <0> A   1      -5.893   2.128  50.998  0.00  0.00    +0.184 C 
ATOM     22  C20 <0> A   1      -6.749   3.081  51.842  0.00  0.00    +0.021 C 
ATOM     23  C21 <0> A   1      -6.828   4.410  51.123  0.00  0.00    +0.496 C 
ATOM     24  O1  <0> A   1      -6.608   5.445  51.706  0.00  0.00    -0.453 OA
ATOM     25  O2  <0> A   1      -7.151   4.406  49.814  0.00  0.00    -0.367 OA
BRANCH  21  26
ATOM     26  O3  <0> A   1      -4.537   2.578  50.991  0.00  0.00    -0.563 OA
ATOM     27  H22 <0> A   1      -3.898   1.897  50.742  0.00  0.00    +0.386 HD
ENDBRANCH  21  26
ENDBRANCH  18  19
ENDBRANCH  17  18
ENDBRANCH   5  17
TORSDOF 5
ENDMDL
MODEL 9
REMARK VINA RESULT:      -7.9     13.713     15.772
REMARK  Name = CHEMBL50566
REMARK  8 active torsions:
REMARK  status: ('A' for Active; 'I' for Inactive)
REMARK    1  A    between atoms: C1_1  and  C2_2
REMARK    2  A    between atoms: C4_4  and  C22_27
REMARK    3  A    between atoms: C5_5  and  C15_16
REMARK    4  A    between atoms: C6_6  and  C8_8
REMARK    5  A    between atoms: C12_12  and  C14_14
REMARK    6  A    between atoms: C15_16  and  C16_17
REMARK    7  A    between atoms: C16_17  and  C17_18
REMARK    8  A    between atoms: C19_20  and  O3_26
REMARK                            x       y       z     vdW  Elec       q    Type
REMARK                         _______ _______ _______ _____ _____    ______ ____
ROOT
ATOM      1  C1  <0> A   1      -1.218  13.113  54.919  0.00  0.00    +0.089 C 
ATOM      2  C2  <0> A   1      -1.307  11.910  54.016  0.00  0.00    -0.083 A 
ATOM      3  C3  <0> A   1      -2.538  11.495  53.539  0.00  0.00    +0.007 A 
ATOM      4  C4  <0> A   1      -2.627  10.391  52.709  0.00  0.00    -0.074 A 
ATOM      5  C5  <0> A   1      -1.488   9.699  52.353  0.00  0.00    -0.072 A 
ATOM      6  C6  <0> A   1      -0.245  10.113  52.829  0.00  0.00    -0.041 A 
ATOM      7  C7  <0> A   1      -0.161  11.228  53.661  0.00  0.00    +0.014 A 
ATOM      8  C22 <0> A   1      -3.971   9.944  52.195  0.00  0.00    +0.091 C 
ENDROOT
BRANCH   6   9
ATOM      9  C8  <0> A   1       0.983   9.373  52.449  0.00  0.00    -0.047 A 
ATOM     10  C9  <0> A   1       1.617   9.647  51.240  0.00  0.00    +0.049 A 
ATOM     11  C10 <0> A   1       2.759   8.956  50.890  0.00  0.00    -0.009 A 
ATOM     12  C11 <0> A   1       3.275   7.990  51.740  0.00  0.00    +0.097 A 
ATOM     13  C12 <0> A   1       2.647   7.715  52.943  0.00  0.00    -0.114 A 
ATOM     14  C13 <0> A   1       1.507   8.405  53.303  0.00  0.00    +0.055 A 
ATOM     15  C14 <0> A   1       3.211   6.663  53.863  0.00  0.00    +0.104 C 
ATOM     16  F1  <0> A   1       4.393   7.315  51.394  0.00  0.00    -0.137 F 
ENDBRANCH   6   9
BRANCH   5  17
ATOM     17  C15 <0> A   1      -1.587   8.498  51.449  0.00  0.00    +0.073 C 
BRANCH  17  18
ATOM     18  C16 <0> A   1      -1.694   8.960  49.994  0.00  0.00    +0.059 C 
BRANCH  18  19
ATOM     19  C17 <0> A   1      -2.529   7.953  49.200  0.00  0.00    +0.196 C 
ATOM     20  C18 <0> A   1      -2.237   6.537  49.706  0.00  0.00    +0.040 C 
ATOM     21  C19 <0> A   1      -3.043   5.528  48.881  0.00  0.00    +0.184 C 
ATOM     22  C20 <0> A   1      -2.639   5.658  47.407  0.00  0.00    +0.021 C 
ATOM     23  C21 <0> A   1      -2.755   7.114  47.011  0.00  0.00    +0.496 C 
ATOM     24  O1  <0> A   1      -3.340   7.439  46.004  0.00  0.00    -0.453 OA
ATOM     25  O2  <0> A   1      -2.187   8.037  47.812  0.00  0.00    -0.367 OA
BRANCH  21  26
ATOM     26  O3  <0> A   1      -4.438   5.798  49.024  0.00  0.00    -0.563 OA
ATOM     27  H22 <0> A   1      -4.945   5.691  48.208  0.00  0.00    +0.386 HD
ENDBRANCH  21  26
ENDBRANCH  18  19
ENDBRANCH  17  18
ENDBRANCH   5  17
TORSDOF 5
ENDMDL
MODEL 10
REMARK VINA RESULT:      -7.9      2.512      5.139
REMARK  Name = CHEMBL50566
REMARK  8 active torsions:
REMARK  status: ('A' for Active; 'I' for Inactive)
REMARK    1  A    between atoms: C1_1  and  C2_2
REMARK    2  A    between atoms: C4_4  and  C22_27
REMARK    3  A    between atoms: C5_5  and  C15_16
REMARK    4  A    between atoms: C6_6  and  C8_8
REMARK    5  A    between atoms: C12_12  and  C14_14
REMARK    6  A    between atoms: C15_16  and  C16_17
REMARK    7  A    between atoms: C16_17  and  C17_18
REMARK    8  A    between atoms: C19_20  and  O3_26
REMARK                            x       y       z     vdW  Elec       q    Type
REMARK                         _______ _______ _______ _____ _____    ______ ____
ROOT
ATOM      1  C1  <0> A   1     -16.651   5.784  47.107  0.00  0.00    +0.089 C 
ATOM      2  C2  <0> A   1     -15.702   6.738  46.428  0.00  0.00    -0.083 A 
ATOM      3  C3  <0> A   1     -15.075   6.368  45.252  0.00  0.00    +0.007 A 
ATOM      4  C4  <0> A   1     -14.203   7.239  44.623  0.00  0.00    -0.074 A 
ATOM      5  C5  <0> A   1     -13.954   8.482  45.167  0.00  0.00    -0.072 A 
ATOM      6  C6  <0> A   1     -14.582   8.861  46.352  0.00  0.00    -0.041 A 
ATOM      7  C7  <0> A   1     -15.464   7.982  46.978  0.00  0.00    +0.014 A 
ATOM      8  C22 <0> A   1     -13.523   6.828  43.343  0.00  0.00    +0.091 C 
ENDROOT
BRANCH   6   9
ATOM      9  C8  <0> A   1     -14.319  10.196  46.942  0.00  0.00    -0.047 A 
ATOM     10  C9  <0> A   1     -13.049  10.509  47.423  0.00  0.00    +0.049 A 
ATOM     11  C10 <0> A   1     -12.809  11.752  47.971  0.00  0.00    -0.009 A 
ATOM     12  C11 <0> A   1     -13.828  12.689  48.044  0.00  0.00    +0.097 A 
ATOM     13  C12 <0> A   1     -15.091  12.381  47.566  0.00  0.00    -0.114 A 
ATOM     14  C13 <0> A   1     -15.339  11.142  47.012  0.00  0.00    +0.055 A 
ATOM     15  C14 <0> A   1     -16.196  13.403  47.648  0.00  0.00    +0.104 C 
ATOM     16  F1  <0> A   1     -13.589  13.905  48.581  0.00  0.00    -0.137 F 
ENDBRANCH   6   9
BRANCH   5  17
ATOM     17  C15 <0> A   1     -13.004   9.430  44.482  0.00  0.00    +0.073 C 
BRANCH  17  18
ATOM     18  C16 <0> A   1     -13.800  10.508  43.745  0.00  0.00    +0.059 C 
BRANCH  18  19
ATOM     19  C17 <0> A   1     -13.734  10.251  42.238  0.00  0.00    +0.196 C 
ATOM     20  C18 <0> A   1     -12.279  10.337  41.769  0.00  0.00    +0.040 C 
ATOM     21  C19 <0> A   1     -12.221  10.120  40.254  0.00  0.00    +0.184 C 
ATOM     22  C20 <0> A   1     -13.065  11.200  39.565  0.00  0.00    +0.021 C 
ATOM     23  C21 <0> A   1     -14.437  11.207  40.204  0.00  0.00    +0.496 C 
ATOM     24  O1  <0> A   1     -15.438  11.187  39.526  0.00  0.00    -0.453 OA
ATOM     25  O2  <0> A   1     -14.511  11.237  41.550  0.00  0.00    -0.367 OA
BRANCH  21  26
ATOM     26  O3  <0> A   1     -12.739   8.827  39.935  0.00  0.00    -0.563 OA
ATOM     27  H22 <0> A   1     -13.326   8.817  39.167  0.00  0.00    +0.386 HD
ENDBRANCH  21  26
ENDBRANCH  18  19
ENDBRANCH  17  18
ENDBRANCH   5  17
TORSDOF 5
ENDMDL
