REMARK VINA RESULT:      -8.2      4.057      9.228
REMARK  Name = CHEMBL157724
REMARK  8 active torsions:
REMARK  status: ('A' for Active; 'I' for Inactive)
REMARK    1  A    between atoms: C1_1  and  C2_2
REMARK    2  A    between atoms: C2_2  and  C3_3
REMARK    3  A    between atoms: C2_2  and  C4_4
REMARK    4  A    between atoms: C5_5  and  C21_24
REMARK    5  A    between atoms: C6_6  and  C15_17
REMARK    6  A    between atoms: C8_8  and  C9_10
REMARK    7  A    between atoms: C22_25  and  C23_26
REMARK    8  A    between atoms: C25_28  and  O3_34
REMARK                            x       y       z     vdW  Elec       q    Type
REMARK                         _______ _______ _______ _____ _____    ______ ____
ROOT
ATOM      1  C4  <0> A   1     -27.066  -4.819  51.915  0.00  0.00    +0.166 A 
ATOM      2  C5  <0> A   1     -26.382  -3.604  51.939  0.00  0.00    -0.097 A 
ATOM      3  C6  <0> A   1     -25.033  -3.572  51.523  0.00  0.00    +0.013 A 
ATOM      4  C7  <0> A   1     -24.446  -4.763  51.104  0.00  0.00    -0.014 A 
ATOM      5  C8  <0> A   1     -25.204  -5.931  51.112  0.00  0.00    +0.177 A 
ATOM      6  N1  <0> A   1     -26.469  -5.922  51.516  0.00  0.00    -0.468 NA
ENDROOT
BRANCH   5   7
ATOM      7  C9  <0> A   1     -24.589  -7.204  50.667  0.00  0.00    -0.061 A 
ATOM      8  C10 <0> A   1     -24.572  -7.537  49.313  0.00  0.00    +0.065 A 
ATOM      9  C11 <0> A   1     -23.999  -8.722  48.903  0.00  0.00    -0.016 A 
ATOM     10  C12 <0> A   1     -23.442  -9.583  49.835  0.00  0.00    +0.111 A 
ATOM     11  C13 <0> A   1     -23.456  -9.257  51.182  0.00  0.00    -0.018 A 
ATOM     12  C14 <0> A   1     -24.021  -8.070  51.601  0.00  0.00    +0.097 A 
ATOM     13  F1  <0> A   1     -22.882 -10.744  49.430  0.00  0.00    -0.136 F 
ENDBRANCH   5   7
BRANCH   3  14
ATOM     14  C15 <0> A   1     -24.265  -2.305  51.530  0.00  0.00    -0.067 A 
ATOM     15  C16 <0> A   1     -23.481  -1.969  52.633  0.00  0.00    +0.076 A 
ATOM     16  C17 <0> A   1     -22.767  -0.788  52.636  0.00  0.00    -0.013 A 
ATOM     17  C18 <0> A   1     -22.826   0.062  51.543  0.00  0.00    +0.109 A 
ATOM     18  C19 <0> A   1     -23.603  -0.268  50.444  0.00  0.00    -0.013 A 
ATOM     19  C20 <0> A   1     -24.317  -1.449  50.431  0.00  0.00    +0.061 A 
ATOM     20  F2  <0> A   1     -22.126   1.217  51.550  0.00  0.00    -0.136 F 
ENDBRANCH   3  14
BRANCH   1  22
ATOM     21  C1  <0> A   1     -29.406  -5.083  51.138  0.00  0.00    +0.038 C 
ATOM     22  C2  <0> A   1     -28.506  -4.870  52.357  0.00  0.00    +0.043 C 
ATOM     23  C3  <0> A   1     -28.697  -6.027  53.340  0.00  0.00    +0.039 C 
ENDBRANCH   1  22
BRANCH   2  24
ATOM     24  C21 <0> A   1     -27.055  -2.372  52.393  0.00  0.00    +0.047 C 
ATOM     25  C22 <0> A   1     -27.702  -1.609  51.521  0.00  0.00    -0.010 C 
BRANCH  25  26
ATOM     26  C23 <0> A   1     -28.389  -0.350  51.985  0.00  0.00    +0.242 C 
ATOM     27  C24 <0> A   1     -29.900  -0.587  52.052  0.00  0.00    +0.050 C 
ATOM     28  C25 <0> A   1     -30.597   0.706  52.486  0.00  0.00    +0.186 C 
ATOM     29  C26 <0> A   1     -30.275   1.808  51.468  0.00  0.00    +0.024 C 
ATOM     30  C27 <0> A   1     -28.775   1.867  51.289  0.00  0.00    +0.498 C 
ATOM     31  O1  <0> A   1     -28.183   2.919  51.347  0.00  0.00    -0.450 OA
ATOM     32  O2  <0> A   1     -28.117   0.711  51.064  0.00  0.00    -0.369 OA
BRANCH  28  33
ATOM     33  O3  <0> A   1     -30.128   1.093  53.778  0.00  0.00    -0.564 OA
ATOM     34  H25 <0> A   1     -29.367   0.582  54.090  0.00  0.00    +0.387 HD
ENDBRANCH  28  33
ENDBRANCH  25  26
ENDBRANCH   2  24
TORSDOF 6
