REMARK VINA RESULT:      -6.9      2.667      4.970
REMARK  Name = CHEMBL348225
REMARK  13 active torsions:
REMARK  status: ('A' for Active; 'I' for Inactive)
REMARK    1  A    between atoms: C1_1  and  C2_2
REMARK    2  A    between atoms: C2_2  and  C3_3
REMARK    3  A    between atoms: C2_2  and  C4_4
REMARK    4  A    between atoms: C5_5  and  C19_20
REMARK    5  A    between atoms: C6_6  and  C14_15
REMARK    6  A    between atoms: C7_7  and  C8_9
REMARK    7  A    between atoms: C20_21  and  C21_22
REMARK    8  A    between atoms: C21_22  and  C22_24
REMARK    9  A    between atoms: C21_22  and  O4_32
REMARK   10  A    between atoms: C22_24  and  C23_25
REMARK   11  A    between atoms: C23_25  and  C24_27
REMARK   12  A    between atoms: C23_25  and  O3_31
REMARK   13  A    between atoms: C24_27  and  C25_28
REMARK                            x       y       z     vdW  Elec       q    Type
REMARK                         _______ _______ _______ _____ _____    ______ ____
ROOT
ATOM      1  C4  <0> A   1     -15.511  11.115  47.489  0.00  0.00    -0.118 C 
ATOM      2  C5  <0> A   1     -15.254  10.030  46.692  0.00  0.00    -0.085 C 
ATOM      3  C6  <0> A   1     -15.737   8.788  47.084  0.00  0.00    -0.073 C 
ATOM      4  C7  <0> A   1     -16.450   8.698  48.246  0.00  0.00    -0.128 C 
ATOM      5  S1  <0> A   1     -16.445  10.386  48.824  0.00  0.00    +0.045 S 
ENDROOT
BRANCH   4   6
ATOM      6  C8  <0> A   1     -17.061   7.504  48.869  0.00  0.00    +0.002 A 
ATOM      7  C9  <0> A   1     -16.364   6.784  49.839  0.00  0.00    +0.019 A 
ATOM      8  C10 <0> A   1     -16.941   5.673  50.417  0.00  0.00    +0.007 A 
ATOM      9  C11 <0> A   1     -18.208   5.270  50.036  0.00  0.00    +0.007 A 
ATOM     10  C12 <0> A   1     -18.906   5.980  49.074  0.00  0.00    +0.009 A 
ATOM     11  C13 <0> A   1     -18.343   7.097  48.494  0.00  0.00    +0.029 A 
ENDBRANCH   4   6
BRANCH   3  12
ATOM     12  C14 <0> A   1     -15.482   7.564  46.243  0.00  0.00    +0.041 C 
ATOM     13  C15 <0> A   1     -16.746   6.681  46.198  0.00  0.00    +0.017 C 
ATOM     14  C16 <0> A   1     -16.199   5.232  46.223  0.00  0.00    +0.010 C 
ATOM     15  C17 <0> A   1     -15.000   5.337  47.198  0.00  0.00    +0.005 C 
ATOM     16  C18 <0> A   1     -14.371   6.709  46.879  0.00  0.00    +0.016 C 
ENDBRANCH   3  12
BRANCH   1  18
ATOM     17  C1  <0> A   1     -16.243  13.470  47.744  0.00  0.00    +0.034 C 
ATOM     18  C2  <0> A   1     -15.105  12.552  47.293  0.00  0.00    +0.084 C 
ATOM     19  C3  <0> A   1     -13.853  12.846  48.121  0.00  0.00    +0.033 C 
ENDBRANCH   1  18
BRANCH   2  20
ATOM     20  C19 <0> A   1     -14.478  10.177  45.443  0.00  0.00    +0.037 C 
ATOM     21  C20 <0> A   1     -13.166   9.983  45.451  0.00  0.00    -0.066 C 
BRANCH  21  22
ATOM     22  C21 <0> A   1     -12.394   9.999  44.157  0.00  0.00    +0.251 C 
BRANCH  22  23
ATOM     23  O4  <0> A   1     -11.547   8.851  44.094  0.00  0.00    -0.539 OA
ATOM     24  H31 <0> A   1     -10.608   9.059  43.991  0.00  0.00    +0.363 HD
ENDBRANCH  22  23
BRANCH  22  25
ATOM     25  C22 <0> A   1     -13.372   9.978  42.979  0.00  0.00    -0.043 C 
BRANCH  25  26
ATOM     26  C23 <0> A   1     -12.863  10.910  41.878  0.00  0.00    +0.231 C 
BRANCH  26  27
ATOM     27  O3  <0> A   1     -11.555  10.499  41.473  0.00  0.00    -0.528 OA
ATOM     28  H30 <0> A   1     -11.101   9.938  42.118  0.00  0.00    +0.349 HD
ENDBRANCH  26  27
BRANCH  26  29
ATOM     29  C24 <0> A   1     -13.812  10.847  40.679  0.00  0.00    -0.102 C 
BRANCH  29  30
ATOM     30  C25 <0> A   1     -13.013  10.917  39.403  0.00  0.00    +0.490 C 
ATOM     31  O1  <0> A   1     -12.661  11.997  38.963  0.00  0.00    -0.681 OA
ATOM     32  O2  <0> A   1     -12.720   9.892  38.811  0.00  0.00    -0.713 OA
ENDBRANCH  29  30
ENDBRANCH  26  29
ENDBRANCH  25  26
ENDBRANCH  22  25
ENDBRANCH  21  22
ENDBRANCH   2  20
TORSDOF 11
