REMARK VINA RESULT:      -8.4     15.622     18.268
REMARK  Name = CHEMBL122937
REMARK  7 active torsions:
REMARK  status: ('A' for Active; 'I' for Inactive)
REMARK    1  A    between atoms: C1_1  and  C2_2
REMARK    2  A    between atoms: C2_2  and  C3_3
REMARK    3  A    between atoms: C2_2  and  C4_4
REMARK    4  A    between atoms: C5_5  and  C19_23
REMARK    5  A    between atoms: C6_6  and  C13_16
REMARK    6  A    between atoms: C20_24  and  C21_25
REMARK    7  A    between atoms: C23_28  and  O4_34
REMARK                            x       y       z     vdW  Elec       q    Type
REMARK                         _______ _______ _______ _____ _____    ______ ____
ROOT
ATOM      1  C4  <0> A   1     -14.507   6.750  44.624  0.00  0.00    +0.152 A 
ATOM      2  C5  <0> A   1     -14.187   7.897  45.369  0.00  0.00    -0.043 A 
ATOM      3  C6  <0> A   1     -13.585   8.987  44.726  0.00  0.00    +0.014 A 
ATOM      4  C7  <0> A   1     -13.327   8.873  43.337  0.00  0.00    -0.024 A 
ATOM      5  C8  <0> A   1     -12.728   9.920  42.623  0.00  0.00    +0.016 A 
ATOM      6  C9  <0> A   1     -12.493   9.776  41.286  0.00  0.00    +0.130 A 
ATOM      7  C10 <0> A   1     -12.844   8.600  40.623  0.00  0.00    +0.025 A 
ATOM      8  C11 <0> A   1     -13.428   7.567  41.290  0.00  0.00    +0.121 A 
ATOM      9  C12 <0> A   1     -13.684   7.679  42.667  0.00  0.00    +0.089 A 
ATOM     10  N1  <0> A   1     -14.252   6.671  43.342  0.00  0.00    -0.108 N 
ATOM     11  O1  <0> A   1     -14.593   5.485  42.647  0.00  0.00    -0.515 OA
ATOM     12  F1  <0> A   1     -11.915  10.784  40.598  0.00  0.00    -0.126 F 
ENDROOT
BRANCH   3  13
ATOM     13  C13 <0> A   1     -13.232  10.213  45.472  0.00  0.00    -0.072 A 
ATOM     14  C14 <0> A   1     -11.961  10.352  46.033  0.00  0.00    +0.080 A 
ATOM     15  C15 <0> A   1     -11.637  11.499  46.727  0.00  0.00    -0.005 A 
ATOM     16  C16 <0> A   1     -12.571  12.512  46.869  0.00  0.00    +0.115 A 
ATOM     17  C17 <0> A   1     -13.835  12.380  46.315  0.00  0.00    -0.007 A 
ATOM     18  C18 <0> A   1     -14.166  11.240  45.613  0.00  0.00    +0.064 A 
ATOM     19  F2  <0> A   1     -12.249  13.634  47.550  0.00  0.00    -0.134 F 
ENDBRANCH   3  13
BRANCH   1  21
ATOM     20  C1  <0> A   1     -16.497   5.271  44.655  0.00  0.00    +0.048 C 
ATOM     21  C2  <0> A   1     -15.153   5.579  45.318  0.00  0.00    +0.053 C 
ATOM     22  C3  <0> A   1     -14.240   4.356  45.214  0.00  0.00    +0.048 C 
ENDBRANCH   1  21
BRANCH   2  23
ATOM     23  C19 <0> A   1     -14.482   7.952  46.814  0.00  0.00    +0.049 C 
ATOM     24  C20 <0> A   1     -15.675   8.356  47.233  0.00  0.00    +0.013 C 
BRANCH  24  25
ATOM     25  C21 <0> A   1     -15.976   8.411  48.709  0.00  0.00    +0.244 C 
ATOM     26  C22 <0> A   1     -17.214   7.562  49.009  0.00  0.00    +0.052 C 
ATOM     27  C23 <0> A   1     -17.542   7.654  50.503  0.00  0.00    +0.187 C 
ATOM     28  C24 <0> A   1     -17.802   9.121  50.865  0.00  0.00    +0.025 C 
ATOM     29  C25 <0> A   1     -16.636   9.947  50.368  0.00  0.00    +0.498 C 
ATOM     30  O2  <0> A   1     -16.087  10.746  51.090  0.00  0.00    -0.448 OA
ATOM     31  O3  <0> A   1     -16.225   9.767  49.096  0.00  0.00    -0.369 OA
BRANCH  27  32
ATOM     32  O4  <0> A   1     -16.439   7.158  51.265  0.00  0.00    -0.564 OA
ATOM     33  H23 <0> A   1     -16.215   7.703  52.032  0.00  0.00    +0.388 HD
ENDBRANCH  27  32
ENDBRANCH  24  25
ENDBRANCH   2  23
TORSDOF 5
