MODEL 1
REMARK VINA RESULT:      -7.3      0.000      0.000
REMARK  Name = CHEMBL85673
REMARK  13 active torsions:
REMARK  status: ('A' for Active; 'I' for Inactive)
REMARK    1  A    between atoms: C1_1  and  C2_2
REMARK    2  A    between atoms: C2_2  and  C3_3
REMARK    3  A    between atoms: C3_3  and  C4_4
REMARK    4  A    between atoms: C3_3  and  C5_5
REMARK    5  A    between atoms: C3_3  and  C6_6
REMARK    6  A    between atoms: C6_6  and  O2_8
REMARK    7  A    between atoms: O2_8  and  C7_9
REMARK    8  A    between atoms: C9_12  and  C25_35
REMARK    9  A    between atoms: C13_17  and  C18_24
REMARK   10  A    between atoms: C14_19  and  C17_23
REMARK   11  A    between atoms: C18_24  and  C19_25
REMARK   12  A    between atoms: C19_25  and  C20_26
REMARK   13  A    between atoms: C22_28  and  O5_34
REMARK                            x       y       z     vdW  Elec       q    Type
REMARK                         _______ _______ _______ _____ _____    ______ ____
ROOT
ATOM      1  C7  <0> A   1     -27.008  -1.787  51.718  0.00  0.00    +0.177 C 
ATOM      2  C8  <0> A   1     -27.805  -0.487  51.595  0.00  0.00    +0.007 C 
ATOM      3  C9  <0> A   1     -27.267   0.330  50.418  0.00  0.00    -0.016 C 
ATOM      4  C10 <0> A   1     -25.792   0.657  50.656  0.00  0.00    +0.019 C 
ATOM      5  C11 <0> A   1     -24.995  -0.643  50.779  0.00  0.00    -0.005 C 
ATOM      6  C12 <0> A   1     -25.532  -1.460  51.956  0.00  0.00    +0.013 C 
ATOM      7  C13 <0> A   1     -24.735  -2.760  52.080  0.00  0.00    +0.001 C 
ATOM      8  C14 <0> A   1     -23.259  -2.433  52.318  0.00  0.00    -0.013 C 
ATOM      9  C15 <0> A   1     -22.722  -1.616  51.141  0.00  0.00    +0.011 C 
ATOM     10  C16 <0> A   1     -23.519  -0.316  51.017  0.00  0.00    +0.016 C 
ATOM     11  C17 <0> A   1     -22.462  -3.733  52.441  0.00  0.00    +0.019 C 
ATOM     12  C25 <0> A   1     -28.065   1.630  50.294  0.00  0.00    +0.021 C 
ENDROOT
BRANCH   1  13
ATOM     13  O2  <0> A   1     -27.509  -2.551  52.818  0.00  0.00    -0.339 OA
BRANCH  13  14
ATOM     14  C6  <0> A   1     -28.680  -3.181  52.638  0.00  0.00    +0.468 C 
ATOM     15  O1  <0> A   1     -28.795  -4.004  51.760  0.00  0.00    -0.503 OA
BRANCH  14  16
ATOM     16  C3  <0> A   1     -29.853  -2.861  53.529  0.00  0.00    -0.052 C 
ATOM     17  C4  <0> A   1     -29.482  -1.714  54.471  0.00  0.00    +0.060 C 
ATOM     18  C5  <0> A   1     -30.219  -4.099  54.352  0.00  0.00    +0.061 C 
BRANCH  16  20
ATOM     19  C1  <0> A   1     -31.300  -0.949  52.829  0.00  0.00    +0.024 C 
ATOM     20  C2  <0> A   1     -31.050  -2.449  52.669  0.00  0.00    +0.036 C 
ENDBRANCH  16  20
ENDBRANCH  14  16
ENDBRANCH  13  14
ENDBRANCH   1  13
BRANCH   7  21
ATOM     21  C18 <0> A   1     -24.877  -3.570  50.790  0.00  0.00    +0.018 C 
BRANCH  21  22
ATOM     22  C19 <0> A   1     -25.616  -4.877  51.086  0.00  0.00    +0.046 C 
BRANCH  22  23
ATOM     23  C20 <0> A   1     -24.749  -6.062  50.659  0.00  0.00    +0.191 C 
ATOM     24  C21 <0> A   1     -25.443  -6.820  49.524  0.00  0.00    +0.039 C 
ATOM     25  C22 <0> A   1     -24.592  -8.030  49.126  0.00  0.00    +0.183 C 
ATOM     26  C23 <0> A   1     -24.422  -8.942  50.348  0.00  0.00    +0.020 C 
ATOM     27  C24 <0> A   1     -23.920  -8.100  51.501  0.00  0.00    +0.495 C 
ATOM     28  O3  <0> A   1     -22.973  -8.454  52.162  0.00  0.00    -0.454 OA
ATOM     29  O4  <0> A   1     -24.562  -6.944  51.771  0.00  0.00    -0.366 OA
BRANCH  25  30
ATOM     30  O5  <0> A   1     -23.310  -7.586  48.675  0.00  0.00    -0.563 OA
ATOM     31  H39 <0> A   1     -23.263  -6.639  48.492  0.00  0.00    +0.386 HD
ENDBRANCH  25  30
ENDBRANCH  22  23
ENDBRANCH  21  22
ENDBRANCH   7  21
TORSDOF 8
ENDMDL
MODEL 2
REMARK VINA RESULT:      -7.2      3.987      7.893
REMARK  Name = CHEMBL85673
REMARK  13 active torsions:
REMARK  status: ('A' for Active; 'I' for Inactive)
REMARK    1  A    between atoms: C1_1  and  C2_2
REMARK    2  A    between atoms: C2_2  and  C3_3
REMARK    3  A    between atoms: C3_3  and  C4_4
REMARK    4  A    between atoms: C3_3  and  C5_5
REMARK    5  A    between atoms: C3_3  and  C6_6
REMARK    6  A    between atoms: C6_6  and  O2_8
REMARK    7  A    between atoms: O2_8  and  C7_9
REMARK    8  A    between atoms: C9_12  and  C25_35
REMARK    9  A    between atoms: C13_17  and  C18_24
REMARK   10  A    between atoms: C14_19  and  C17_23
REMARK   11  A    between atoms: C18_24  and  C19_25
REMARK   12  A    between atoms: C19_25  and  C20_26
REMARK   13  A    between atoms: C22_28  and  O5_34
REMARK                            x       y       z     vdW  Elec       q    Type
REMARK                         _______ _______ _______ _____ _____    ______ ____
ROOT
ATOM      1  C7  <0> A   1     -26.329  -6.791  50.203  0.00  0.00    +0.177 C 
ATOM      2  C8  <0> A   1     -25.009  -6.017  50.222  0.00  0.00    +0.007 C 
ATOM      3  C9  <0> A   1     -25.105  -4.871  51.231  0.00  0.00    -0.016 C 
ATOM      4  C10 <0> A   1     -26.242  -3.930  50.828  0.00  0.00    +0.019 C 
ATOM      5  C11 <0> A   1     -27.562  -4.704  50.809  0.00  0.00    -0.005 C 
ATOM      6  C12 <0> A   1     -27.466  -5.850  49.800  0.00  0.00    +0.013 C 
ATOM      7  C13 <0> A   1     -28.786  -6.623  49.780  0.00  0.00    +0.001 C 
ATOM      8  C14 <0> A   1     -29.923  -5.682  49.377  0.00  0.00    -0.013 C 
ATOM      9  C15 <0> A   1     -30.019  -4.536  50.386  0.00  0.00    +0.011 C 
ATOM     10  C16 <0> A   1     -28.698  -3.762  50.406  0.00  0.00    +0.016 C 
ATOM     11  C17 <0> A   1     -31.243  -6.456  49.358  0.00  0.00    +0.019 C 
ATOM     12  C25 <0> A   1     -23.785  -4.098  51.251  0.00  0.00    +0.021 C 
ENDROOT
BRANCH   1  13
ATOM     13  O2  <0> A   1     -26.240  -7.861  49.260  0.00  0.00    -0.339 OA
BRANCH  13  14
ATOM     14  C6  <0> A   1     -25.630  -8.984  49.669  0.00  0.00    +0.468 C 
ATOM     15  O1  <0> A   1     -26.020  -9.558  50.659  0.00  0.00    -0.503 OA
BRANCH  14  16
ATOM     16  C3  <0> A   1     -24.457  -9.530  48.896  0.00  0.00    -0.052 C 
ATOM     17  C4  <0> A   1     -23.229  -9.591  49.807  0.00  0.00    +0.060 C 
ATOM     18  C5  <0> A   1     -24.163  -8.615  47.704  0.00  0.00    +0.061 C 
BRANCH  16  20
ATOM     19  C1  <0> A   1     -23.740 -11.923  48.906  0.00  0.00    +0.024 C 
ATOM     20  C2  <0> A   1     -24.788 -10.935  48.390  0.00  0.00    +0.036 C 
ENDBRANCH  16  20
ENDBRANCH  14  16
ENDBRANCH  13  14
ENDBRANCH   1  13
BRANCH   7  21
ATOM     21  C18 <0> A   1     -29.064  -7.192  51.172  0.00  0.00    +0.018 C 
BRANCH  21  22
ATOM     22  C19 <0> A   1     -29.401  -8.681  51.058  0.00  0.00    +0.046 C 
BRANCH  22  23
ATOM     23  C20 <0> A   1     -30.328  -9.084  52.205  0.00  0.00    +0.191 C 
ATOM     24  C21 <0> A   1     -30.042  -8.208  53.427  0.00  0.00    +0.039 C 
ATOM     25  C22 <0> A   1     -30.943  -8.641  54.587  0.00  0.00    +0.183 C 
ATOM     26  C23 <0> A   1     -30.662 -10.114  54.911  0.00  0.00    +0.020 C 
ATOM     27  C24 <0> A   1     -30.765 -10.910  53.628  0.00  0.00    +0.495 C 
ATOM     28  O3  <0> A   1     -31.420 -11.924  53.577  0.00  0.00    -0.454 OA
ATOM     29  O4  <0> A   1     -30.102 -10.457  52.544  0.00  0.00    -0.366 OA
BRANCH  25  30
ATOM     30  O5  <0> A   1     -32.314  -8.485  54.212  0.00  0.00    -0.563 OA
ATOM     31  H39 <0> A   1     -32.696  -9.261  53.782  0.00  0.00    +0.386 HD
ENDBRANCH  25  30
ENDBRANCH  22  23
ENDBRANCH  21  22
ENDBRANCH   7  21
TORSDOF 8
ENDMDL
MODEL 3
REMARK VINA RESULT:      -7.1      4.818      8.206
REMARK  Name = CHEMBL85673
REMARK  13 active torsions:
REMARK  status: ('A' for Active; 'I' for Inactive)
REMARK    1  A    between atoms: C1_1  and  C2_2
REMARK    2  A    between atoms: C2_2  and  C3_3
REMARK    3  A    between atoms: C3_3  and  C4_4
REMARK    4  A    between atoms: C3_3  and  C5_5
REMARK    5  A    between atoms: C3_3  and  C6_6
REMARK    6  A    between atoms: C6_6  and  O2_8
REMARK    7  A    between atoms: O2_8  and  C7_9
REMARK    8  A    between atoms: C9_12  and  C25_35
REMARK    9  A    between atoms: C13_17  and  C18_24
REMARK   10  A    between atoms: C14_19  and  C17_23
REMARK   11  A    between atoms: C18_24  and  C19_25
REMARK   12  A    between atoms: C19_25  and  C20_26
REMARK   13  A    between atoms: C22_28  and  O5_34
REMARK                            x       y       z     vdW  Elec       q    Type
REMARK                         _______ _______ _______ _____ _____    ______ ____
ROOT
ATOM      1  C7  <0> A   1     -25.701   1.161  51.803  0.00  0.00    +0.177 C 
ATOM      2  C8  <0> A   1     -27.205   0.917  51.665  0.00  0.00    +0.007 C 
ATOM      3  C9  <0> A   1     -27.886   2.198  51.176  0.00  0.00    -0.016 C 
ATOM      4  C10 <0> A   1     -27.642   3.322  52.186  0.00  0.00    +0.019 C 
ATOM      5  C11 <0> A   1     -26.137   3.565  52.324  0.00  0.00    -0.005 C 
ATOM      6  C12 <0> A   1     -25.457   2.284  52.812  0.00  0.00    +0.013 C 
ATOM      7  C13 <0> A   1     -23.953   2.528  52.951  0.00  0.00    +0.001 C 
ATOM      8  C14 <0> A   1     -23.709   3.652  53.960  0.00  0.00    -0.013 C 
ATOM      9  C15 <0> A   1     -24.390   4.933  53.472  0.00  0.00    +0.011 C 
ATOM     10  C16 <0> A   1     -25.894   4.689  53.333  0.00  0.00    +0.016 C 
ATOM     11  C17 <0> A   1     -22.205   3.895  54.099  0.00  0.00    +0.019 C 
ATOM     12  C25 <0> A   1     -29.389   1.954  51.037  0.00  0.00    +0.021 C 
ENDROOT
BRANCH   1  13
ATOM     13  O2  <0> A   1     -25.065  -0.035  52.259  0.00  0.00    -0.339 OA
BRANCH  13  14
ATOM     14  C6  <0> A   1     -24.496  -0.816  51.328  0.00  0.00    +0.468 C 
ATOM     15  O1  <0> A   1     -24.600  -0.534  50.157  0.00  0.00    -0.503 OA
BRANCH  14  16
ATOM     16  C3  <0> A   1     -23.731  -2.047  51.740  0.00  0.00    -0.052 C 
ATOM     17  C4  <0> A   1     -22.597  -2.301  50.744  0.00  0.00    +0.060 C 
ATOM     18  C5  <0> A   1     -24.675  -3.252  51.757  0.00  0.00    +0.061 C 
BRANCH  16  20
ATOM     19  C1  <0> A   1     -21.751  -1.221  53.021  0.00  0.00    +0.024 C 
ATOM     20  C2  <0> A   1     -23.145  -1.839  53.139  0.00  0.00    +0.036 C 
ENDBRANCH  16  20
ENDBRANCH  14  16
ENDBRANCH  13  14
ENDBRANCH   1  13
BRANCH   7  21
ATOM     21  C18 <0> A   1     -23.373   2.927  51.593  0.00  0.00    +0.018 C 
BRANCH  21  22
ATOM     22  C19 <0> A   1     -22.261   1.951  51.205  0.00  0.00    +0.046 C 
BRANCH  22  23
ATOM     23  C20 <0> A   1     -21.167   2.700  50.442  0.00  0.00    +0.191 C 
ATOM     24  C21 <0> A   1     -19.993   2.986  51.382  0.00  0.00    +0.039 C 
ATOM     25  C22 <0> A   1     -18.917   3.773  50.626  0.00  0.00    +0.183 C 
ATOM     26  C23 <0> A   1     -19.526   5.087  50.119  0.00  0.00    +0.020 C 
ATOM     27  C24 <0> A   1     -20.796   4.760  49.363  0.00  0.00    +0.495 C 
ATOM     28  O3  <0> A   1     -21.002   5.226  48.267  0.00  0.00    -0.454 OA
ATOM     29  O4  <0> A   1     -21.690   3.938  49.948  0.00  0.00    -0.366 OA
BRANCH  25  30
ATOM     30  O5  <0> A   1     -18.450   3.000  49.517  0.00  0.00    -0.563 OA
ATOM     31  H39 <0> A   1     -18.766   3.312  48.659  0.00  0.00    +0.386 HD
ENDBRANCH  25  30
ENDBRANCH  22  23
ENDBRANCH  21  22
ENDBRANCH   7  21
TORSDOF 8
ENDMDL
MODEL 4
REMARK VINA RESULT:      -7.1      2.582      7.020
REMARK  Name = CHEMBL85673
REMARK  13 active torsions:
REMARK  status: ('A' for Active; 'I' for Inactive)
REMARK    1  A    between atoms: C1_1  and  C2_2
REMARK    2  A    between atoms: C2_2  and  C3_3
REMARK    3  A    between atoms: C3_3  and  C4_4
REMARK    4  A    between atoms: C3_3  and  C5_5
REMARK    5  A    between atoms: C3_3  and  C6_6
REMARK    6  A    between atoms: C6_6  and  O2_8
REMARK    7  A    between atoms: O2_8  and  C7_9
REMARK    8  A    between atoms: C9_12  and  C25_35
REMARK    9  A    between atoms: C13_17  and  C18_24
REMARK   10  A    between atoms: C14_19  and  C17_23
REMARK   11  A    between atoms: C18_24  and  C19_25
REMARK   12  A    between atoms: C19_25  and  C20_26
REMARK   13  A    between atoms: C22_28  and  O5_34
REMARK                            x       y       z     vdW  Elec       q    Type
REMARK                         _______ _______ _______ _____ _____    ______ ____
ROOT
ATOM      1  C7  <0> A   1     -25.649  -5.220  51.177  0.00  0.00    +0.177 C 
ATOM      2  C8  <0> A   1     -24.304  -4.649  50.723  0.00  0.00    +0.007 C 
ATOM      3  C9  <0> A   1     -24.149  -3.224  51.262  0.00  0.00    -0.016 C 
ATOM      4  C10 <0> A   1     -25.283  -2.350  50.724  0.00  0.00    +0.019 C 
ATOM      5  C11 <0> A   1     -26.627  -2.921  51.178  0.00  0.00    -0.005 C 
ATOM      6  C12 <0> A   1     -26.783  -4.345  50.640  0.00  0.00    +0.013 C 
ATOM      7  C13 <0> A   1     -28.128  -4.917  51.093  0.00  0.00    +0.001 C 
ATOM      8  C14 <0> A   1     -29.262  -4.042  50.555  0.00  0.00    -0.013 C 
ATOM      9  C15 <0> A   1     -29.106  -2.618  51.093  0.00  0.00    +0.011 C 
ATOM     10  C16 <0> A   1     -27.761  -2.046  50.640  0.00  0.00    +0.016 C 
ATOM     11  C17 <0> A   1     -30.606  -4.614  51.009  0.00  0.00    +0.019 C 
ATOM     12  C25 <0> A   1     -22.804  -2.653  50.809  0.00  0.00    +0.021 C 
ENDROOT
BRANCH   1  13
ATOM     13  O2  <0> A   1     -25.795  -6.551  50.675  0.00  0.00    -0.339 OA
BRANCH  13  14
ATOM     14  C6  <0> A   1     -25.014  -7.496  51.218  0.00  0.00    +0.468 C 
ATOM     15  O1  <0> A   1     -24.639  -7.387  52.363  0.00  0.00    -0.503 OA
BRANCH  14  16
ATOM     16  C3  <0> A   1     -24.600  -8.694  50.402  0.00  0.00    -0.052 C 
ATOM     17  C4  <0> A   1     -23.846  -8.227  49.155  0.00  0.00    +0.060 C 
ATOM     18  C5  <0> A   1     -25.846  -9.478  49.981  0.00  0.00    +0.061 C 
BRANCH  16  20
ATOM     19  C1  <0> A   1     -24.317 -10.986  51.354  0.00  0.00    +0.024 C 
ATOM     20  C2  <0> A   1     -23.691  -9.595  51.241  0.00  0.00    +0.036 C 
ENDBRANCH  16  20
ENDBRANCH  14  16
ENDBRANCH  13  14
ENDBRANCH   1  13
BRANCH   7  21
ATOM     21  C18 <0> A   1     -28.182  -4.941  52.621  0.00  0.00    +0.018 C 
BRANCH  21  22
ATOM     22  C19 <0> A   1     -28.221  -6.391  53.108  0.00  0.00    +0.046 C 
BRANCH  22  23
ATOM     23  C20 <0> A   1     -29.640  -6.741  53.560  0.00  0.00    +0.191 C 
ATOM     24  C21 <0> A   1     -30.159  -5.654  54.504  0.00  0.00    +0.039 C 
ATOM     25  C22 <0> A   1     -31.563  -6.028  54.987  0.00  0.00    +0.183 C 
ATOM     26  C23 <0> A   1     -31.496  -7.377  55.715  0.00  0.00    +0.020 C 
ATOM     27  C24 <0> A   1     -30.795  -8.368  54.812  0.00  0.00    +0.495 C 
ATOM     28  O3  <0> A   1     -31.267  -9.461  54.605  0.00  0.00    -0.454 OA
ATOM     29  O4  <0> A   1     -29.627  -7.998  54.247  0.00  0.00    -0.366 OA
BRANCH  25  30
ATOM     30  O5  <0> A   1     -32.443  -6.130  53.865  0.00  0.00    -0.563 OA
ATOM     31  H39 <0> A   1     -32.565  -7.033  53.541  0.00  0.00    +0.386 HD
ENDBRANCH  25  30
ENDBRANCH  22  23
ENDBRANCH  21  22
ENDBRANCH   7  21
TORSDOF 8
ENDMDL
MODEL 5
REMARK VINA RESULT:      -7.1      4.001      7.494
REMARK  Name = CHEMBL85673
REMARK  13 active torsions:
REMARK  status: ('A' for Active; 'I' for Inactive)
REMARK    1  A    between atoms: C1_1  and  C2_2
REMARK    2  A    between atoms: C2_2  and  C3_3
REMARK    3  A    between atoms: C3_3  and  C4_4
REMARK    4  A    between atoms: C3_3  and  C5_5
REMARK    5  A    between atoms: C3_3  and  C6_6
REMARK    6  A    between atoms: C6_6  and  O2_8
REMARK    7  A    between atoms: O2_8  and  C7_9
REMARK    8  A    between atoms: C9_12  and  C25_35
REMARK    9  A    between atoms: C13_17  and  C18_24
REMARK   10  A    between atoms: C14_19  and  C17_23
REMARK   11  A    between atoms: C18_24  and  C19_25
REMARK   12  A    between atoms: C19_25  and  C20_26
REMARK   13  A    between atoms: C22_28  and  O5_34
REMARK                            x       y       z     vdW  Elec       q    Type
REMARK                         _______ _______ _______ _____ _____    ______ ____
ROOT
ATOM      1  C7  <0> A   1     -29.655  -7.706  53.020  0.00  0.00    +0.177 C 
ATOM      2  C8  <0> A   1     -30.389  -7.519  54.350  0.00  0.00    +0.007 C 
ATOM      3  C9  <0> A   1     -30.802  -8.886  54.900  0.00  0.00    -0.016 C 
ATOM      4  C10 <0> A   1     -31.728  -9.580  53.900  0.00  0.00    +0.019 C 
ATOM      5  C11 <0> A   1     -30.994  -9.767  52.570  0.00  0.00    -0.005 C 
ATOM      6  C12 <0> A   1     -30.581  -8.400  52.019  0.00  0.00    +0.013 C 
ATOM      7  C13 <0> A   1     -29.848  -8.587  50.690  0.00  0.00    +0.001 C 
ATOM      8  C14 <0> A   1     -30.773  -9.281  49.689  0.00  0.00    -0.013 C 
ATOM      9  C15 <0> A   1     -31.186 -10.648  50.240  0.00  0.00    +0.011 C 
ATOM     10  C16 <0> A   1     -31.920 -10.461  51.570  0.00  0.00    +0.016 C 
ATOM     11  C17 <0> A   1     -30.039  -9.469  48.360  0.00  0.00    +0.019 C 
ATOM     12  C25 <0> A   1     -31.535  -8.699  56.230  0.00  0.00    +0.021 C 
ENDROOT
BRANCH   1  13
ATOM     13  O2  <0> A   1     -29.269  -6.430  52.506  0.00  0.00    -0.339 OA
BRANCH  13  14
ATOM     14  C6  <0> A   1     -27.986  -6.070  52.666  0.00  0.00    +0.468 C 
ATOM     15  O1  <0> A   1     -27.322  -6.576  53.540  0.00  0.00    -0.503 OA
BRANCH  14  16
ATOM     16  C3  <0> A   1     -27.374  -5.035  51.758  0.00  0.00    -0.052 C 
ATOM     17  C4  <0> A   1     -27.707  -3.636  52.282  0.00  0.00    +0.060 C 
ATOM     18  C5  <0> A   1     -27.939  -5.198  50.345  0.00  0.00    +0.061 C 
BRANCH  16  20
ATOM     19  C1  <0> A   1     -25.209  -4.003  51.058  0.00  0.00    +0.024 C 
ATOM     20  C2  <0> A   1     -25.855  -5.219  51.724  0.00  0.00    +0.036 C 
ENDBRANCH  16  20
ENDBRANCH  14  16
ENDBRANCH  13  14
ENDBRANCH   1  13
BRANCH   7  21
ATOM     21  C18 <0> A   1     -28.601  -9.445  50.912  0.00  0.00    +0.018 C 
BRANCH  21  22
ATOM     22  C19 <0> A   1     -27.380  -8.734  50.323  0.00  0.00    +0.046 C 
BRANCH  22  23
ATOM     23  C20 <0> A   1     -26.144  -9.620  50.490  0.00  0.00    +0.191 C 
ATOM     24  C21 <0> A   1     -24.918  -8.742  50.755  0.00  0.00    +0.039 C 
ATOM     25  C22 <0> A   1     -23.676  -9.629  50.880  0.00  0.00    +0.183 C 
ATOM     26  C23 <0> A   1     -23.493 -10.416  49.576  0.00  0.00    +0.020 C 
ATOM     27  C24 <0> A   1     -24.800 -11.108  49.254  0.00  0.00    +0.495 C 
ATOM     28  O3  <0> A   1     -24.827 -12.282  48.968  0.00  0.00    -0.454 OA
ATOM     29  O4  <0> A   1     -25.933 -10.377  49.293  0.00  0.00    -0.366 OA
BRANCH  25  30
ATOM     30  O5  <0> A   1     -23.844 -10.537  51.971  0.00  0.00    -0.563 OA
ATOM     31  H39 <0> A   1     -24.760 -10.804  52.124  0.00  0.00    +0.386 HD
ENDBRANCH  25  30
ENDBRANCH  22  23
ENDBRANCH  21  22
ENDBRANCH   7  21
TORSDOF 8
ENDMDL
MODEL 6
REMARK VINA RESULT:      -7.0     14.921     18.557
REMARK  Name = CHEMBL85673
REMARK  13 active torsions:
REMARK  status: ('A' for Active; 'I' for Inactive)
REMARK    1  A    between atoms: C1_1  and  C2_2
REMARK    2  A    between atoms: C2_2  and  C3_3
REMARK    3  A    between atoms: C3_3  and  C4_4
REMARK    4  A    between atoms: C3_3  and  C5_5
REMARK    5  A    between atoms: C3_3  and  C6_6
REMARK    6  A    between atoms: C6_6  and  O2_8
REMARK    7  A    between atoms: O2_8  and  C7_9
REMARK    8  A    between atoms: C9_12  and  C25_35
REMARK    9  A    between atoms: C13_17  and  C18_24
REMARK   10  A    between atoms: C14_19  and  C17_23
REMARK   11  A    between atoms: C18_24  and  C19_25
REMARK   12  A    between atoms: C19_25  and  C20_26
REMARK   13  A    between atoms: C22_28  and  O5_34
REMARK                            x       y       z     vdW  Elec       q    Type
REMARK                         _______ _______ _______ _____ _____    ______ ____
ROOT
ATOM      1  C7  <0> A   1     -12.925   9.400  44.724  0.00  0.00    +0.177 C 
ATOM      2  C8  <0> A   1     -12.292  10.012  43.473  0.00  0.00    +0.007 C 
ATOM      3  C9  <0> A   1     -13.181   9.726  42.260  0.00  0.00    -0.016 C 
ATOM      4  C10 <0> A   1     -13.319   8.214  42.075  0.00  0.00    +0.019 C 
ATOM      5  C11 <0> A   1     -13.952   7.602  43.326  0.00  0.00    -0.005 C 
ATOM      6  C12 <0> A   1     -13.063   7.888  44.539  0.00  0.00    +0.013 C 
ATOM      7  C13 <0> A   1     -13.696   7.276  45.789  0.00  0.00    +0.001 C 
ATOM      8  C14 <0> A   1     -13.834   5.763  45.604  0.00  0.00    -0.013 C 
ATOM      9  C15 <0> A   1     -14.723   5.477  44.392  0.00  0.00    +0.011 C 
ATOM     10  C16 <0> A   1     -14.090   6.090  43.140  0.00  0.00    +0.016 C 
ATOM     11  C17 <0> A   1     -14.467   5.152  46.856  0.00  0.00    +0.019 C 
ATOM     12  C25 <0> A   1     -12.548  10.338  41.009  0.00  0.00    +0.021 C 
ENDROOT
BRANCH   1  13
ATOM     13  O2  <0> A   1     -12.095   9.668  45.857  0.00  0.00    -0.339 OA
BRANCH  13  14
ATOM     14  C6  <0> A   1     -11.842  10.955  46.137  0.00  0.00    +0.468 C 
ATOM     15  O1  <0> A   1     -10.834  11.477  45.722  0.00  0.00    -0.503 OA
BRANCH  14  16
ATOM     16  C3  <0> A   1     -12.814  11.750  46.970  0.00  0.00    -0.052 C 
ATOM     17  C4  <0> A   1     -12.203  13.113  47.305  0.00  0.00    +0.060 C 
ATOM     18  C5  <0> A   1     -13.111  10.993  48.267  0.00  0.00    +0.061 C 
BRANCH  16  20
ATOM     19  C1  <0> A   1     -15.288  12.036  47.165  0.00  0.00    +0.024 C 
ATOM     20  C2  <0> A   1     -14.114  11.950  46.189  0.00  0.00    +0.036 C 
ENDBRANCH  16  20
ENDBRANCH  14  16
ENDBRANCH  13  14
ENDBRANCH   1  13
BRANCH   7  21
ATOM     21  C18 <0> A   1     -15.078   7.891  46.015  0.00  0.00    +0.018 C 
BRANCH  21  22
ATOM     22  C19 <0> A   1     -15.201   8.352  47.469  0.00  0.00    +0.046 C 
BRANCH  22  23
ATOM     23  C20 <0> A   1     -16.623   8.091  47.968  0.00  0.00    +0.191 C 
ATOM     24  C21 <0> A   1     -16.567   7.403  49.334  0.00  0.00    +0.039 C 
ATOM     25  C22 <0> A   1     -17.992   7.106  49.813  0.00  0.00    +0.183 C 
ATOM     26  C23 <0> A   1     -18.682   6.197  48.787  0.00  0.00    +0.020 C 
ATOM     27  C24 <0> A   1     -18.535   6.829  47.420  0.00  0.00    +0.495 C 
ATOM     28  O3  <0> A   1     -19.489   6.956  46.689  0.00  0.00    -0.454 OA
ATOM     29  O4  <0> A   1     -17.309   7.244  47.040  0.00  0.00    -0.366 OA
BRANCH  25  30
ATOM     30  O5  <0> A   1     -18.720   8.330  49.937  0.00  0.00    -0.563 OA
ATOM     31  H39 <0> A   1     -18.239   9.108  49.625  0.00  0.00    +0.386 HD
ENDBRANCH  25  30
ENDBRANCH  22  23
ENDBRANCH  21  22
ENDBRANCH   7  21
TORSDOF 8
ENDMDL
MODEL 7
REMARK VINA RESULT:      -7.0      1.817      2.645
REMARK  Name = CHEMBL85673
REMARK  13 active torsions:
REMARK  status: ('A' for Active; 'I' for Inactive)
REMARK    1  A    between atoms: C1_1  and  C2_2
REMARK    2  A    between atoms: C2_2  and  C3_3
REMARK    3  A    between atoms: C3_3  and  C4_4
REMARK    4  A    between atoms: C3_3  and  C5_5
REMARK    5  A    between atoms: C3_3  and  C6_6
REMARK    6  A    between atoms: C6_6  and  O2_8
REMARK    7  A    between atoms: O2_8  and  C7_9
REMARK    8  A    between atoms: C9_12  and  C25_35
REMARK    9  A    between atoms: C13_17  and  C18_24
REMARK   10  A    between atoms: C14_19  and  C17_23
REMARK   11  A    between atoms: C18_24  and  C19_25
REMARK   12  A    between atoms: C19_25  and  C20_26
REMARK   13  A    between atoms: C22_28  and  O5_34
REMARK                            x       y       z     vdW  Elec       q    Type
REMARK                         _______ _______ _______ _____ _____    ______ ____
ROOT
ATOM      1  C7  <0> A   1     -27.806  -2.588  51.240  0.00  0.00    +0.177 C 
ATOM      2  C8  <0> A   1     -28.159  -1.099  51.273  0.00  0.00    +0.007 C 
ATOM      3  C9  <0> A   1     -27.310  -0.352  50.242  0.00  0.00    -0.016 C 
ATOM      4  C10 <0> A   1     -25.828  -0.533  50.574  0.00  0.00    +0.019 C 
ATOM      5  C11 <0> A   1     -25.475  -2.021  50.540  0.00  0.00    -0.005 C 
ATOM      6  C12 <0> A   1     -26.324  -2.769  51.572  0.00  0.00    +0.013 C 
ATOM      7  C13 <0> A   1     -25.971  -4.257  51.539  0.00  0.00    +0.001 C 
ATOM      8  C14 <0> A   1     -24.488  -4.438  51.872  0.00  0.00    -0.013 C 
ATOM      9  C15 <0> A   1     -23.640  -3.690  50.840  0.00  0.00    +0.011 C 
ATOM     10  C16 <0> A   1     -23.993  -2.201  50.873  0.00  0.00    +0.016 C 
ATOM     11  C17 <0> A   1     -24.136  -5.926  51.838  0.00  0.00    +0.019 C 
ATOM     12  C25 <0> A   1     -27.663   1.136  50.274  0.00  0.00    +0.021 C 
ENDROOT
BRANCH   1  13
ATOM     13  O2  <0> A   1     -28.599  -3.286  52.203  0.00  0.00    -0.339 OA
BRANCH  13  14
ATOM     14  C6  <0> A   1     -29.678  -3.939  51.746  0.00  0.00    +0.468 C 
ATOM     15  O1  <0> A   1     -30.096  -3.711  50.635  0.00  0.00    -0.503 OA
BRANCH  14  16
ATOM     16  C3  <0> A   1     -30.372  -4.953  52.618  0.00  0.00    -0.052 C 
ATOM     17  C4  <0> A   1     -30.550  -6.259  51.841  0.00  0.00    +0.060 C 
ATOM     18  C5  <0> A   1     -31.744  -4.415  53.032  0.00  0.00    +0.061 C 
BRANCH  16  20
ATOM     19  C1  <0> A   1     -28.608  -6.409  53.623  0.00  0.00    +0.024 C 
ATOM     20  C2  <0> A   1     -29.529  -5.213  53.869  0.00  0.00    +0.036 C 
ENDBRANCH  16  20
ENDBRANCH  14  16
ENDBRANCH  13  14
ENDBRANCH   1  13
BRANCH   7  21
ATOM     21  C18 <0> A   1     -26.253  -4.817  50.145  0.00  0.00    +0.018 C 
BRANCH  21  22
ATOM     22  C19 <0> A   1     -27.233  -5.988  50.253  0.00  0.00    +0.046 C 
BRANCH  22  23
ATOM     23  C20 <0> A   1     -26.618  -7.229  49.603  0.00  0.00    +0.191 C 
ATOM     24  C21 <0> A   1     -26.623  -8.387  50.605  0.00  0.00    +0.039 C 
ATOM     25  C22 <0> A   1     -25.970  -9.616  49.965  0.00  0.00    +0.183 C 
ATOM     26  C23 <0> A   1     -24.531  -9.263  49.567  0.00  0.00    +0.020 C 
ATOM     27  C24 <0> A   1     -24.565  -7.996  48.740  0.00  0.00    +0.495 C 
ATOM     28  O3  <0> A   1     -23.975  -7.926  47.688  0.00  0.00    -0.454 OA
ATOM     29  O4  <0> A   1     -25.270  -6.948  49.213  0.00  0.00    -0.366 OA
BRANCH  25  30
ATOM     30  O5  <0> A   1     -26.710 -10.001  48.804  0.00  0.00    -0.563 OA
ATOM     31  H39 <0> A   1     -27.338  -9.333  48.498  0.00  0.00    +0.386 HD
ENDBRANCH  25  30
ENDBRANCH  22  23
ENDBRANCH  21  22
ENDBRANCH   7  21
TORSDOF 8
ENDMDL
MODEL 8
REMARK VINA RESULT:      -7.0     22.453     25.661
REMARK  Name = CHEMBL85673
REMARK  13 active torsions:
REMARK  status: ('A' for Active; 'I' for Inactive)
REMARK    1  A    between atoms: C1_1  and  C2_2
REMARK    2  A    between atoms: C2_2  and  C3_3
REMARK    3  A    between atoms: C3_3  and  C4_4
REMARK    4  A    between atoms: C3_3  and  C5_5
REMARK    5  A    between atoms: C3_3  and  C6_6
REMARK    6  A    between atoms: C6_6  and  O2_8
REMARK    7  A    between atoms: O2_8  and  C7_9
REMARK    8  A    between atoms: C9_12  and  C25_35
REMARK    9  A    between atoms: C13_17  and  C18_24
REMARK   10  A    between atoms: C14_19  and  C17_23
REMARK   11  A    between atoms: C18_24  and  C19_25
REMARK   12  A    between atoms: C19_25  and  C20_26
REMARK   13  A    between atoms: C22_28  and  O5_34
REMARK                            x       y       z     vdW  Elec       q    Type
REMARK                         _______ _______ _______ _____ _____    ______ ____
ROOT
ATOM      1  C7  <0> A   1      -3.625   8.121  52.362  0.00  0.00    +0.177 C 
ATOM      2  C8  <0> A   1      -4.622   9.052  53.056  0.00  0.00    +0.007 C 
ATOM      3  C9  <0> A   1      -4.463  10.471  52.506  0.00  0.00    -0.016 C 
ATOM      4  C10 <0> A   1      -3.038  10.963  52.768  0.00  0.00    +0.019 C 
ATOM      5  C11 <0> A   1      -2.041  10.032  52.074  0.00  0.00    -0.005 C 
ATOM      6  C12 <0> A   1      -2.200   8.613  52.625  0.00  0.00    +0.013 C 
ATOM      7  C13 <0> A   1      -1.203   7.683  51.932  0.00  0.00    +0.001 C 
ATOM      8  C14 <0> A   1       0.222   8.175  52.195  0.00  0.00    -0.013 C 
ATOM      9  C15 <0> A   1       0.381   9.594  51.645  0.00  0.00    +0.011 C 
ATOM     10  C16 <0> A   1      -0.617  10.525  52.338  0.00  0.00    +0.016 C 
ATOM     11  C17 <0> A   1       1.219   7.245  51.501  0.00  0.00    +0.019 C 
ATOM     12  C25 <0> A   1      -5.460  11.401  53.198  0.00  0.00    +0.021 C 
ENDROOT
BRANCH   1  13
ATOM     13  O2  <0> A   1      -3.773   6.796  52.876  0.00  0.00    -0.339 OA
BRANCH  13  14
ATOM     14  C6  <0> A   1      -4.429   5.914  52.107  0.00  0.00    +0.468 C 
ATOM     15  O1  <0> A   1      -5.120   6.304  51.195  0.00  0.00    -0.503 OA
BRANCH  14  16
ATOM     16  C3  <0> A   1      -4.306   4.437  52.380  0.00  0.00    -0.052 C 
ATOM     17  C4  <0> A   1      -5.195   4.061  53.567  0.00  0.00    +0.060 C 
ATOM     18  C5  <0> A   1      -2.849   4.099  52.708  0.00  0.00    +0.061 C 
BRANCH  16  20
ATOM     19  C1  <0> A   1      -5.154   2.235  51.558  0.00  0.00    +0.024 C 
ATOM     20  C2  <0> A   1      -4.745   3.650  51.144  0.00  0.00    +0.036 C 
ENDBRANCH  16  20
ENDBRANCH  14  16
ENDBRANCH  13  14
ENDBRANCH   1  13
BRANCH   7  21
ATOM     21  C18 <0> A   1      -1.471   7.679  50.426  0.00  0.00    +0.018 C 
BRANCH  21  22
ATOM     22  C19 <0> A   1      -1.632   6.237  49.940  0.00  0.00    +0.046 C 
BRANCH  22  23
ATOM     23  C20 <0> A   1      -2.292   6.234  48.560  0.00  0.00    +0.191 C 
ATOM     24  C21 <0> A   1      -3.328   7.358  48.486  0.00  0.00    +0.039 C 
ATOM     25  C22 <0> A   1      -4.015   7.326  47.118  0.00  0.00    +0.183 C 
ATOM     26  C23 <0> A   1      -4.696   5.963  46.935  0.00  0.00    +0.020 C 
ATOM     27  C24 <0> A   1      -3.674   4.882  47.214  0.00  0.00    +0.495 C 
ATOM     28  O3  <0> A   1      -3.521   3.960  46.449  0.00  0.00    -0.454 OA
ATOM     29  O4  <0> A   1      -2.942   4.976  48.343  0.00  0.00    -0.366 OA
BRANCH  25  30
ATOM     30  O5  <0> A   1      -3.042   7.519  46.088  0.00  0.00    -0.563 OA
ATOM     31  H39 <0> A   1      -3.411   7.527  45.195  0.00  0.00    +0.386 HD
ENDBRANCH  25  30
ENDBRANCH  22  23
ENDBRANCH  21  22
ENDBRANCH   7  21
TORSDOF 8
ENDMDL
MODEL 9
REMARK VINA RESULT:      -7.0     20.794     24.294
REMARK  Name = CHEMBL85673
REMARK  13 active torsions:
REMARK  status: ('A' for Active; 'I' for Inactive)
REMARK    1  A    between atoms: C1_1  and  C2_2
REMARK    2  A    between atoms: C2_2  and  C3_3
REMARK    3  A    between atoms: C3_3  and  C4_4
REMARK    4  A    between atoms: C3_3  and  C5_5
REMARK    5  A    between atoms: C3_3  and  C6_6
REMARK    6  A    between atoms: C6_6  and  O2_8
REMARK    7  A    between atoms: O2_8  and  C7_9
REMARK    8  A    between atoms: C9_12  and  C25_35
REMARK    9  A    between atoms: C13_17  and  C18_24
REMARK   10  A    between atoms: C14_19  and  C17_23
REMARK   11  A    between atoms: C18_24  and  C19_25
REMARK   12  A    between atoms: C19_25  and  C20_26
REMARK   13  A    between atoms: C22_28  and  O5_34
REMARK                            x       y       z     vdW  Elec       q    Type
REMARK                         _______ _______ _______ _____ _____    ______ ____
ROOT
ATOM      1  C7  <0> A   1      -4.870   4.498  49.527  0.00  0.00    +0.177 C 
ATOM      2  C8  <0> A   1      -5.090   3.975  50.948  0.00  0.00    +0.007 C 
ATOM      3  C9  <0> A   1      -5.566   2.522  50.888  0.00  0.00    -0.016 C 
ATOM      4  C10 <0> A   1      -6.880   2.448  50.108  0.00  0.00    +0.019 C 
ATOM      5  C11 <0> A   1      -6.661   2.971  48.687  0.00  0.00    -0.005 C 
ATOM      6  C12 <0> A   1      -6.184   4.424  48.747  0.00  0.00    +0.013 C 
ATOM      7  C13 <0> A   1      -5.966   4.947  47.327  0.00  0.00    +0.001 C 
ATOM      8  C14 <0> A   1      -7.280   4.873  46.547  0.00  0.00    -0.013 C 
ATOM      9  C15 <0> A   1      -7.756   3.420  46.487  0.00  0.00    +0.011 C 
ATOM     10  C16 <0> A   1      -7.975   2.897  47.908  0.00  0.00    +0.016 C 
ATOM     11  C17 <0> A   1      -7.061   5.396  45.126  0.00  0.00    +0.019 C 
ATOM     12  C25 <0> A   1      -5.784   1.999  52.308  0.00  0.00    +0.021 C 
ENDROOT
BRANCH   1  13
ATOM     13  O2  <0> A   1      -4.425   5.855  49.582  0.00  0.00    -0.339 OA
BRANCH  13  14
ATOM     14  C6  <0> A   1      -3.127   6.061  49.852  0.00  0.00    +0.468 C 
ATOM     15  O1  <0> A   1      -2.278   5.582  49.137  0.00  0.00    -0.503 OA
BRANCH  14  16
ATOM     16  C3  <0> A   1      -2.727   6.886  51.048  0.00  0.00    -0.052 C 
ATOM     17  C4  <0> A   1      -2.054   5.987  52.087  0.00  0.00    +0.060 C 
ATOM     18  C5  <0> A   1      -3.972   7.531  51.662  0.00  0.00    +0.061 C 
BRANCH  16  20
ATOM     19  C1  <0> A   1      -2.489   9.009  49.752  0.00  0.00    +0.024 C 
ATOM     20  C2  <0> A   1      -1.751   7.980  50.610  0.00  0.00    +0.036 C 
ENDBRANCH  16  20
ENDBRANCH  14  16
ENDBRANCH  13  14
ENDBRANCH   1  13
BRANCH   7  21
ATOM     21  C18 <0> A   1      -4.908   4.093  46.626  0.00  0.00    +0.018 C 
BRANCH  21  22
ATOM     22  C19 <0> A   1      -3.729   4.977  46.213  0.00  0.00    +0.046 C 
BRANCH  22  23
ATOM     23  C20 <0> A   1      -2.906   4.262  45.140  0.00  0.00    +0.191 C 
ATOM     24  C21 <0> A   1      -3.638   2.994  44.695  0.00  0.00    +0.039 C 
ATOM     25  C22 <0> A   1      -2.792   2.259  43.650  0.00  0.00    +0.183 C 
ATOM     26  C23 <0> A   1      -1.436   1.900  44.272  0.00  0.00    +0.020 C 
ATOM     27  C24 <0> A   1      -0.844   3.156  44.874  0.00  0.00    +0.495 C 
ATOM     28  O3  <0> A   1       0.299   3.475  44.645  0.00  0.00    -0.454 OA
ATOM     29  O4  <0> A   1      -1.626   3.907  45.676  0.00  0.00    -0.366 OA
BRANCH  25  30
ATOM     30  O5  <0> A   1      -2.592   3.105  42.515  0.00  0.00    -0.563 OA
ATOM     31  H39 <0> A   1      -2.349   2.631  41.709  0.00  0.00    +0.386 HD
ENDBRANCH  25  30
ENDBRANCH  22  23
ENDBRANCH  21  22
ENDBRANCH   7  21
TORSDOF 8
ENDMDL
MODEL 10
REMARK VINA RESULT:      -6.9      4.578      8.393
REMARK  Name = CHEMBL85673
REMARK  13 active torsions:
REMARK  status: ('A' for Active; 'I' for Inactive)
REMARK    1  A    between atoms: C1_1  and  C2_2
REMARK    2  A    between atoms: C2_2  and  C3_3
REMARK    3  A    between atoms: C3_3  and  C4_4
REMARK    4  A    between atoms: C3_3  and  C5_5
REMARK    5  A    between atoms: C3_3  and  C6_6
REMARK    6  A    between atoms: C6_6  and  O2_8
REMARK    7  A    between atoms: O2_8  and  C7_9
REMARK    8  A    between atoms: C9_12  and  C25_35
REMARK    9  A    between atoms: C13_17  and  C18_24
REMARK   10  A    between atoms: C14_19  and  C17_23
REMARK   11  A    between atoms: C18_24  and  C19_25
REMARK   12  A    between atoms: C19_25  and  C20_26
REMARK   13  A    between atoms: C22_28  and  O5_34
REMARK                            x       y       z     vdW  Elec       q    Type
REMARK                         _______ _______ _______ _____ _____    ______ ____
ROOT
ATOM      1  C7  <0> A   1     -24.534  -0.766  51.671  0.00  0.00    +0.177 C 
ATOM      2  C8  <0> A   1     -25.527  -1.815  51.164  0.00  0.00    +0.007 C 
ATOM      3  C9  <0> A   1     -26.373  -1.214  50.039  0.00  0.00    -0.016 C 
ATOM      4  C10 <0> A   1     -27.139  -0.001  50.569  0.00  0.00    +0.019 C 
ATOM      5  C11 <0> A   1     -26.147   1.048  51.076  0.00  0.00    -0.005 C 
ATOM      6  C12 <0> A   1     -25.301   0.447  52.201  0.00  0.00    +0.013 C 
ATOM      7  C13 <0> A   1     -24.310   1.496  52.708  0.00  0.00    +0.001 C 
ATOM      8  C14 <0> A   1     -25.076   2.709  53.239  0.00  0.00    -0.013 C 
ATOM      9  C15 <0> A   1     -25.922   3.310  52.113  0.00  0.00    +0.011 C 
ATOM     10  C16 <0> A   1     -26.914   2.260  51.606  0.00  0.00    +0.016 C 
ATOM     11  C17 <0> A   1     -24.084   3.758  53.745  0.00  0.00    +0.019 C 
ATOM     12  C25 <0> A   1     -27.364  -2.263  49.532  0.00  0.00    +0.021 C 
ENDROOT
BRANCH   1  13
ATOM     13  O2  <0> A   1     -23.744  -1.326  52.722  0.00  0.00    -0.339 OA
BRANCH  13  14
ATOM     14  C6  <0> A   1     -22.488  -1.684  52.415  0.00  0.00    +0.468 C 
ATOM     15  O1  <0> A   1     -22.141  -1.741  51.259  0.00  0.00    -0.503 OA
BRANCH  14  16
ATOM     16  C3  <0> A   1     -21.509  -2.016  53.512  0.00  0.00    -0.052 C 
ATOM     17  C4  <0> A   1     -21.111  -3.490  53.412  0.00  0.00    +0.060 C 
ATOM     18  C5  <0> A   1     -22.162  -1.756  54.873  0.00  0.00    +0.061 C 
BRANCH  16  20
ATOM     19  C1  <0> A   1     -19.012  -2.013  53.460  0.00  0.00    +0.024 C 
ATOM     20  C2  <0> A   1     -20.264  -1.139  53.369  0.00  0.00    +0.036 C 
ENDBRANCH  16  20
ENDBRANCH  14  16
ENDBRANCH  13  14
ENDBRANCH   1  13
BRANCH   7  21
ATOM     21  C18 <0> A   1     -23.397   1.931  51.561  0.00  0.00    +0.018 C 
BRANCH  21  22
ATOM     22  C19 <0> A   1     -21.934   1.778  51.985  0.00  0.00    +0.046 C 
BRANCH  22  23
ATOM     23  C20 <0> A   1     -21.033   2.495  50.979  0.00  0.00    +0.191 C 
ATOM     24  C21 <0> A   1     -19.746   2.944  51.675  0.00  0.00    +0.039 C 
ATOM     25  C22 <0> A   1     -18.863   3.698  50.674  0.00  0.00    +0.183 C 
ATOM     26  C23 <0> A   1     -19.636   4.915  50.148  0.00  0.00    +0.020 C 
ATOM     27  C24 <0> A   1     -20.985   4.441  49.652  0.00  0.00    +0.495 C 
ATOM     28  O3  <0> A   1     -21.397   4.771  48.565  0.00  0.00    -0.454 OA
ATOM     29  O4  <0> A   1     -21.714   3.642  50.458  0.00  0.00    -0.366 OA
BRANCH  25  30
ATOM     30  O5  <0> A   1     -18.528   2.834  49.586  0.00  0.00    -0.563 OA
ATOM     31  H39 <0> A   1     -18.526   3.270  48.724  0.00  0.00    +0.386 HD
ENDBRANCH  25  30
ENDBRANCH  22  23
ENDBRANCH  21  22
ENDBRANCH   7  21
TORSDOF 8
ENDMDL
