MODEL 1
REMARK VINA RESULT:      -7.5      0.000      0.000
REMARK  Name = CHEMBL101774
REMARK  17 active torsions:
REMARK  status: ('A' for Active; 'I' for Inactive)
REMARK    1  A    between atoms: C1_1  and  C2_2
REMARK    2  A    between atoms: C4_4  and  C25_32
REMARK    3  A    between atoms: C5_5  and  O1_20
REMARK    4  A    between atoms: C6_6  and  C8_8
REMARK    5  A    between atoms: C8_8  and  C9_9
REMARK    6  A    between atoms: C8_8  and  C13_13
REMARK    7  A    between atoms: C9_9  and  C10_10
REMARK    8  A    between atoms: C10_10  and  C11_11
REMARK    9  A    between atoms: C10_10  and  C12_12
REMARK   10  A    between atoms: O1_20  and  C19_21
REMARK   11  A    between atoms: C19_21  and  C20_22
REMARK   12  A    between atoms: C20_22  and  C21_23
REMARK   13  A    between atoms: C20_22  and  O5_31
REMARK   14  A    between atoms: C21_23  and  C22_24
REMARK   15  A    between atoms: C22_24  and  C23_26
REMARK   16  A    between atoms: C22_24  and  O4_30
REMARK   17  A    between atoms: C23_26  and  C24_27
REMARK                            x       y       z     vdW  Elec       q    Type
REMARK                         _______ _______ _______ _____ _____    ______ ____
ROOT
ATOM      1  C1  <0> A   1     -17.387   7.799  47.968  0.00  0.00    +0.087 C 
ATOM      2  C2  <0> A   1     -16.388   7.394  46.915  0.00  0.00    -0.087 A 
ATOM      3  C3  <0> A   1     -16.717   6.422  45.988  0.00  0.00    +0.008 A 
ATOM      4  C4  <0> A   1     -15.804   6.048  45.023  0.00  0.00    -0.094 A 
ATOM      5  C5  <0> A   1     -14.554   6.651  44.982  0.00  0.00    +0.096 A 
ATOM      6  C6  <0> A   1     -14.226   7.627  45.912  0.00  0.00    -0.076 A 
ATOM      7  C7  <0> A   1     -15.146   7.999  46.874  0.00  0.00    +0.012 A 
ATOM      8  C25 <0> A   1     -16.163   4.988  44.013  0.00  0.00    +0.096 C 
ENDROOT
BRANCH   6   9
ATOM      9  C8  <0> A   1     -12.870   8.282  45.871  0.00  0.00    +0.088 C 
BRANCH   9  10
ATOM     10  C13 <0> A   1     -13.014   9.705  45.394  0.00  0.00    -0.080 A 
ATOM     11  C14 <0> A   1     -12.432  10.735  46.109  0.00  0.00    +0.044 A 
ATOM     12  C15 <0> A   1     -12.563  12.040  45.674  0.00  0.00    -0.018 A 
ATOM     13  C16 <0> A   1     -13.277  12.315  44.519  0.00  0.00    +0.093 A 
ATOM     14  C17 <0> A   1     -13.860  11.282  43.804  0.00  0.00    -0.009 A 
ATOM     15  C18 <0> A   1     -13.723   9.978  44.239  0.00  0.00    +0.046 A 
ATOM     16  F1  <0> A   1     -13.406  13.590  44.091  0.00  0.00    -0.141 F 
ENDBRANCH   9  10
BRANCH   9  17
ATOM     17  C9  <0> A   1     -12.257   8.273  47.273  0.00  0.00    +0.032 C 
BRANCH  17  18
ATOM     18  C10 <0> A   1     -11.054   7.329  47.297  0.00  0.00    -0.023 C 
ATOM     19  C11 <0> A   1     -11.534   5.897  47.544  0.00  0.00    +0.018 C 
ATOM     20  C12 <0> A   1     -10.325   7.397  45.954  0.00  0.00    +0.011 C 
ENDBRANCH  17  18
ENDBRANCH   9  17
ENDBRANCH   6   9
BRANCH   5  21
ATOM     21  O1  <0> A   1     -13.652   6.285  44.033  0.00  0.00    -0.317 OA
BRANCH  21  22
ATOM     22  C19 <0> A   1     -13.836   6.823  42.722  0.00  0.00    +0.144 C 
BRANCH  22  23
ATOM     23  C20 <0> A   1     -12.486   7.273  42.161  0.00  0.00    +0.224 C 
BRANCH  23  24
ATOM     24  O5  <0> A   1     -11.574   6.173  42.176  0.00  0.00    -0.531 OA
ATOM     25  H29 <0> A   1     -11.651   5.610  42.959  0.00  0.00    +0.363 HD
ENDBRANCH  23  24
BRANCH  23  26
ATOM     26  C21 <0> A   1     -12.669   7.764  40.723  0.00  0.00    -0.044 C 
BRANCH  26  27
ATOM     27  C22 <0> A   1     -12.867   9.281  40.724  0.00  0.00    +0.235 C 
BRANCH  27  28
ATOM     28  O4  <0> A   1     -11.799   9.900  41.445  0.00  0.00    -0.527 OA
ATOM     29  H28 <0> A   1     -11.995  10.798  41.746  0.00  0.00    +0.350 HD
ENDBRANCH  27  28
BRANCH  27  30
ATOM     30  C23 <0> A   1     -12.874   9.795  39.284  0.00  0.00    -0.101 C 
BRANCH  30  31
ATOM     31  C24 <0> A   1     -13.051  11.292  39.285  0.00  0.00    +0.491 C 
ATOM     32  O2  <0> A   1     -13.943  11.800  39.943  0.00  0.00    -0.680 OA
ATOM     33  O3  <0> A   1     -12.302  11.995  38.628  0.00  0.00    -0.713 OA
ENDBRANCH  30  31
ENDBRANCH  27  30
ENDBRANCH  26  27
ENDBRANCH  23  26
ENDBRANCH  22  23
ENDBRANCH  21  22
ENDBRANCH   5  21
TORSDOF 13
ENDMDL
MODEL 2
REMARK VINA RESULT:      -7.4      2.313      4.452
REMARK  Name = CHEMBL101774
REMARK  17 active torsions:
REMARK  status: ('A' for Active; 'I' for Inactive)
REMARK    1  A    between atoms: C1_1  and  C2_2
REMARK    2  A    between atoms: C4_4  and  C25_32
REMARK    3  A    between atoms: C5_5  and  O1_20
REMARK    4  A    between atoms: C6_6  and  C8_8
REMARK    5  A    between atoms: C8_8  and  C9_9
REMARK    6  A    between atoms: C8_8  and  C13_13
REMARK    7  A    between atoms: C9_9  and  C10_10
REMARK    8  A    between atoms: C10_10  and  C11_11
REMARK    9  A    between atoms: C10_10  and  C12_12
REMARK   10  A    between atoms: O1_20  and  C19_21
REMARK   11  A    between atoms: C19_21  and  C20_22
REMARK   12  A    between atoms: C20_22  and  C21_23
REMARK   13  A    between atoms: C20_22  and  O5_31
REMARK   14  A    between atoms: C21_23  and  C22_24
REMARK   15  A    between atoms: C22_24  and  C23_26
REMARK   16  A    between atoms: C22_24  and  O4_30
REMARK   17  A    between atoms: C23_26  and  C24_27
REMARK                            x       y       z     vdW  Elec       q    Type
REMARK                         _______ _______ _______ _____ _____    ______ ____
ROOT
ATOM      1  C1  <0> A   1     -14.757  11.745  47.752  0.00  0.00    +0.087 C 
ATOM      2  C2  <0> A   1     -14.365  10.936  46.542  0.00  0.00    -0.087 A 
ATOM      3  C3  <0> A   1     -14.005  11.575  45.370  0.00  0.00    +0.008 A 
ATOM      4  C4  <0> A   1     -13.647  10.837  44.260  0.00  0.00    -0.094 A 
ATOM      5  C5  <0> A   1     -13.648   9.450  44.321  0.00  0.00    +0.096 A 
ATOM      6  C6  <0> A   1     -14.008   8.811  45.499  0.00  0.00    -0.076 A 
ATOM      7  C7  <0> A   1     -14.362   9.555  46.608  0.00  0.00    +0.012 A 
ATOM      8  C25 <0> A   1     -13.255  11.535  42.983  0.00  0.00    +0.096 C 
ENDROOT
BRANCH   6   9
ATOM      9  C8  <0> A   1     -14.011   7.305  45.568  0.00  0.00    +0.088 C 
BRANCH   9  10
ATOM     10  C13 <0> A   1     -13.053   6.851  46.640  0.00  0.00    -0.080 A 
ATOM     11  C14 <0> A   1     -13.535   6.244  47.785  0.00  0.00    +0.044 A 
ATOM     12  C15 <0> A   1     -12.659   5.827  48.768  0.00  0.00    -0.018 A 
ATOM     13  C16 <0> A   1     -11.296   6.016  48.606  0.00  0.00    +0.093 A 
ATOM     14  C17 <0> A   1     -10.814   6.624  47.459  0.00  0.00    -0.009 A 
ATOM     15  C18 <0> A   1     -11.693   7.035  46.475  0.00  0.00    +0.046 A 
ATOM     16  F1  <0> A   1     -10.438   5.609  49.567  0.00  0.00    -0.141 F 
ENDBRANCH   9  10
BRANCH   9  17
ATOM     17  C9  <0> A   1     -15.420   6.813  45.901  0.00  0.00    +0.032 C 
BRANCH  17  18
ATOM     18  C10 <0> A   1     -15.851   5.767  44.871  0.00  0.00    -0.023 C 
ATOM     19  C11 <0> A   1     -15.036   5.949  43.589  0.00  0.00    +0.018 C 
ATOM     20  C12 <0> A   1     -15.610   4.366  45.435  0.00  0.00    +0.011 C 
ENDBRANCH  17  18
ENDBRANCH   9  17
ENDBRANCH   6   9
BRANCH   5  21
ATOM     21  O1  <0> A   1     -13.296   8.720  43.231  0.00  0.00    -0.317 OA
BRANCH  21  22
ATOM     22  C19 <0> A   1     -11.908   8.420  43.071  0.00  0.00    +0.144 C 
BRANCH  22  23
ATOM     23  C20 <0> A   1     -11.711   7.567  41.817  0.00  0.00    +0.224 C 
BRANCH  23  24
ATOM     24  O5  <0> A   1     -11.627   6.189  42.186  0.00  0.00    -0.531 OA
ATOM     25  H29 <0> A   1     -11.236   5.623  41.506  0.00  0.00    +0.363 HD
ENDBRANCH  23  24
BRANCH  23  26
ATOM     26  C21 <0> A   1     -12.894   7.771  40.869  0.00  0.00    -0.044 C 
BRANCH  26  27
ATOM     27  C22 <0> A   1     -12.638   8.995  39.989  0.00  0.00    +0.235 C 
BRANCH  27  28
ATOM     28  O4  <0> A   1     -12.126   8.573  38.723  0.00  0.00    -0.527 OA
ATOM     29  H28 <0> A   1     -11.235   8.199  38.764  0.00  0.00    +0.350 HD
ENDBRANCH  27  28
BRANCH  27  30
ATOM     30  C23 <0> A   1     -13.948   9.757  39.780  0.00  0.00    -0.101 C 
BRANCH  30  31
ATOM     31  C24 <0> A   1     -13.648  11.205  39.489  0.00  0.00    +0.491 C 
ATOM     32  O2  <0> A   1     -14.396  12.076  39.898  0.00  0.00    -0.680 OA
ATOM     33  O3  <0> A   1     -12.656  11.505  38.847  0.00  0.00    -0.713 OA
ENDBRANCH  30  31
ENDBRANCH  27  30
ENDBRANCH  26  27
ENDBRANCH  23  26
ENDBRANCH  22  23
ENDBRANCH  21  22
ENDBRANCH   5  21
TORSDOF 13
ENDMDL
MODEL 3
REMARK VINA RESULT:      -7.1      1.790      2.163
REMARK  Name = CHEMBL101774
REMARK  17 active torsions:
REMARK  status: ('A' for Active; 'I' for Inactive)
REMARK    1  A    between atoms: C1_1  and  C2_2
REMARK    2  A    between atoms: C4_4  and  C25_32
REMARK    3  A    between atoms: C5_5  and  O1_20
REMARK    4  A    between atoms: C6_6  and  C8_8
REMARK    5  A    between atoms: C8_8  and  C9_9
REMARK    6  A    between atoms: C8_8  and  C13_13
REMARK    7  A    between atoms: C9_9  and  C10_10
REMARK    8  A    between atoms: C10_10  and  C11_11
REMARK    9  A    between atoms: C10_10  and  C12_12
REMARK   10  A    between atoms: O1_20  and  C19_21
REMARK   11  A    between atoms: C19_21  and  C20_22
REMARK   12  A    between atoms: C20_22  and  C21_23
REMARK   13  A    between atoms: C20_22  and  O5_31
REMARK   14  A    between atoms: C21_23  and  C22_24
REMARK   15  A    between atoms: C22_24  and  C23_26
REMARK   16  A    between atoms: C22_24  and  O4_30
REMARK   17  A    between atoms: C23_26  and  C24_27
REMARK                            x       y       z     vdW  Elec       q    Type
REMARK                         _______ _______ _______ _____ _____    ______ ____
ROOT
ATOM      1  C1  <0> A   1     -16.501   6.352  49.143  0.00  0.00    +0.087 C 
ATOM      2  C2  <0> A   1     -15.928   6.579  47.767  0.00  0.00    -0.087 A 
ATOM      3  C3  <0> A   1     -16.222   5.698  46.743  0.00  0.00    +0.008 A 
ATOM      4  C4  <0> A   1     -15.697   5.903  45.482  0.00  0.00    -0.094 A 
ATOM      5  C5  <0> A   1     -14.875   6.996  45.244  0.00  0.00    +0.096 A 
ATOM      6  C6  <0> A   1     -14.583   7.879  46.273  0.00  0.00    -0.076 A 
ATOM      7  C7  <0> A   1     -15.114   7.671  47.531  0.00  0.00    +0.012 A 
ATOM      8  C25 <0> A   1     -16.017   4.942  44.366  0.00  0.00    +0.096 C 
ENDROOT
BRANCH   6   9
ATOM      9  C8  <0> A   1     -13.690   9.065  46.017  0.00  0.00    +0.088 C 
BRANCH   9  10
ATOM     10  C13 <0> A   1     -14.314  10.300  46.616  0.00  0.00    -0.080 A 
ATOM     11  C14 <0> A   1     -15.628  10.619  46.328  0.00  0.00    +0.044 A 
ATOM     12  C15 <0> A   1     -16.202  11.750  46.876  0.00  0.00    -0.018 A 
ATOM     13  C16 <0> A   1     -15.460  12.565  47.715  0.00  0.00    +0.093 A 
ATOM     14  C17 <0> A   1     -14.144  12.245  48.002  0.00  0.00    -0.009 A 
ATOM     15  C18 <0> A   1     -13.574  11.110  47.457  0.00  0.00    +0.046 A 
ATOM     16  F1  <0> A   1     -16.019  13.671  48.252  0.00  0.00    -0.141 F 
ENDBRANCH   9  10
BRANCH   9  17
ATOM     17  C9  <0> A   1     -12.323   8.822  46.658  0.00  0.00    +0.032 C 
BRANCH  17  18
ATOM     18  C10 <0> A   1     -11.225   9.034  45.615  0.00  0.00    -0.023 C 
ATOM     19  C11 <0> A   1     -10.420  10.287  45.968  0.00  0.00    +0.018 C 
ATOM     20  C12 <0> A   1     -10.296   7.819  45.597  0.00  0.00    +0.011 C 
ENDBRANCH  17  18
ENDBRANCH   9  17
ENDBRANCH   6   9
BRANCH   5  21
ATOM     21  O1  <0> A   1     -14.358   7.200  44.004  0.00  0.00    -0.317 OA
BRANCH  21  22
ATOM     22  C19 <0> A   1     -13.198   6.443  43.652  0.00  0.00    +0.144 C 
BRANCH  22  23
ATOM     23  C20 <0> A   1     -12.428   7.171  42.549  0.00  0.00    +0.224 C 
BRANCH  23  24
ATOM     24  O5  <0> A   1     -11.547   6.253  41.897  0.00  0.00    -0.531 OA
ATOM     25  H29 <0> A   1     -11.034   5.702  42.505  0.00  0.00    +0.363 HD
ENDBRANCH  23  24
BRANCH  23  26
ATOM     26  C21 <0> A   1     -13.415   7.743  41.529  0.00  0.00    -0.044 C 
BRANCH  26  27
ATOM     27  C22 <0> A   1     -13.130   9.233  41.325  0.00  0.00    +0.235 C 
BRANCH  27  28
ATOM     28  O4  <0> A   1     -11.740   9.486  41.538  0.00  0.00    -0.527 OA
ATOM     29  H28 <0> A   1     -11.524   9.763  42.439  0.00  0.00    +0.350 HD
ENDBRANCH  27  28
BRANCH  27  30
ATOM     30  C23 <0> A   1     -13.508   9.633  39.898  0.00  0.00    -0.101 C 
BRANCH  30  31
ATOM     31  C24 <0> A   1     -13.432  11.132  39.759  0.00  0.00    +0.491 C 
ATOM     32  O2  <0> A   1     -14.432  11.809  39.922  0.00  0.00    -0.680 OA
ATOM     33  O3  <0> A   1     -12.372  11.666  39.483  0.00  0.00    -0.713 OA
ENDBRANCH  30  31
ENDBRANCH  27  30
ENDBRANCH  26  27
ENDBRANCH  23  26
ENDBRANCH  22  23
ENDBRANCH  21  22
ENDBRANCH   5  21
TORSDOF 13
ENDMDL
MODEL 4
REMARK VINA RESULT:      -7.1     17.962     21.452
REMARK  Name = CHEMBL101774
REMARK  17 active torsions:
REMARK  status: ('A' for Active; 'I' for Inactive)
REMARK    1  A    between atoms: C1_1  and  C2_2
REMARK    2  A    between atoms: C4_4  and  C25_32
REMARK    3  A    between atoms: C5_5  and  O1_20
REMARK    4  A    between atoms: C6_6  and  C8_8
REMARK    5  A    between atoms: C8_8  and  C9_9
REMARK    6  A    between atoms: C8_8  and  C13_13
REMARK    7  A    between atoms: C9_9  and  C10_10
REMARK    8  A    between atoms: C10_10  and  C11_11
REMARK    9  A    between atoms: C10_10  and  C12_12
REMARK   10  A    between atoms: O1_20  and  C19_21
REMARK   11  A    between atoms: C19_21  and  C20_22
REMARK   12  A    between atoms: C20_22  and  C21_23
REMARK   13  A    between atoms: C20_22  and  O5_31
REMARK   14  A    between atoms: C21_23  and  C22_24
REMARK   15  A    between atoms: C22_24  and  C23_26
REMARK   16  A    between atoms: C22_24  and  O4_30
REMARK   17  A    between atoms: C23_26  and  C24_27
REMARK                            x       y       z     vdW  Elec       q    Type
REMARK                         _______ _______ _______ _____ _____    ______ ____
ROOT
ATOM      1  C1  <0> A   1     -25.972  -0.403  53.912  0.00  0.00    +0.087 C 
ATOM      2  C2  <0> A   1     -25.582  -1.603  53.088  0.00  0.00    -0.087 A 
ATOM      3  C3  <0> A   1     -24.248  -1.879  52.858  0.00  0.00    +0.008 A 
ATOM      4  C4  <0> A   1     -23.888  -2.977  52.102  0.00  0.00    -0.094 A 
ATOM      5  C5  <0> A   1     -24.868  -3.804  51.573  0.00  0.00    +0.096 A 
ATOM      6  C6  <0> A   1     -26.208  -3.526  51.806  0.00  0.00    -0.076 A 
ATOM      7  C7  <0> A   1     -26.561  -2.428  52.566  0.00  0.00    +0.012 A 
ATOM      8  C25 <0> A   1     -22.432  -3.278  51.851  0.00  0.00    +0.096 C 
ENDROOT
BRANCH   6   9
ATOM      9  C8  <0> A   1     -27.275  -4.422  51.232  0.00  0.00    +0.088 C 
BRANCH   9  10
ATOM     10  C13 <0> A   1     -28.195  -4.875  52.336  0.00  0.00    -0.080 A 
ATOM     11  C14 <0> A   1     -29.286  -4.102  52.687  0.00  0.00    +0.044 A 
ATOM     12  C15 <0> A   1     -30.132  -4.516  53.698  0.00  0.00    -0.018 A 
ATOM     13  C16 <0> A   1     -29.887  -5.708  54.360  0.00  0.00    +0.093 A 
ATOM     14  C17 <0> A   1     -28.794  -6.482  54.007  0.00  0.00    -0.009 A 
ATOM     15  C18 <0> A   1     -27.953  -6.068  52.992  0.00  0.00    +0.046 A 
ATOM     16  F1  <0> A   1     -30.712  -6.115  55.349  0.00  0.00    -0.141 F 
ENDBRANCH   9  10
BRANCH   9  17
ATOM     17  C9  <0> A   1     -28.078  -3.651  50.182  0.00  0.00    +0.032 C 
BRANCH  17  18
ATOM     18  C10 <0> A   1     -28.443  -4.588  49.030  0.00  0.00    -0.023 C 
ATOM     19  C11 <0> A   1     -27.637  -5.883  49.152  0.00  0.00    +0.018 C 
ATOM     20  C12 <0> A   1     -29.938  -4.910  49.089  0.00  0.00    +0.011 C 
ENDBRANCH  17  18
ENDBRANCH   9  17
ENDBRANCH   6   9
BRANCH   5  21
ATOM     21  O1  <0> A   1     -24.518  -4.886  50.828  0.00  0.00    -0.317 OA
BRANCH  21  22
ATOM     22  C19 <0> A   1     -24.286  -6.109  51.529  0.00  0.00    +0.144 C 
BRANCH  22  23
ATOM     23  C20 <0> A   1     -24.567  -7.292  50.601  0.00  0.00    +0.224 C 
BRANCH  23  24
ATOM     24  O5  <0> A   1     -24.154  -6.963  49.273  0.00  0.00    -0.531 OA
ATOM     25  H29 <0> A   1     -23.205  -6.795  49.186  0.00  0.00    +0.363 HD
ENDBRANCH  23  24
BRANCH  23  26
ATOM     26  C21 <0> A   1     -23.792  -8.518  51.087  0.00  0.00    -0.044 C 
BRANCH  26  27
ATOM     27  C22 <0> A   1     -24.544  -9.788  50.685  0.00  0.00    +0.235 C 
BRANCH  27  28
ATOM     28  O4  <0> A   1     -25.873  -9.448  50.283  0.00  0.00    -0.527 OA
ATOM     29  H28 <0> A   1     -26.446 -10.213  50.132  0.00  0.00    +0.350 HD
ENDBRANCH  27  28
BRANCH  27  30
ATOM     30  C23 <0> A   1     -23.817 -10.465  49.522  0.00  0.00    -0.101 C 
BRANCH  30  31
ATOM     31  C24 <0> A   1     -24.678 -10.403  48.286  0.00  0.00    +0.491 C 
ATOM     32  O2  <0> A   1     -25.412 -11.335  48.008  0.00  0.00    -0.680 OA
ATOM     33  O3  <0> A   1     -24.641  -9.420  47.566  0.00  0.00    -0.713 OA
ENDBRANCH  30  31
ENDBRANCH  27  30
ENDBRANCH  26  27
ENDBRANCH  23  26
ENDBRANCH  22  23
ENDBRANCH  21  22
ENDBRANCH   5  21
TORSDOF 13
ENDMDL
MODEL 5
REMARK VINA RESULT:      -7.1      2.478      4.808
REMARK  Name = CHEMBL101774
REMARK  17 active torsions:
REMARK  status: ('A' for Active; 'I' for Inactive)
REMARK    1  A    between atoms: C1_1  and  C2_2
REMARK    2  A    between atoms: C4_4  and  C25_32
REMARK    3  A    between atoms: C5_5  and  O1_20
REMARK    4  A    between atoms: C6_6  and  C8_8
REMARK    5  A    between atoms: C8_8  and  C9_9
REMARK    6  A    between atoms: C8_8  and  C13_13
REMARK    7  A    between atoms: C9_9  and  C10_10
REMARK    8  A    between atoms: C10_10  and  C11_11
REMARK    9  A    between atoms: C10_10  and  C12_12
REMARK   10  A    between atoms: O1_20  and  C19_21
REMARK   11  A    between atoms: C19_21  and  C20_22
REMARK   12  A    between atoms: C20_22  and  C21_23
REMARK   13  A    between atoms: C20_22  and  O5_31
REMARK   14  A    between atoms: C21_23  and  C22_24
REMARK   15  A    between atoms: C22_24  and  C23_26
REMARK   16  A    between atoms: C22_24  and  O4_30
REMARK   17  A    between atoms: C23_26  and  C24_27
REMARK                            x       y       z     vdW  Elec       q    Type
REMARK                         _______ _______ _______ _____ _____    ______ ____
ROOT
ATOM      1  C1  <0> A   1     -10.925   5.574  49.230  0.00  0.00    +0.087 C 
ATOM      2  C2  <0> A   1     -11.113   6.368  47.962  0.00  0.00    -0.087 A 
ATOM      3  C3  <0> A   1     -10.023   6.661  47.164  0.00  0.00    +0.008 A 
ATOM      4  C4  <0> A   1     -10.192   7.389  46.002  0.00  0.00    -0.094 A 
ATOM      5  C5  <0> A   1     -11.457   7.826  45.637  0.00  0.00    +0.096 A 
ATOM      6  C6  <0> A   1     -12.550   7.529  46.440  0.00  0.00    -0.076 A 
ATOM      7  C7  <0> A   1     -12.376   6.797  47.598  0.00  0.00    +0.012 A 
ATOM      8  C25 <0> A   1      -9.004   7.709  45.132  0.00  0.00    +0.096 C 
ENDROOT
BRANCH   6   9
ATOM      9  C8  <0> A   1     -13.925   8.003  46.046  0.00  0.00    +0.088 C 
BRANCH   9  10
ATOM     10  C13 <0> A   1     -14.723   6.839  45.516  0.00  0.00    -0.080 A 
ATOM     11  C14 <0> A   1     -14.741   6.574  44.159  0.00  0.00    +0.044 A 
ATOM     12  C15 <0> A   1     -15.472   5.507  43.672  0.00  0.00    -0.018 A 
ATOM     13  C16 <0> A   1     -16.186   4.702  44.544  0.00  0.00    +0.093 A 
ATOM     14  C17 <0> A   1     -16.167   4.968  45.903  0.00  0.00    -0.009 A 
ATOM     15  C18 <0> A   1     -15.431   6.032  46.388  0.00  0.00    +0.046 A 
ATOM     16  F1  <0> A   1     -16.901   3.659  44.069  0.00  0.00    -0.141 F 
ENDBRANCH   9  10
BRANCH   9  17
ATOM     17  C9  <0> A   1     -14.631   8.592  47.269  0.00  0.00    +0.032 C 
BRANCH  17  18
ATOM     18  C10 <0> A   1     -14.829  10.095  47.068  0.00  0.00    -0.023 C 
ATOM     19  C11 <0> A   1     -14.001  10.861  48.102  0.00  0.00    +0.018 C 
ATOM     20  C12 <0> A   1     -14.375  10.486  45.660  0.00  0.00    +0.011 C 
ENDBRANCH  17  18
ENDBRANCH   9  17
ENDBRANCH   6   9
BRANCH   5  21
ATOM     21  O1  <0> A   1     -11.627   8.543  44.495  0.00  0.00    -0.317 OA
BRANCH  21  22
ATOM     22  C19 <0> A   1     -11.673   7.809  43.269  0.00  0.00    +0.144 C 
BRANCH  22  23
ATOM     23  C20 <0> A   1     -12.024   8.756  42.120  0.00  0.00    +0.224 C 
BRANCH  23  24
ATOM     24  O5  <0> A   1     -11.931   8.054  40.879  0.00  0.00    -0.531 OA
ATOM     25  H29 <0> A   1     -11.469   8.544  40.184  0.00  0.00    +0.363 HD
ENDBRANCH  23  24
BRANCH  23  26
ATOM     26  C21 <0> A   1     -13.450   9.278  42.306  0.00  0.00    -0.044 C 
BRANCH  26  27
ATOM     27  C22 <0> A   1     -13.553  10.694  41.736  0.00  0.00    +0.235 C 
BRANCH  27  28
ATOM     28  O4  <0> A   1     -12.241  11.224  41.536  0.00  0.00    -0.527 OA
ATOM     29  H28 <0> A   1     -11.823  10.939  40.712  0.00  0.00    +0.350 HD
ENDBRANCH  27  28
BRANCH  27  30
ATOM     30  C23 <0> A   1     -14.295  10.652  40.398  0.00  0.00    -0.101 C 
BRANCH  30  31
ATOM     31  C24 <0> A   1     -13.335  10.972  39.281  0.00  0.00    +0.491 C 
ATOM     32  O2  <0> A   1     -12.610  10.101  38.833  0.00  0.00    -0.680 OA
ATOM     33  O3  <0> A   1     -13.285  12.102  38.826  0.00  0.00    -0.713 OA
ENDBRANCH  30  31
ENDBRANCH  27  30
ENDBRANCH  26  27
ENDBRANCH  23  26
ENDBRANCH  22  23
ENDBRANCH  21  22
ENDBRANCH   5  21
TORSDOF 13
ENDMDL
MODEL 6
REMARK VINA RESULT:      -7.1      1.595      1.970
REMARK  Name = CHEMBL101774
REMARK  17 active torsions:
REMARK  status: ('A' for Active; 'I' for Inactive)
REMARK    1  A    between atoms: C1_1  and  C2_2
REMARK    2  A    between atoms: C4_4  and  C25_32
REMARK    3  A    between atoms: C5_5  and  O1_20
REMARK    4  A    between atoms: C6_6  and  C8_8
REMARK    5  A    between atoms: C8_8  and  C9_9
REMARK    6  A    between atoms: C8_8  and  C13_13
REMARK    7  A    between atoms: C9_9  and  C10_10
REMARK    8  A    between atoms: C10_10  and  C11_11
REMARK    9  A    between atoms: C10_10  and  C12_12
REMARK   10  A    between atoms: O1_20  and  C19_21
REMARK   11  A    between atoms: C19_21  and  C20_22
REMARK   12  A    between atoms: C20_22  and  C21_23
REMARK   13  A    between atoms: C20_22  and  O5_31
REMARK   14  A    between atoms: C21_23  and  C22_24
REMARK   15  A    between atoms: C22_24  and  C23_26
REMARK   16  A    between atoms: C22_24  and  O4_30
REMARK   17  A    between atoms: C23_26  and  C24_27
REMARK                            x       y       z     vdW  Elec       q    Type
REMARK                         _______ _______ _______ _____ _____    ______ ____
ROOT
ATOM      1  C1  <0> A   1     -17.558   6.260  47.664  0.00  0.00    +0.087 C 
ATOM      2  C2  <0> A   1     -16.374   6.472  46.756  0.00  0.00    -0.087 A 
ATOM      3  C3  <0> A   1     -16.344   5.873  45.510  0.00  0.00    +0.008 A 
ATOM      4  C4  <0> A   1     -15.260   6.064  44.676  0.00  0.00    -0.094 A 
ATOM      5  C5  <0> A   1     -14.200   6.858  45.090  0.00  0.00    +0.096 A 
ATOM      6  C6  <0> A   1     -14.233   7.458  46.341  0.00  0.00    -0.076 A 
ATOM      7  C7  <0> A   1     -15.322   7.268  47.169  0.00  0.00    +0.012 A 
ATOM      8  C25 <0> A   1     -15.228   5.410  43.319  0.00  0.00    +0.096 C 
ENDROOT
BRANCH   6   9
ATOM      9  C8  <0> A   1     -13.083   8.321  46.793  0.00  0.00    +0.088 C 
BRANCH   9  10
ATOM     10  C13 <0> A   1     -13.584   9.713  47.084  0.00  0.00    -0.080 A 
ATOM     11  C14 <0> A   1     -14.195  10.449  46.086  0.00  0.00    +0.044 A 
ATOM     12  C15 <0> A   1     -14.656  11.725  46.351  0.00  0.00    -0.018 A 
ATOM     13  C16 <0> A   1     -14.506  12.265  47.617  0.00  0.00    +0.093 A 
ATOM     14  C17 <0> A   1     -13.894  11.526  48.616  0.00  0.00    -0.009 A 
ATOM     15  C18 <0> A   1     -13.440  10.249  48.350  0.00  0.00    +0.046 A 
ATOM     16  F1  <0> A   1     -14.956  13.512  47.879  0.00  0.00    -0.141 F 
ENDBRANCH   9  10
BRANCH   9  17
ATOM     17  C9  <0> A   1     -12.466   7.725  48.060  0.00  0.00    +0.032 C 
BRANCH  17  18
ATOM     18  C10 <0> A   1     -11.493   6.610  47.676  0.00  0.00    -0.023 C 
ATOM     19  C11 <0> A   1     -10.511   7.129  46.623  0.00  0.00    +0.018 C 
ATOM     20  C12 <0> A   1     -10.719   6.159  48.917  0.00  0.00    +0.011 C 
ENDBRANCH  17  18
ENDBRANCH   9  17
ENDBRANCH   6   9
BRANCH   5  21
ATOM     21  O1  <0> A   1     -13.132   7.048  44.272  0.00  0.00    -0.317 OA
BRANCH  21  22
ATOM     22  C19 <0> A   1     -13.271   8.024  43.238  0.00  0.00    +0.144 C 
BRANCH  22  23
ATOM     23  C20 <0> A   1     -12.318   7.692  42.089  0.00  0.00    +0.224 C 
BRANCH  23  24
ATOM     24  O5  <0> A   1     -11.905   6.327  42.192  0.00  0.00    -0.531 OA
ATOM     25  H29 <0> A   1     -10.947   6.201  42.137  0.00  0.00    +0.363 HD
ENDBRANCH  23  24
BRANCH  23  26
ATOM     26  C21 <0> A   1     -13.031   7.910  40.754  0.00  0.00    -0.044 C 
BRANCH  26  27
ATOM     27  C22 <0> A   1     -12.328   9.025  39.976  0.00  0.00    +0.235 C 
BRANCH  27  28
ATOM     28  O4  <0> A   1     -12.673   8.931  38.592  0.00  0.00    -0.527 OA
ATOM     29  H28 <0> A   1     -12.304   8.155  38.147  0.00  0.00    +0.350 HD
ENDBRANCH  27  28
BRANCH  27  30
ATOM     30  C23 <0> A   1     -12.770  10.384  40.521  0.00  0.00    -0.101 C 
BRANCH  30  31
ATOM     31  C24 <0> A   1     -13.196  11.269  39.378  0.00  0.00    +0.491 C 
ATOM     32  O2  <0> A   1     -14.376  11.363  39.087  0.00  0.00    -0.680 OA
ATOM     33  O3  <0> A   1     -12.361  11.891  38.745  0.00  0.00    -0.713 OA
ENDBRANCH  30  31
ENDBRANCH  27  30
ENDBRANCH  26  27
ENDBRANCH  23  26
ENDBRANCH  22  23
ENDBRANCH  21  22
ENDBRANCH   5  21
TORSDOF 13
ENDMDL
MODEL 7
REMARK VINA RESULT:      -7.0      2.762      4.946
REMARK  Name = CHEMBL101774
REMARK  17 active torsions:
REMARK  status: ('A' for Active; 'I' for Inactive)
REMARK    1  A    between atoms: C1_1  and  C2_2
REMARK    2  A    between atoms: C4_4  and  C25_32
REMARK    3  A    between atoms: C5_5  and  O1_20
REMARK    4  A    between atoms: C6_6  and  C8_8
REMARK    5  A    between atoms: C8_8  and  C9_9
REMARK    6  A    between atoms: C8_8  and  C13_13
REMARK    7  A    between atoms: C9_9  and  C10_10
REMARK    8  A    between atoms: C10_10  and  C11_11
REMARK    9  A    between atoms: C10_10  and  C12_12
REMARK   10  A    between atoms: O1_20  and  C19_21
REMARK   11  A    between atoms: C19_21  and  C20_22
REMARK   12  A    between atoms: C20_22  and  C21_23
REMARK   13  A    between atoms: C20_22  and  O5_31
REMARK   14  A    between atoms: C21_23  and  C22_24
REMARK   15  A    between atoms: C22_24  and  C23_26
REMARK   16  A    between atoms: C22_24  and  O4_30
REMARK   17  A    between atoms: C23_26  and  C24_27
REMARK                            x       y       z     vdW  Elec       q    Type
REMARK                         _______ _______ _______ _____ _____    ______ ____
ROOT
ATOM      1  C1  <0> A   1     -16.678  13.221  47.589  0.00  0.00    +0.087 C 
ATOM      2  C2  <0> A   1     -16.072  11.865  47.333  0.00  0.00    -0.087 A 
ATOM      3  C3  <0> A   1     -16.694  10.729  47.815  0.00  0.00    +0.008 A 
ATOM      4  C4  <0> A   1     -16.141   9.485  47.584  0.00  0.00    -0.094 A 
ATOM      5  C5  <0> A   1     -14.959   9.377  46.865  0.00  0.00    +0.096 A 
ATOM      6  C6  <0> A   1     -14.337  10.519  46.381  0.00  0.00    -0.076 A 
ATOM      7  C7  <0> A   1     -14.897  11.760  46.613  0.00  0.00    +0.012 A 
ATOM      8  C25 <0> A   1     -16.819   8.246  48.110  0.00  0.00    +0.096 C 
ENDROOT
BRANCH   6   9
ATOM      9  C8  <0> A   1     -13.052  10.404  45.601  0.00  0.00    +0.088 C 
BRANCH   9  10
ATOM     10  C13 <0> A   1     -13.360  10.405  44.126  0.00  0.00    -0.080 A 
ATOM     11  C14 <0> A   1     -13.774  11.570  43.507  0.00  0.00    +0.044 A 
ATOM     12  C15 <0> A   1     -14.056  11.573  42.155  0.00  0.00    -0.018 A 
ATOM     13  C16 <0> A   1     -13.923  10.408  41.418  0.00  0.00    +0.093 A 
ATOM     14  C17 <0> A   1     -13.509   9.241  42.038  0.00  0.00    -0.009 A 
ATOM     15  C18 <0> A   1     -13.222   9.243  43.390  0.00  0.00    +0.046 A 
ATOM     16  F1  <0> A   1     -14.199  10.409  40.095  0.00  0.00    -0.141 F 
ENDBRANCH   9  10
BRANCH   9  17
ATOM     17  C9  <0> A   1     -12.146  11.591  45.934  0.00  0.00    +0.032 C 
BRANCH  17  18
ATOM     18  C10 <0> A   1     -10.879  11.087  46.627  0.00  0.00    -0.023 C 
ATOM     19  C11 <0> A   1     -11.161  10.879  48.117  0.00  0.00    +0.018 C 
ATOM     20  C12 <0> A   1     -10.449   9.759  46.000  0.00  0.00    +0.011 C 
ENDBRANCH  17  18
ENDBRANCH   9  17
ENDBRANCH   6   9
BRANCH   5  21
ATOM     21  O1  <0> A   1     -14.411   8.154  46.635  0.00  0.00    -0.317 OA
BRANCH  21  22
ATOM     22  C19 <0> A   1     -13.417   7.705  47.558  0.00  0.00    +0.144 C 
BRANCH  22  23
ATOM     23  C20 <0> A   1     -12.726   6.460  46.999  0.00  0.00    +0.224 C 
BRANCH  23  24
ATOM     24  O5  <0> A   1     -12.946   5.356  47.880  0.00  0.00    -0.531 OA
ATOM     25  H29 <0> A   1     -12.293   4.648  47.793  0.00  0.00    +0.363 HD
ENDBRANCH  23  24
BRANCH  23  26
ATOM     26  C21 <0> A   1     -13.300   6.134  45.618  0.00  0.00    -0.044 C 
BRANCH  26  27
ATOM     27  C22 <0> A   1     -14.137   4.856  45.703  0.00  0.00    +0.235 C 
BRANCH  27  28
ATOM     28  O4  <0> A   1     -15.359   5.132  46.390  0.00  0.00    -0.527 OA
ATOM     29  H28 <0> A   1     -16.095   4.561  46.129  0.00  0.00    +0.350 HD
ENDBRANCH  27  28
BRANCH  27  30
ATOM     30  C23 <0> A   1     -14.447   4.356  44.291  0.00  0.00    -0.101 C 
BRANCH  30  31
ATOM     31  C24 <0> A   1     -15.224   5.410  43.544  0.00  0.00    +0.491 C 
ATOM     32  O2  <0> A   1     -14.728   5.961  42.576  0.00  0.00    -0.680 OA
ATOM     33  O3  <0> A   1     -16.348   5.712  43.907  0.00  0.00    -0.713 OA
ENDBRANCH  30  31
ENDBRANCH  27  30
ENDBRANCH  26  27
ENDBRANCH  23  26
ENDBRANCH  22  23
ENDBRANCH  21  22
ENDBRANCH   5  21
TORSDOF 13
ENDMDL
MODEL 8
REMARK VINA RESULT:      -7.0     21.482     24.669
REMARK  Name = CHEMBL101774
REMARK  17 active torsions:
REMARK  status: ('A' for Active; 'I' for Inactive)
REMARK    1  A    between atoms: C1_1  and  C2_2
REMARK    2  A    between atoms: C4_4  and  C25_32
REMARK    3  A    between atoms: C5_5  and  O1_20
REMARK    4  A    between atoms: C6_6  and  C8_8
REMARK    5  A    between atoms: C8_8  and  C9_9
REMARK    6  A    between atoms: C8_8  and  C13_13
REMARK    7  A    between atoms: C9_9  and  C10_10
REMARK    8  A    between atoms: C10_10  and  C11_11
REMARK    9  A    between atoms: C10_10  and  C12_12
REMARK   10  A    between atoms: O1_20  and  C19_21
REMARK   11  A    between atoms: C19_21  and  C20_22
REMARK   12  A    between atoms: C20_22  and  C21_23
REMARK   13  A    between atoms: C20_22  and  O5_31
REMARK   14  A    between atoms: C21_23  and  C22_24
REMARK   15  A    between atoms: C22_24  and  C23_26
REMARK   16  A    between atoms: C22_24  and  O4_30
REMARK   17  A    between atoms: C23_26  and  C24_27
REMARK                            x       y       z     vdW  Elec       q    Type
REMARK                         _______ _______ _______ _____ _____    ______ ____
ROOT
ATOM      1  C1  <0> A   1       5.779  23.581  37.869  0.00  0.00    +0.087 C 
ATOM      2  C2  <0> A   1       5.775  22.695  36.649  0.00  0.00    -0.087 A 
ATOM      3  C3  <0> A   1       6.698  21.673  36.535  0.00  0.00    +0.008 A 
ATOM      4  C4  <0> A   1       6.698  20.861  35.418  0.00  0.00    -0.094 A 
ATOM      5  C5  <0> A   1       5.768  21.071  34.410  0.00  0.00    +0.096 A 
ATOM      6  C6  <0> A   1       4.841  22.097  34.528  0.00  0.00    -0.076 A 
ATOM      7  C7  <0> A   1       4.844  22.904  35.649  0.00  0.00    +0.012 A 
ATOM      8  C25 <0> A   1       7.705  19.747  35.294  0.00  0.00    +0.096 C 
ENDROOT
BRANCH   6   9
ATOM      9  C8  <0> A   1       3.830  22.328  33.434  0.00  0.00    +0.088 C 
BRANCH   9  10
ATOM     10  C13 <0> A   1       2.444  22.338  34.027  0.00  0.00    -0.080 A 
ATOM     11  C14 <0> A   1       1.805  21.145  34.310  0.00  0.00    +0.044 A 
ATOM     12  C15 <0> A   1       0.535  21.151  34.854  0.00  0.00    -0.018 A 
ATOM     13  C16 <0> A   1      -0.098  22.355  35.116  0.00  0.00    +0.093 A 
ATOM     14  C17 <0> A   1       0.542  23.550  34.833  0.00  0.00    -0.009 A 
ATOM     15  C18 <0> A   1       1.815  23.539  34.294  0.00  0.00    +0.046 A 
ATOM     16  F1  <0> A   1      -1.340  22.364  35.648  0.00  0.00    -0.141 F 
ENDBRANCH   9  10
BRANCH   9  17
ATOM     17  C9  <0> A   1       4.107  23.673  32.760  0.00  0.00    +0.032 C 
BRANCH  17  18
ATOM     18  C10 <0> A   1       4.744  23.436  31.391  0.00  0.00    -0.023 C 
ATOM     19  C11 <0> A   1       6.267  23.400  31.537  0.00  0.00    +0.018 C 
ATOM     20  C12 <0> A   1       4.255  22.101  30.825  0.00  0.00    +0.011 C 
ENDBRANCH  17  18
ENDBRANCH   9  17
ENDBRANCH   6   9
BRANCH   5  21
ATOM     21  O1  <0> A   1       5.764  20.273  33.310  0.00  0.00    -0.317 OA
BRANCH  21  22
ATOM     22  C19 <0> A   1       4.794  19.225  33.272  0.00  0.00    +0.144 C 
BRANCH  22  23
ATOM     23  C20 <0> A   1       5.108  18.280  32.111  0.00  0.00    +0.224 C 
BRANCH  23  24
ATOM     24  O5  <0> A   1       4.161  17.210  32.097  0.00  0.00    -0.531 OA
ATOM     25  H29 <0> A   1       4.529  16.363  31.809  0.00  0.00    +0.363 HD
ENDBRANCH  23  24
BRANCH  23  26
ATOM     26  C21 <0> A   1       5.030  19.049  30.791  0.00  0.00    -0.044 C 
BRANCH  26  27
ATOM     27  C22 <0> A   1       4.575  18.104  29.676  0.00  0.00    +0.235 C 
BRANCH  27  28
ATOM     28  O4  <0> A   1       3.904  18.853  28.661  0.00  0.00    -0.527 OA
ATOM     29  H28 <0> A   1       4.257  18.714  27.771  0.00  0.00    +0.350 HD
ENDBRANCH  27  28
BRANCH  27  30
ATOM     30  C23 <0> A   1       5.794  17.404  29.073  0.00  0.00    -0.101 C 
BRANCH  30  31
ATOM     31  C24 <0> A   1       5.340  16.408  28.037  0.00  0.00    +0.491 C 
ATOM     32  O2  <0> A   1       6.156  15.693  27.481  0.00  0.00    -0.680 OA
ATOM     33  O3  <0> A   1       4.158  16.317  27.756  0.00  0.00    -0.713 OA
ENDBRANCH  30  31
ENDBRANCH  27  30
ENDBRANCH  26  27
ENDBRANCH  23  26
ENDBRANCH  22  23
ENDBRANCH  21  22
ENDBRANCH   5  21
TORSDOF 13
ENDMDL
MODEL 9
REMARK VINA RESULT:      -7.0     12.839     15.963
REMARK  Name = CHEMBL101774
REMARK  17 active torsions:
REMARK  status: ('A' for Active; 'I' for Inactive)
REMARK    1  A    between atoms: C1_1  and  C2_2
REMARK    2  A    between atoms: C4_4  and  C25_32
REMARK    3  A    between atoms: C5_5  and  O1_20
REMARK    4  A    between atoms: C6_6  and  C8_8
REMARK    5  A    between atoms: C8_8  and  C9_9
REMARK    6  A    between atoms: C8_8  and  C13_13
REMARK    7  A    between atoms: C9_9  and  C10_10
REMARK    8  A    between atoms: C10_10  and  C11_11
REMARK    9  A    between atoms: C10_10  and  C12_12
REMARK   10  A    between atoms: O1_20  and  C19_21
REMARK   11  A    between atoms: C19_21  and  C20_22
REMARK   12  A    between atoms: C20_22  and  C21_23
REMARK   13  A    between atoms: C20_22  and  O5_31
REMARK   14  A    between atoms: C21_23  and  C22_24
REMARK   15  A    between atoms: C22_24  and  C23_26
REMARK   16  A    between atoms: C22_24  and  O4_30
REMARK   17  A    between atoms: C23_26  and  C24_27
REMARK                            x       y       z     vdW  Elec       q    Type
REMARK                         _______ _______ _______ _____ _____    ______ ____
ROOT
ATOM      1  C1  <0> A   1       0.464  11.705  54.056  0.00  0.00    +0.087 C 
ATOM      2  C2  <0> A   1       0.145  10.501  53.208  0.00  0.00    -0.087 A 
ATOM      3  C3  <0> A   1      -0.916  10.541  52.323  0.00  0.00    +0.008 A 
ATOM      4  C4  <0> A   1      -1.212   9.439  51.546  0.00  0.00    -0.094 A 
ATOM      5  C5  <0> A   1      -0.442   8.289  51.653  0.00  0.00    +0.096 A 
ATOM      6  C6  <0> A   1       0.623   8.252  52.542  0.00  0.00    -0.076 A 
ATOM      7  C7  <0> A   1       0.917   9.358  53.314  0.00  0.00    +0.012 A 
ATOM      8  C25 <0> A   1      -2.369   9.483  50.581  0.00  0.00    +0.096 C 
ENDROOT
BRANCH   6   9
ATOM      9  C8  <0> A   1       1.460   7.004  52.662  0.00  0.00    +0.088 C 
BRANCH   9  10
ATOM     10  C13 <0> A   1       2.864   7.296  52.197  0.00  0.00    -0.080 A 
ATOM     11  C14 <0> A   1       3.935   7.051  53.036  0.00  0.00    +0.044 A 
ATOM     12  C15 <0> A   1       5.222   7.317  52.612  0.00  0.00    -0.018 A 
ATOM     13  C16 <0> A   1       5.440   7.830  51.344  0.00  0.00    +0.093 A 
ATOM     14  C17 <0> A   1       4.367   8.076  50.504  0.00  0.00    -0.009 A 
ATOM     15  C18 <0> A   1       3.081   7.803  50.929  0.00  0.00    +0.046 A 
ATOM     16  F1  <0> A   1       6.699   8.091  50.927  0.00  0.00    -0.141 F 
ENDBRANCH   9  10
BRANCH   9  17
ATOM     17  C9  <0> A   1       1.491   6.549  54.122  0.00  0.00    +0.032 C 
BRANCH  17  18
ATOM     18  C10 <0> A   1       0.461   5.438  54.331  0.00  0.00    -0.023 C 
ATOM     19  C11 <0> A   1       1.071   4.332  55.195  0.00  0.00    +0.018 C 
ATOM     20  C12 <0> A   1      -0.772   6.011  55.033  0.00  0.00    +0.011 C 
ENDBRANCH  17  18
ENDBRANCH   9  17
ENDBRANCH   6   9
BRANCH   5  21
ATOM     21  O1  <0> A   1      -0.730   7.202  50.890  0.00  0.00    -0.317 OA
BRANCH  21  22
ATOM     22  C19 <0> A   1      -1.744   6.319  51.375  0.00  0.00    +0.144 C 
BRANCH  22  23
ATOM     23  C20 <0> A   1      -2.629   5.870  50.212  0.00  0.00    +0.224 C 
BRANCH  23  24
ATOM     24  O5  <0> A   1      -3.855   6.605  50.234  0.00  0.00    -0.531 OA
ATOM     25  H29 <0> A   1      -3.737   7.564  50.273  0.00  0.00    +0.363 HD
ENDBRANCH  23  24
BRANCH  23  26
ATOM     26  C21 <0> A   1      -1.904   6.126  48.889  0.00  0.00    -0.044 C 
BRANCH  26  27
ATOM     27  C22 <0> A   1      -2.571   5.315  47.776  0.00  0.00    +0.235 C 
BRANCH  27  28
ATOM     28  O4  <0> A   1      -3.786   4.743  48.266  0.00  0.00    -0.527 OA
ATOM     29  H28 <0> A   1      -4.110   5.148  49.082  0.00  0.00    +0.350 HD
ENDBRANCH  27  28
BRANCH  27  30
ATOM     30  C23 <0> A   1      -2.880   6.232  46.592  0.00  0.00    -0.101 C 
BRANCH  30  31
ATOM     31  C24 <0> A   1      -4.015   7.155  46.955  0.00  0.00    +0.491 C 
ATOM     32  O2  <0> A   1      -5.167   6.819  46.736  0.00  0.00    -0.680 OA
ATOM     33  O3  <0> A   1      -3.782   8.237  47.466  0.00  0.00    -0.713 OA
ENDBRANCH  30  31
ENDBRANCH  27  30
ENDBRANCH  26  27
ENDBRANCH  23  26
ENDBRANCH  22  23
ENDBRANCH  21  22
ENDBRANCH   5  21
TORSDOF 13
ENDMDL
MODEL 10
REMARK VINA RESULT:      -6.9      2.555      5.421
REMARK  Name = CHEMBL101774
REMARK  17 active torsions:
REMARK  status: ('A' for Active; 'I' for Inactive)
REMARK    1  A    between atoms: C1_1  and  C2_2
REMARK    2  A    between atoms: C4_4  and  C25_32
REMARK    3  A    between atoms: C5_5  and  O1_20
REMARK    4  A    between atoms: C6_6  and  C8_8
REMARK    5  A    between atoms: C8_8  and  C9_9
REMARK    6  A    between atoms: C8_8  and  C13_13
REMARK    7  A    between atoms: C9_9  and  C10_10
REMARK    8  A    between atoms: C10_10  and  C11_11
REMARK    9  A    between atoms: C10_10  and  C12_12
REMARK   10  A    between atoms: O1_20  and  C19_21
REMARK   11  A    between atoms: C19_21  and  C20_22
REMARK   12  A    between atoms: C20_22  and  C21_23
REMARK   13  A    between atoms: C20_22  and  O5_31
REMARK   14  A    between atoms: C21_23  and  C22_24
REMARK   15  A    between atoms: C22_24  and  C23_26
REMARK   16  A    between atoms: C22_24  and  O4_30
REMARK   17  A    between atoms: C23_26  and  C24_27
REMARK                            x       y       z     vdW  Elec       q    Type
REMARK                         _______ _______ _______ _____ _____    ______ ____
ROOT
ATOM      1  C1  <0> A   1     -12.284  13.752  47.871  0.00  0.00    +0.087 C 
ATOM      2  C2  <0> A   1     -13.307  12.705  47.513  0.00  0.00    -0.087 A 
ATOM      3  C3  <0> A   1     -14.597  12.806  47.998  0.00  0.00    +0.008 A 
ATOM      4  C4  <0> A   1     -15.537  11.848  47.672  0.00  0.00    -0.094 A 
ATOM      5  C5  <0> A   1     -15.184  10.783  46.856  0.00  0.00    +0.096 A 
ATOM      6  C6  <0> A   1     -13.888  10.684  46.370  0.00  0.00    -0.076 A 
ATOM      7  C7  <0> A   1     -12.954  11.648  46.695  0.00  0.00    +0.012 A 
ATOM      8  C25 <0> A   1     -16.943  11.958  48.202  0.00  0.00    +0.096 C 
ENDROOT
BRANCH   6   9
ATOM      9  C8  <0> A   1     -13.502   9.528  45.484  0.00  0.00    +0.088 C 
BRANCH   9  10
ATOM     10  C13 <0> A   1     -13.337  10.015  44.067  0.00  0.00    -0.080 A 
ATOM     11  C14 <0> A   1     -14.079  11.091  43.616  0.00  0.00    +0.044 A 
ATOM     12  C15 <0> A   1     -13.930  11.540  42.318  0.00  0.00    -0.018 A 
ATOM     13  C16 <0> A   1     -13.035  10.911  41.468  0.00  0.00    +0.093 A 
ATOM     14  C17 <0> A   1     -12.292   9.833  41.920  0.00  0.00    -0.009 A 
ATOM     15  C18 <0> A   1     -12.440   9.390  43.221  0.00  0.00    +0.046 A 
ATOM     16  F1  <0> A   1     -12.887  11.348  40.198  0.00  0.00    -0.141 F 
ENDBRANCH   9  10
BRANCH   9  17
ATOM     17  C9  <0> A   1     -12.182   8.928  45.974  0.00  0.00    +0.032 C 
BRANCH  17  18
ATOM     18  C10 <0> A   1     -12.449   8.025  47.179  0.00  0.00    -0.023 C 
ATOM     19  C11 <0> A   1     -11.916   6.620  46.892  0.00  0.00    +0.018 C 
ATOM     20  C12 <0> A   1     -11.744   8.596  48.411  0.00  0.00    +0.011 C 
ENDBRANCH  17  18
ENDBRANCH   9  17
ENDBRANCH   6   9
BRANCH   5  21
ATOM     21  O1  <0> A   1     -16.106   9.837  46.534  0.00  0.00    -0.317 OA
BRANCH  21  22
ATOM     22  C19 <0> A   1     -16.407   8.858  47.530  0.00  0.00    +0.144 C 
BRANCH  22  23
ATOM     23  C20 <0> A   1     -15.908   7.488  47.067  0.00  0.00    +0.224 C 
BRANCH  23  24
ATOM     24  O5  <0> A   1     -15.562   6.698  48.206  0.00  0.00    -0.531 OA
ATOM     25  H29 <0> A   1     -15.511   5.749  48.026  0.00  0.00    +0.363 HD
ENDBRANCH  23  24
BRANCH  23  26
ATOM     26  C21 <0> A   1     -17.011   6.785  46.273  0.00  0.00    -0.044 C 
BRANCH  26  27
ATOM     27  C22 <0> A   1     -16.383   5.753  45.334  0.00  0.00    +0.235 C 
BRANCH  27  28
ATOM     28  O4  <0> A   1     -17.255   5.528  44.224  0.00  0.00    -0.527 OA
ATOM     29  H28 <0> A   1     -16.906   4.906  43.570  0.00  0.00    +0.350 HD
ENDBRANCH  27  28
BRANCH  27  30
ATOM     30  C23 <0> A   1     -15.038   6.277  44.827  0.00  0.00    -0.101 C 
BRANCH  30  31
ATOM     31  C24 <0> A   1     -14.712   5.629  43.506  0.00  0.00    +0.491 C 
ATOM     32  O2  <0> A   1     -14.320   4.475  43.474  0.00  0.00    -0.680 OA
ATOM     33  O3  <0> A   1     -14.839   6.258  42.470  0.00  0.00    -0.713 OA
ENDBRANCH  30  31
ENDBRANCH  27  30
ENDBRANCH  26  27
ENDBRANCH  23  26
ENDBRANCH  22  23
ENDBRANCH  21  22
ENDBRANCH   5  21
TORSDOF 13
ENDMDL
