REMARK VINA RESULT:      -7.0     18.141     21.423
REMARK  Name = CHEMBL154868
REMARK  13 active torsions:
REMARK  status: ('A' for Active; 'I' for Inactive)
REMARK    1  A    between atoms: C1_1  and  C2_2
REMARK    2  A    between atoms: C2_2  and  C3_3
REMARK    3  A    between atoms: C2_2  and  C4_4
REMARK    4  A    between atoms: C5_5  and  C19_21
REMARK    5  A    between atoms: C6_6  and  C13_14
REMARK    6  A    between atoms: C7_7  and  C8_9
REMARK    7  A    between atoms: C20_22  and  C21_23
REMARK    8  A    between atoms: C21_23  and  C22_25
REMARK    9  A    between atoms: C21_23  and  O4_33
REMARK   10  A    between atoms: C22_25  and  C23_26
REMARK   11  A    between atoms: C23_26  and  C24_28
REMARK   12  A    between atoms: C23_26  and  O3_32
REMARK   13  A    between atoms: C24_28  and  C25_29
REMARK                            x       y       z     vdW  Elec       q    Type
REMARK                         _______ _______ _______ _____ _____    ______ ____
ROOT
ATOM      1  C4  <0> A   1     -24.475  -3.289  51.506  0.00  0.00    -0.126 C 
ATOM      2  C5  <0> A   1     -25.311  -4.367  51.443  0.00  0.00    -0.075 C 
ATOM      3  C6  <0> A   1     -26.685  -4.174  51.846  0.00  0.00    -0.076 C 
ATOM      4  C7  <0> A   1     -27.056  -2.931  52.263  0.00  0.00    -0.120 C 
ATOM      5  S1  <0> A   1     -25.542  -2.000  52.122  0.00  0.00    +0.041 S 
ENDROOT
BRANCH   3   6
ATOM      6  C13 <0> A   1     -27.659  -5.291  51.807  0.00  0.00    -0.031 A 
ATOM      7  C14 <0> A   1     -28.338  -5.587  50.626  0.00  0.00    +0.053 A 
ATOM      8  C15 <0> A   1     -29.243  -6.627  50.595  0.00  0.00    -0.015 A 
ATOM      9  C16 <0> A   1     -29.478  -7.378  51.735  0.00  0.00    +0.099 A 
ATOM     10  C17 <0> A   1     -28.808  -7.087  52.912  0.00  0.00    -0.011 A 
ATOM     11  C18 <0> A   1     -27.895  -6.053  52.950  0.00  0.00    +0.058 A 
ATOM     12  F1  <0> A   1     -30.366  -8.396  51.700  0.00  0.00    -0.140 F 
ENDBRANCH   3   6
BRANCH   4  13
ATOM     13  C8  <0> A   1     -28.408  -2.462  52.734  0.00  0.00    +0.084 C 
ATOM     14  C9  <0> A   1     -29.249  -1.983  51.531  0.00  0.00    +0.022 C 
ATOM     15  C10 <0> A   1     -30.034  -0.766  52.078  0.00  0.00    +0.012 C 
ATOM     16  C11 <0> A   1     -29.000  -0.079  53.003  0.00  0.00    +0.008 C 
ATOM     17  C12 <0> A   1     -28.250  -1.251  53.669  0.00  0.00    +0.019 C 
ENDBRANCH   4  13
BRANCH   1  19
ATOM     18  C1  <0> A   1     -22.686  -1.806  50.638  0.00  0.00    +0.035 C 
ATOM     19  C2  <0> A   1     -23.013  -3.211  51.151  0.00  0.00    +0.081 C 
ATOM     20  C3  <0> A   1     -22.169  -3.508  52.392  0.00  0.00    +0.033 C 
ENDBRANCH   1  19
BRANCH   2  21
ATOM     21  C19 <0> A   1     -24.829  -5.683  50.977  0.00  0.00    +0.023 C 
ATOM     22  C20 <0> A   1     -24.374  -6.570  51.852  0.00  0.00    -0.055 C 
BRANCH  22  23
ATOM     23  C21 <0> A   1     -23.883  -7.913  51.377  0.00  0.00    +0.250 C 
BRANCH  23  24
ATOM     24  O4  <0> A   1     -23.251  -8.599  52.461  0.00  0.00    -0.538 OA
ATOM     25  H30 <0> A   1     -23.823  -8.730  53.230  0.00  0.00    +0.365 HD
ENDBRANCH  23  24
BRANCH  23  26
ATOM     26  C22 <0> A   1     -25.067  -8.740  50.871  0.00  0.00    -0.043 C 
BRANCH  26  27
ATOM     27  C23 <0> A   1     -24.673 -10.217  50.822  0.00  0.00    +0.231 C 
BRANCH  27  28
ATOM     28  O3  <0> A   1     -25.851 -11.026  50.836  0.00  0.00    -0.528 OA
ATOM     29  H29 <0> A   1     -25.900 -11.636  51.585  0.00  0.00    +0.350 HD
ENDBRANCH  27  28
BRANCH  27  30
ATOM     30  C24 <0> A   1     -23.883 -10.492  49.540  0.00  0.00    -0.102 C 
BRANCH  30  31
ATOM     31  C25 <0> A   1     -24.513 -11.643  48.798  0.00  0.00    +0.491 C 
ATOM     32  O1  <0> A   1     -25.362 -11.428  47.950  0.00  0.00    -0.681 OA
ATOM     33  O2  <0> A   1     -24.173 -12.787  49.046  0.00  0.00    -0.713 OA
ENDBRANCH  30  31
ENDBRANCH  27  30
ENDBRANCH  26  27
ENDBRANCH  23  26
ENDBRANCH  22  23
ENDBRANCH   2  21
TORSDOF 11
