REMARK VINA RESULT:      -7.6     25.828     28.194
REMARK  Name = CHEMBL60218
REMARK  7 active torsions:
REMARK  status: ('A' for Active; 'I' for Inactive)
REMARK    1  A    between atoms: C1_1  and  N1_2
REMARK    2  A    between atoms: C2_3  and  C3_7
REMARK    3  A    between atoms: C3_7  and  C17_23
REMARK    4  A    between atoms: C4_8  and  C5_9
REMARK    5  A    between atoms: C4_8  and  C11_16
REMARK    6  A    between atoms: C18_24  and  C19_25
REMARK    7  A    between atoms: C21_27  and  O3_33
REMARK                            x       y       z     vdW  Elec       q    Type
REMARK                         _______ _______ _______ _____ _____    ______ ____
ROOT
ATOM      1  C3  <0> A   1      -2.607   9.854  52.267  0.00  0.00    -0.025 C 
ATOM      2  C4  <0> A   1      -1.410  10.120  52.910  0.00  0.00    +0.038 C 
ENDROOT
BRANCH   2   3
ATOM      3  C5  <0> A   1      -1.403  10.901  54.162  0.00  0.00    -0.087 A 
ATOM      4  C6  <0> A   1      -1.437  10.248  55.398  0.00  0.00    +0.077 A 
ATOM      5  C7  <0> A   1      -1.430  10.984  56.563  0.00  0.00    -0.009 A 
ATOM      6  C8  <0> A   1      -1.390  12.369  56.513  0.00  0.00    +0.113 A 
ATOM      7  C9  <0> A   1      -1.357  13.022  55.290  0.00  0.00    -0.012 A 
ATOM      8  C10 <0> A   1      -1.357  12.297  54.117  0.00  0.00    +0.070 A 
ATOM      9  F1  <0> A   1      -1.385  13.084  57.659  0.00  0.00    -0.134 F 
ENDBRANCH   2   3
BRANCH   2  10
ATOM     10  C11 <0> A   1      -0.142   9.624  52.343  0.00  0.00    -0.071 A 
ATOM     11  C12 <0> A   1       0.594  10.422  51.462  0.00  0.00    +0.066 A 
ATOM     12  C13 <0> A   1       1.778   9.953  50.935  0.00  0.00    -0.010 A 
ATOM     13  C14 <0> A   1       2.240   8.691  51.276  0.00  0.00    +0.113 A 
ATOM     14  C15 <0> A   1       1.515   7.894  52.149  0.00  0.00    -0.008 A 
ATOM     15  C16 <0> A   1       0.333   8.354  52.687  0.00  0.00    +0.077 A 
ATOM     16  F2  <0> A   1       3.401   8.236  50.755  0.00  0.00    -0.135 F 
ENDBRANCH   2  10
BRANCH   1  19
ATOM     17  C1  <0> A   1      -4.422   8.408  54.372  0.00  0.00    +0.384 C 
ATOM     18  N1  <0> A   1      -4.658   9.713  53.750  0.00  0.00    -0.370 N 
ATOM     19  C2  <0> A   1      -3.874  10.350  52.833  0.00  0.00    +0.289 C 
ATOM     20  N2  <0> A   1      -4.465  11.494  52.551  0.00  0.00    -0.312 NA
ATOM     21  N3  <0> A   1      -5.554  11.614  53.222  0.00  0.00    -0.039 NA
ATOM     22  N4  <0> A   1      -5.745  10.579  53.965  0.00  0.00    -0.076 NA
ENDBRANCH   1  19
BRANCH   1  23
ATOM     23  C17 <0> A   1      -2.614   9.077  51.019  0.00  0.00    +0.060 C 
ATOM     24  C18 <0> A   1      -3.151   7.860  50.995  0.00  0.00    -0.013 C 
BRANCH  24  25
ATOM     25  C19 <0> A   1      -3.270   7.113  49.691  0.00  0.00    +0.247 C 
ATOM     26  C20 <0> A   1      -1.957   6.381  49.401  0.00  0.00    +0.049 C 
ATOM     27  C21 <0> A   1      -2.067   5.657  48.055  0.00  0.00    +0.187 C 
ATOM     28  C22 <0> A   1      -2.352   6.690  46.958  0.00  0.00    +0.025 C 
ATOM     29  C23 <0> A   1      -3.541   7.522  47.386  0.00  0.00    +0.497 C 
ATOM     30  O1  <0> A   1      -4.466   7.717  46.634  0.00  0.00    -0.446 OA
ATOM     31  O2  <0> A   1      -3.538   8.039  48.632  0.00  0.00    -0.368 OA
BRANCH  27  32
ATOM     32  O3  <0> A   1      -3.131   4.706  48.109  0.00  0.00    -0.563 OA
ATOM     33  H20 <0> A   1      -3.044   3.981  47.473  0.00  0.00    +0.388 HD
ENDBRANCH  27  32
ENDBRANCH  24  25
ENDBRANCH   1  23
TORSDOF 6
