REMARK  Name = CHEMBL250707
REMARK  16 active torsions:
REMARK  status: ('A' for Active; 'I' for Inactive)
REMARK    1  A    between atoms: C1_1  and  C2_2
REMARK    2  A    between atoms: C2_2  and  C3_3
REMARK    3  A    between atoms: C2_2  and  N1_4
REMARK    4  A    between atoms: C4_5  and  C24_28
REMARK    5  A    between atoms: C5_6  and  C18_21
REMARK    6  A    between atoms: C6_7  and  C12_15
REMARK    7  A    between atoms: C7_8  and  C8_9
REMARK    8  A    between atoms: N2_11  and  C9_12
REMARK    9  A    between atoms: C24_28  and  C25_29
REMARK   10  A    between atoms: C25_29  and  C26_30
REMARK   11  A    between atoms: C26_30  and  C27_32
REMARK   12  A    between atoms: C26_30  and  O5_40
REMARK   13  A    between atoms: C27_32  and  C28_33
REMARK   14  A    between atoms: C28_33  and  C29_35
REMARK   15  A    between atoms: C28_33  and  O4_39
REMARK   16  A    between atoms: C29_35  and  C30_36
REMARK                            x       y       z     vdW  Elec       q    Type
REMARK                         _______ _______ _______ _____ _____    ______ ____
ROOT
ATOM      1  N1  <0> A   1       0.630  -0.345  -1.486  0.00  0.00    -0.402 N 
ATOM      2  C4  <0> A   1       1.708  -1.165  -1.506  0.00  0.00    +0.074 C 
ATOM      3  C5  <0> A   1       2.128  -1.316  -2.794  0.00  0.00    -0.122 C 
ATOM      4  C6  <0> A   1       1.264  -0.549  -3.617  0.00  0.00    -0.057 C 
ATOM      5  C7  <0> A   1       0.333   0.043  -2.772  0.00  0.00    -0.033 C 
ENDROOT
BRANCH   3   6
ATOM      6  C18 <0> A   1       3.279  -2.133  -3.252  0.00  0.00    -0.009 A 
ATOM      7  C19 <0> A   1       4.575  -1.793  -2.867  0.00  0.00    +0.050 A 
ATOM      8  C20 <0> A   1       5.642  -2.555  -3.296  0.00  0.00    -0.016 A 
ATOM      9  C21 <0> A   1       5.427  -3.658  -4.107  0.00  0.00    +0.095 A 
ATOM     10  C22 <0> A   1       4.141  -3.999  -4.492  0.00  0.00    -0.017 A 
ATOM     11  C23 <0> A   1       3.067  -3.246  -4.063  0.00  0.00    +0.055 A 
ATOM     12  F1  <0> A   1       6.475  -4.401  -4.524  0.00  0.00    -0.142 F 
ENDBRANCH   3   6
BRANCH   4  13
ATOM     13  C12 <0> A   1       1.337  -0.410  -5.089  0.00  0.00    -0.010 A 
ATOM     14  C13 <0> A   1       2.439   0.207  -5.680  0.00  0.00    +0.026 A 
ATOM     15  C14 <0> A   1       2.502   0.334  -7.053  0.00  0.00    +0.003 A 
ATOM     16  C15 <0> A   1       1.473  -0.150  -7.842  0.00  0.00    -0.002 A 
ATOM     17  C16 <0> A   1       0.377  -0.763  -7.262  0.00  0.00    +0.001 A 
ATOM     18  C17 <0> A   1       0.307  -0.901  -5.891  0.00  0.00    +0.009 A 
ENDBRANCH   4  13
BRANCH   5  19
ATOM     19  C8  <0> A   1      -0.764   0.924  -3.178  0.00  0.00    +0.608 C 
ATOM     20  O1  <0> A   1      -0.575   2.122  -3.285  0.00  0.00    -0.517 OA
ATOM     21  N2  <0> A   1      -1.983   0.409  -3.433  0.00  0.00    -0.693 N 
ATOM     22  H10 <0> A   1      -2.152  -0.534  -3.283  0.00  0.00    +0.404 HD
BRANCH  21  23
ATOM     23  C9  <0> A   1      -3.054   1.274  -3.935  0.00  0.00    +0.217 C 
ATOM     24  C10 <0> A   1      -4.444   1.109  -3.318  0.00  0.00    +0.009 C 
ATOM     25  C11 <0> A   1      -4.175   0.615  -4.741  0.00  0.00    +0.017 C 
ENDBRANCH  21  23
ENDBRANCH   5  19
BRANCH   1  27
ATOM     26  C1  <0> A   1      -0.092   1.583  -0.167  0.00  0.00    +0.045 C 
ATOM     27  C2  <0> A   1      -0.107   0.058  -0.286  0.00  0.00    +0.230 C 
ATOM     28  C3  <0> A   1      -1.553  -0.432  -0.386  0.00  0.00    +0.041 C 
ENDBRANCH   1  27
BRANCH   2  29
ATOM     29  C24 <0> A   1       2.342  -1.806  -0.299  0.00  0.00    +0.117 C 
BRANCH  29  30
ATOM     30  C25 <0> A   1       1.687  -3.164  -0.040  0.00  0.00    -0.007 C 
BRANCH  30  31
ATOM     31  C26 <0> A   1       2.330  -3.816   1.186  0.00  0.00    +0.212 C 
BRANCH  31  32
ATOM     32  O5  <0> A   1       2.046  -3.031   2.346  0.00  0.00    -0.542 OA
ATOM     33  H34 <0> A   1       1.103  -2.937   2.536  0.00  0.00    +0.362 HD
ENDBRANCH  31  32
BRANCH  31  34
ATOM     34  C27 <0> A   1       1.764  -5.224   1.372  0.00  0.00    -0.051 C 
BRANCH  34  35
ATOM     35  C28 <0> A   1       2.495  -5.921   2.520  0.00  0.00    +0.230 C 
BRANCH  35  36
ATOM     36  O4  <0> A   1       2.219  -5.239   3.745  0.00  0.00    -0.528 OA
ATOM     37  H33 <0> A   1       1.281  -5.213   3.978  0.00  0.00    +0.349 HD
ENDBRANCH  35  36
BRANCH  35  38
ATOM     38  C29 <0> A   1       2.017  -7.371   2.626  0.00  0.00    -0.103 C 
BRANCH  38  39
ATOM     39  C30 <0> A   1       2.823  -8.091   3.675  0.00  0.00    +0.490 C 
ATOM     40  O2  <0> A   1       3.700  -7.501   4.282  0.00  0.00    -0.681 OA
ATOM     41  O3  <0> A   1       2.599  -9.265   3.916  0.00  0.00    -0.713 OA
ENDBRANCH  38  39
ENDBRANCH  35  38
ENDBRANCH  34  35
ENDBRANCH  31  34
ENDBRANCH  30  31
ENDBRANCH  29  30
ENDBRANCH   2  29
TORSDOF 14
