REMARK VINA RESULT:      -7.9      0.000      0.000
REMARK  Name = CHEMBL47537
REMARK  6 active torsions:
REMARK  status: ('A' for Active; 'I' for Inactive)
REMARK    1  A    between atoms: C4_4  and  O1_7
REMARK    2  A    between atoms: O1_7  and  C7_8
REMARK    3  A    between atoms: C12_13  and  C13_14
REMARK    4  A    between atoms: C13_14  and  C14_15
REMARK    5  A    between atoms: C14_15  and  C15_16
REMARK    6  A    between atoms: C17_18  and  O4_24
REMARK                            x       y       z     vdW  Elec       q    Type
REMARK                         _______ _______ _______ _____ _____    ______ ____
ROOT
ATOM      1  C7  <0> A   1      -4.227   4.112  45.609  0.00  0.00    +0.153 A 
ATOM      2  C8  <0> A   1      -2.842   4.131  45.519  0.00  0.00    -0.035 A 
ATOM      3  C9  <0> A   1      -2.176   3.085  44.908  0.00  0.00    +0.010 A 
ATOM      4  C10 <0> A   1      -2.889   2.020  44.387  0.00  0.00    +0.017 A 
ATOM      5  C11 <0> A   1      -4.269   1.999  44.476  0.00  0.00    +0.010 A 
ATOM      6  C12 <0> A   1      -4.939   3.041  45.092  0.00  0.00    -0.095 A 
ATOM      7 Cl1  <0> A   1      -5.161   0.662  43.820  0.00  0.00    -0.040 Cl
ATOM      8 Cl2  <0> A   1      -0.444   3.108  44.795  0.00  0.00    -0.048 Cl
ENDROOT
BRANCH   1   9
ATOM      9  O1  <0> A   1      -4.884   5.138  46.210  0.00  0.00    -0.239 OA
BRANCH   9  13
ATOM     10  C1  <0> A   1      -2.912   7.233  49.168  0.00  0.00    +0.014 A 
ATOM     11  C2  <0> A   1      -3.155   7.830  47.944  0.00  0.00    +0.029 A 
ATOM     12  C3  <0> A   1      -3.815   7.130  46.953  0.00  0.00    -0.007 A 
ATOM     13  C4  <0> A   1      -4.233   5.828  47.185  0.00  0.00    +0.077 A 
ATOM     14  C5  <0> A   1      -3.988   5.232  48.413  0.00  0.00    +0.017 A 
ATOM     15  C6  <0> A   1      -3.328   5.936  49.402  0.00  0.00    +0.031 A 
ENDBRANCH   9  13
ENDBRANCH   1   9
BRANCH   6  16
ATOM     16  C13 <0> A   1      -6.443   3.014  45.194  0.00  0.00    +0.098 C 
BRANCH  16  17
ATOM     17  C14 <0> A   1      -6.857   2.182  46.408  0.00  0.00    +0.062 C 
BRANCH  17  18
ATOM     18  C15 <0> A   1      -7.311   3.113  47.534  0.00  0.00    +0.199 C 
ATOM     19  C16 <0> A   1      -7.135   2.411  48.882  0.00  0.00    +0.041 C 
ATOM     20  C17 <0> A   1      -7.630   3.331  50.003  0.00  0.00    +0.184 C 
ATOM     21  C18 <0> A   1      -9.110   3.655  49.762  0.00  0.00    +0.021 C 
ATOM     22  C19 <0> A   1      -9.260   4.161  48.345  0.00  0.00    +0.496 C 
ATOM     23  O2  <0> A   1      -9.871   5.176  48.109  0.00  0.00    -0.453 OA
ATOM     24  O3  <0> A   1      -8.692   3.446  47.351  0.00  0.00    -0.365 OA
BRANCH  20  25
ATOM     25  O4  <0> A   1      -6.867   4.539  50.002  0.00  0.00    -0.563 OA
ATOM     26  H18 <0> A   1      -7.167   5.194  50.648  0.00  0.00    +0.386 HD
ENDBRANCH  20  25
ENDBRANCH  17  18
ENDBRANCH  16  17
ENDBRANCH   6  16
TORSDOF 6
