REMARK VINA RESULT:      -8.0     17.407     20.611
REMARK  Name = CHEMBL333687
REMARK  11 active torsions:
REMARK  status: ('A' for Active; 'I' for Inactive)
REMARK    1  A    between atoms: C1_1  and  C2_2
REMARK    2  A    between atoms: C2_2  and  C3_3
REMARK    3  A    between atoms: C2_2  and  C4_4
REMARK    4  A    between atoms: C5_5  and  C27_34
REMARK    5  A    between atoms: C6_6  and  C21_28
REMARK    6  A    between atoms: C7_7  and  C15_21
REMARK    7  A    between atoms: N1_8  and  C8_9
REMARK    8  A    between atoms: C8_9  and  C9_10
REMARK    9  A    between atoms: C9_10  and  C10_11
REMARK   10  A    between atoms: C12_14  and  O3_20
REMARK   11  A    between atoms: N2_36  and  C28_37
REMARK                            x       y       z     vdW  Elec       q    Type
REMARK                         _______ _______ _______ _____ _____    ______ ____
ROOT
ATOM      1  C4  <0> A   1     -24.577  -3.543  51.298  0.00  0.00    +0.099 C 
ATOM      2  C5  <0> A   1     -25.458  -2.605  51.757  0.00  0.00    -0.208 C 
ATOM      3  C6  <0> A   1     -26.790  -3.231  51.714  0.00  0.00    -0.067 C 
ATOM      4  C7  <0> A   1     -26.589  -4.508  51.227  0.00  0.00    +0.066 C 
ATOM      5  N1  <0> A   1     -25.250  -4.666  50.981  0.00  0.00    -0.421 N 
ENDROOT
BRANCH   4   6
ATOM      6  C15 <0> A   1     -27.637  -5.525  51.005  0.00  0.00    -0.032 A 
ATOM      7  C16 <0> A   1     -28.273  -5.617  49.764  0.00  0.00    +0.049 A 
ATOM      8  C17 <0> A   1     -29.250  -6.569  49.563  0.00  0.00    -0.012 A 
ATOM      9  C18 <0> A   1     -29.602  -7.432  50.588  0.00  0.00    +0.107 A 
ATOM     10  C19 <0> A   1     -28.975  -7.346  51.822  0.00  0.00    -0.009 A 
ATOM     11  C20 <0> A   1     -27.992  -6.401  52.033  0.00  0.00    +0.078 A 
ATOM     12  F1  <0> A   1     -30.561  -8.363  50.386  0.00  0.00    -0.137 F 
ENDBRANCH   4   6
BRANCH   3  13
ATOM     13  C21 <0> A   1     -28.077  -2.619  52.112  0.00  0.00    -0.015 A 
ATOM     14  C22 <0> A   1     -28.608  -1.560  51.373  0.00  0.00    +0.018 A 
ATOM     15  C23 <0> A   1     -29.808  -0.994  51.749  0.00  0.00    +0.001 A 
ATOM     16  C24 <0> A   1     -30.486  -1.474  52.855  0.00  0.00    +0.003 A 
ATOM     17  C25 <0> A   1     -29.967  -2.523  53.591  0.00  0.00    +0.004 A 
ATOM     18  C26 <0> A   1     -28.770  -3.101  53.222  0.00  0.00    +0.022 A 
ENDBRANCH   3  13
BRANCH   2  19
ATOM     19  C27 <0> A   1     -25.139  -1.240  52.205  0.00  0.00    +0.607 C 
ATOM     20  O4  <0> A   1     -24.727  -1.050  53.333  0.00  0.00    -0.509 OA
ATOM     21  N2  <0> A   1     -25.302  -0.200  51.363  0.00  0.00    -0.668 N 
ATOM     22  H28 <0> A   1     -25.702  -0.340  50.491  0.00  0.00    +0.410 HD
BRANCH  21  23
ATOM     23  C28 <0> A   1     -24.894   1.081  51.748  0.00  0.00    +0.149 A 
ATOM     24  C29 <0> A   1     -23.583   1.486  51.539  0.00  0.00    -0.024 A 
ATOM     25  C30 <0> A   1     -23.183   2.752  51.920  0.00  0.00    +0.024 A 
ATOM     26  C31 <0> A   1     -24.087   3.616  52.508  0.00  0.00    -0.014 A 
ATOM     27  C32 <0> A   1     -25.395   3.216  52.719  0.00  0.00    +0.024 A 
ATOM     28  C33 <0> A   1     -25.802   1.953  52.335  0.00  0.00    +0.014 A 
ENDBRANCH  21  23
ENDBRANCH   2  19
BRANCH   1  30
ATOM     29  C1  <0> A   1     -22.809  -2.023  50.455  0.00  0.00    +0.041 C 
ATOM     30  C2  <0> A   1     -23.088  -3.351  51.163  0.00  0.00    +0.048 C 
ATOM     31  C3  <0> A   1     -22.448  -3.333  52.552  0.00  0.00    +0.038 C 
ENDBRANCH   1  30
BRANCH   5  32
ATOM     32  C8  <0> A   1     -24.637  -5.886  50.450  0.00  0.00    +0.298 C 
BRANCH  32  33
ATOM     33  C9  <0> A   1     -24.272  -6.818  51.608  0.00  0.00    +0.052 C 
BRANCH  33  34
ATOM     34  C10 <0> A   1     -24.657  -8.254  51.246  0.00  0.00    +0.204 C 
ATOM     35  C11 <0> A   1     -23.434  -8.985  50.684  0.00  0.00    +0.046 C 
ATOM     36  C12 <0> A   1     -23.834 -10.409  50.284  0.00  0.00    +0.187 C 
ATOM     37  C13 <0> A   1     -24.942 -10.335  49.226  0.00  0.00    +0.025 C 
ATOM     38  C14 <0> A   1     -26.041  -9.438  49.750  0.00  0.00    +0.497 C 
ATOM     39  O1  <0> A   1     -27.196  -9.787  49.717  0.00  0.00    -0.448 OA
ATOM     40  O2  <0> A   1     -25.693  -8.237  50.258  0.00  0.00    -0.370 OA
BRANCH  36  41
ATOM     41  O3  <0> A   1     -24.312 -11.112  51.432  0.00  0.00    -0.564 OA
ATOM     42  H18 <0> A   1     -24.836 -11.897  51.222  0.00  0.00    +0.388 HD
ENDBRANCH  36  41
ENDBRANCH  33  34
ENDBRANCH  32  33
ENDBRANCH   5  32
TORSDOF 9
