REMARK VINA RESULT:      -7.3     17.470     19.640
REMARK  Name = CHEMBL419542
REMARK  11 active torsions:
REMARK  status: ('A' for Active; 'I' for Inactive)
REMARK    1  A    between atoms: C6_6  and  C7_7
REMARK    2  A    between atoms: C7_7  and  C17_27
REMARK    3  A    between atoms: C8_8  and  C9_9
REMARK    4  A    between atoms: C8_8  and  C16_22
REMARK    5  A    between atoms: C10_10  and  C11_11
REMARK    6  A    between atoms: C11_11  and  C12_13
REMARK    7  A    between atoms: C11_11  and  O4_21
REMARK    8  A    between atoms: C12_13  and  C13_14
REMARK    9  A    between atoms: C13_14  and  C14_16
REMARK   10  A    between atoms: C13_14  and  O3_20
REMARK   11  A    between atoms: C14_16  and  C15_17
REMARK                            x       y       z     vdW  Elec       q    Type
REMARK                         _______ _______ _______ _____ _____    ______ ____
ROOT
ATOM      1  C7  <0> A   1     -27.508  -1.792  51.316  0.00  0.00    +0.014 C 
ATOM      2  C8  <0> A   1     -26.305  -2.106  51.867  0.00  0.00    -0.039 C 
ENDROOT
BRANCH   1   8
ATOM      3  C1  <0> A   1     -28.021  -3.125  49.275  0.00  0.00    +0.070 A 
ATOM      4  C2  <0> A   1     -28.755  -4.094  48.624  0.00  0.00    -0.012 A 
ATOM      5  C3  <0> A   1     -29.760  -4.774  49.295  0.00  0.00    +0.110 A 
ATOM      6  C4  <0> A   1     -30.033  -4.483  50.621  0.00  0.00    -0.007 A 
ATOM      7  C5  <0> A   1     -29.306  -3.516  51.282  0.00  0.00    +0.068 A 
ATOM      8  C6  <0> A   1     -28.292  -2.829  50.612  0.00  0.00    -0.064 A 
ATOM      9  F2  <0> A   1     -30.476  -5.722  48.652  0.00  0.00    -0.136 F 
ENDBRANCH   1   8
BRANCH   1  10
ATOM     10  C17 <0> A   1     -28.030  -0.412  51.419  0.00  0.00    -0.078 A 
ATOM     11  C18 <0> A   1     -27.653   0.552  50.482  0.00  0.00    +0.058 A 
ATOM     12  C19 <0> A   1     -28.143   1.837  50.584  0.00  0.00    -0.009 A 
ATOM     13  C20 <0> A   1     -29.007   2.173  51.614  0.00  0.00    +0.108 A 
ATOM     14  C21 <0> A   1     -29.384   1.220  52.547  0.00  0.00    -0.008 A 
ATOM     15  C22 <0> A   1     -28.906  -0.069  52.451  0.00  0.00    +0.078 A 
ATOM     16  F1  <0> A   1     -29.484   3.433  51.709  0.00  0.00    -0.136 F 
ENDBRANCH   1  10
BRANCH   2  17
ATOM     17  C16 <0> A   1     -25.506  -1.049  52.584  0.00  0.00    +0.246 C 
ATOM     18  N1  <0> A   1     -24.449  -0.516  51.707  0.00  0.00    -0.116 NA
ATOM     19  N2  <0> A   1     -23.375  -0.776  52.265  0.00  0.00    -0.041 NA
ATOM     20  N3  <0> A   1     -23.563  -1.450  53.469  0.00  0.00    -0.042 NA
ATOM     21  N4  <0> A   1     -24.763  -1.638  53.711  0.00  0.00    -0.118 NA
ENDBRANCH   2  17
BRANCH   2  22
ATOM     22  C9  <0> A   1     -25.789  -3.470  51.765  0.00  0.00    +0.012 C 
ATOM     23  C10 <0> A   1     -24.908  -3.781  50.813  0.00  0.00    -0.065 C 
BRANCH  23  24
ATOM     24  C11 <0> A   1     -24.376  -5.187  50.707  0.00  0.00    +0.258 C 
BRANCH  24  25
ATOM     25  O4  <0> A   1     -23.541  -5.466  51.833  0.00  0.00    -0.533 OA
ATOM     26  H14 <0> A   1     -22.718  -5.923  51.608  0.00  0.00    +0.365 HD
ENDBRANCH  24  25
BRANCH  24  27
ATOM     27  C12 <0> A   1     -25.545  -6.175  50.684  0.00  0.00    -0.037 C 
BRANCH  27  28
ATOM     28  C13 <0> A   1     -25.205  -7.346  49.761  0.00  0.00    +0.233 C 
BRANCH  28  29
ATOM     29  O3  <0> A   1     -23.947  -7.105  49.130  0.00  0.00    -0.528 OA
ATOM     30  H13 <0> A   1     -23.808  -6.185  48.867  0.00  0.00    +0.350 HD
ENDBRANCH  28  29
BRANCH  28  31
ATOM     31  C14 <0> A   1     -25.126  -8.635  50.581  0.00  0.00    -0.099 C 
BRANCH  31  32
ATOM     32  C15 <0> A   1     -23.682  -8.976  50.843  0.00  0.00    +0.491 C 
ATOM     33  O1  <0> A   1     -23.106  -8.493  51.803  0.00  0.00    -0.681 OA
ATOM     34  O2  <0> A   1     -23.089  -9.734  50.095  0.00  0.00    -0.712 OA
ENDBRANCH  31  32
ENDBRANCH  28  31
ENDBRANCH  27  28
ENDBRANCH  24  27
ENDBRANCH  23  24
ENDBRANCH   2  22
TORSDOF 11
