MODEL 1
REMARK VINA RESULT:      -8.2      0.000      0.000
REMARK  Name = CHEMBL82467
REMARK  16 active torsions:
REMARK  status: ('A' for Active; 'I' for Inactive)
REMARK    1  A    between atoms: C1_1  and  C2_2
REMARK    2  A    between atoms: C2_2  and  C3_3
REMARK    3  A    between atoms: C3_3  and  C4_4
REMARK    4  A    between atoms: C3_3  and  C5_5
REMARK    5  A    between atoms: C3_3  and  C6_6
REMARK    6  A    between atoms: C6_6  and  O2_8
REMARK    7  A    between atoms: O2_8  and  C7_9
REMARK    8  A    between atoms: C9_12  and  C24_35
REMARK    9  A    between atoms: C9_12  and  C25_36
REMARK   10  A    between atoms: C12_17  and  C17_24
REMARK   11  A    between atoms: C13_19  and  C16_23
REMARK   12  A    between atoms: C17_24  and  C18_25
REMARK   13  A    between atoms: C18_25  and  C19_26
REMARK   14  A    between atoms: C21_28  and  O6_34
REMARK   15  A    between atoms: C25_36  and  S1_37
REMARK   16  A    between atoms: S1_37  and  C26_38
REMARK                            x       y       z     vdW  Elec       q    Type
REMARK                         _______ _______ _______ _____ _____    ______ ____
ROOT
ATOM      1  C7  <0> A   1     -27.873  -6.502  52.082  0.00  0.00    +0.187 C 
ATOM      2  C8  <0> A   1     -26.588  -7.104  51.542  0.00  0.00    +0.020 C 
ATOM      3  C9  <0> A   1     -26.641  -7.446  50.057  0.00  0.00    +0.156 C 
ATOM      4  O3  <0> A   1     -27.239  -6.392  49.305  0.00  0.00    -0.345 OA
ATOM      5  C10 <0> A   1     -28.548  -6.027  49.715  0.00  0.00    +0.161 C 
ATOM      6  C11 <0> A   1     -28.541  -5.506  51.143  0.00  0.00    -0.013 C 
ATOM      7  C12 <0> A   1     -27.964  -4.110  51.283  0.00  0.00    +0.001 C 
ATOM      8  C13 <0> A   1     -28.643  -3.145  50.309  0.00  0.00    -0.013 C 
ATOM      9  C14 <0> A   1     -28.490  -3.657  48.877  0.00  0.00    +0.007 C 
ATOM     10  C15 <0> A   1     -29.165  -5.020  48.749  0.00  0.00    +0.041 C 
ATOM     11  C16 <0> A   1     -27.996  -1.762  50.429  0.00  0.00    +0.018 C 
ATOM     12  C24 <0> A   1     -27.392  -8.760  49.841  0.00  0.00    +0.042 C 
ENDROOT
BRANCH   1  13
ATOM     13  O2  <0> A   1     -28.802  -7.549  52.401  0.00  0.00    -0.346 OA
BRANCH  13  14
ATOM     14  C6  <0> A   1     -29.509  -7.413  53.534  0.00  0.00    +0.469 C 
ATOM     15  O1  <0> A   1     -29.050  -6.789  54.461  0.00  0.00    -0.502 OA
BRANCH  14  16
ATOM     16  C3  <0> A   1     -30.875  -8.039  53.650  0.00  0.00    -0.052 C 
ATOM     17  C4  <0> A   1     -30.977  -9.220  52.682  0.00  0.00    +0.062 C 
ATOM     18  C5  <0> A   1     -31.943  -7.001  53.303  0.00  0.00    +0.061 C 
BRANCH  16  20
ATOM     19  C1  <0> A   1     -30.509  -9.941  55.229  0.00  0.00    +0.025 C 
ATOM     20  C2  <0> A   1     -31.090  -8.533  55.082  0.00  0.00    +0.036 C 
ENDBRANCH  16  20
ENDBRANCH  14  16
ENDBRANCH  13  14
ENDBRANCH   1  13
BRANCH   7  21
ATOM     21  C17 <0> A   1     -26.454  -4.063  51.070  0.00  0.00    +0.024 C 
BRANCH  21  22
ATOM     22  C18 <0> A   1     -25.776  -3.543  52.338  0.00  0.00    +0.078 C 
BRANCH  22  23
ATOM     23  C19 <0> A   1     -24.741  -2.479  51.966  0.00  0.00    +0.184 C 
ATOM     24  C20 <0> A   1     -23.726  -3.074  50.987  0.00  0.00    +0.044 C 
ATOM     25  C21 <0> A   1     -22.668  -2.019  50.648  0.00  0.00    +0.183 C 
ATOM     26  C22 <0> A   1     -21.969  -1.584  51.942  0.00  0.00    +0.011 C 
ATOM     27  C23 <0> A   1     -23.030  -1.192  52.948  0.00  0.00    +0.488 C 
ATOM     28  O4  <0> A   1     -22.956  -0.151  53.555  0.00  0.00    -0.447 OA
ATOM     29  O5  <0> A   1     -24.060  -2.040  53.146  0.00  0.00    -0.357 OA
BRANCH  25  30
ATOM     30  O6  <0> A   1     -23.297  -0.890  50.039  0.00  0.00    -0.562 OA
ATOM     31  H36 <0> A   1     -24.225  -1.033  49.809  0.00  0.00    +0.385 HD
ENDBRANCH  25  30
ENDBRANCH  22  23
ENDBRANCH  21  22
ENDBRANCH   7  21
BRANCH   3  32
ATOM     32  C25 <0> A   1     -25.198  -7.631  49.551  0.00  0.00    +0.095 C 
BRANCH  32  33
ATOM     33  S1  <0> A   1     -24.211  -8.457  50.830  0.00  0.00    -0.102 S 
BRANCH  33  34
ATOM     34  C26 <0> A   1     -24.263 -10.159  50.376  0.00  0.00    -0.100 A 
ATOM     35  C27 <0> A   1     -24.070 -10.532  49.051  0.00  0.00    -0.024 A 
ATOM     36  C28 <0> A   1     -24.111 -11.867  48.699  0.00  0.00    +0.026 A 
ATOM     37  C29 <0> A   1     -24.344 -12.831  49.662  0.00  0.00    +0.002 A 
ATOM     38  C30 <0> A   1     -24.538 -12.463  50.981  0.00  0.00    +0.028 A 
ATOM     39  C31 <0> A   1     -24.492 -11.131  51.342  0.00  0.00    +0.030 A 
ENDBRANCH  33  34
ENDBRANCH  32  33
ENDBRANCH   3  32
TORSDOF 11
ENDMDL
MODEL 2
REMARK VINA RESULT:      -8.0      2.535      6.879
REMARK  Name = CHEMBL82467
REMARK  16 active torsions:
REMARK  status: ('A' for Active; 'I' for Inactive)
REMARK    1  A    between atoms: C1_1  and  C2_2
REMARK    2  A    between atoms: C2_2  and  C3_3
REMARK    3  A    between atoms: C3_3  and  C4_4
REMARK    4  A    between atoms: C3_3  and  C5_5
REMARK    5  A    between atoms: C3_3  and  C6_6
REMARK    6  A    between atoms: C6_6  and  O2_8
REMARK    7  A    between atoms: O2_8  and  C7_9
REMARK    8  A    between atoms: C9_12  and  C24_35
REMARK    9  A    between atoms: C9_12  and  C25_36
REMARK   10  A    between atoms: C12_17  and  C17_24
REMARK   11  A    between atoms: C13_19  and  C16_23
REMARK   12  A    between atoms: C17_24  and  C18_25
REMARK   13  A    between atoms: C18_25  and  C19_26
REMARK   14  A    between atoms: C21_28  and  O6_34
REMARK   15  A    between atoms: C25_36  and  S1_37
REMARK   16  A    between atoms: S1_37  and  C26_38
REMARK                            x       y       z     vdW  Elec       q    Type
REMARK                         _______ _______ _______ _____ _____    ______ ____
ROOT
ATOM      1  C7  <0> A   1     -26.973  -5.659  50.766  0.00  0.00    +0.187 C 
ATOM      2  C8  <0> A   1     -27.252  -5.840  52.247  0.00  0.00    +0.020 C 
ATOM      3  C9  <0> A   1     -28.646  -5.395  52.674  0.00  0.00    +0.156 C 
ATOM      4  O3  <0> A   1     -29.638  -5.854  51.759  0.00  0.00    -0.345 OA
ATOM      5  C10 <0> A   1     -29.446  -5.454  50.411  0.00  0.00    +0.161 C 
ATOM      6  C11 <0> A   1     -28.145  -6.015  49.861  0.00  0.00    -0.013 C 
ATOM      7  C12 <0> A   1     -28.201  -7.498  49.551  0.00  0.00    +0.001 C 
ATOM      8  C13 <0> A   1     -29.403  -7.819  48.659  0.00  0.00    -0.013 C 
ATOM      9  C14 <0> A   1     -30.691  -7.355  49.336  0.00  0.00    +0.007 C 
ATOM     10  C15 <0> A   1     -30.641  -5.844  49.546  0.00  0.00    +0.041 C 
ATOM     11  C16 <0> A   1     -29.467  -9.330  48.418  0.00  0.00    +0.018 C 
ATOM     12  C24 <0> A   1     -28.699  -3.873  52.813  0.00  0.00    +0.042 C 
ENDROOT
BRANCH   1  13
ATOM     13  O2  <0> A   1     -26.571  -4.304  50.511  0.00  0.00    -0.346 OA
BRANCH  13  14
ATOM     14  C6  <0> A   1     -25.289  -3.992  50.759  0.00  0.00    +0.469 C 
ATOM     15  O1  <0> A   1     -24.439  -4.849  50.721  0.00  0.00    -0.502 OA
BRANCH  14  16
ATOM     16  C3  <0> A   1     -24.910  -2.569  51.084  0.00  0.00    -0.052 C 
ATOM     17  C4  <0> A   1     -23.423  -2.360  50.791  0.00  0.00    +0.062 C 
ATOM     18  C5  <0> A   1     -25.182  -2.294  52.565  0.00  0.00    +0.061 C 
BRANCH  16  20
ATOM     19  C1  <0> A   1     -25.122  -0.213  50.282  0.00  0.00    +0.025 C 
ATOM     20  C2  <0> A   1     -25.739  -1.612  50.227  0.00  0.00    +0.036 C 
ENDBRANCH  16  20
ENDBRANCH  14  16
ENDBRANCH  13  14
ENDBRANCH   1  13
BRANCH   7  21
ATOM     21  C17 <0> A   1     -28.254  -8.370  50.802  0.00  0.00    +0.024 C 
BRANCH  21  22
ATOM     22  C18 <0> A   1     -27.220  -9.490  50.687  0.00  0.00    +0.078 C 
BRANCH  22  23
ATOM     23  C19 <0> A   1     -25.834  -8.884  50.458  0.00  0.00    +0.184 C 
ATOM     24  C20 <0> A   1     -25.386  -9.162  49.020  0.00  0.00    +0.044 C 
ATOM     25  C21 <0> A   1     -23.981  -8.589  48.807  0.00  0.00    +0.183 C 
ATOM     26  C22 <0> A   1     -23.019  -9.251  49.801  0.00  0.00    +0.011 C 
ATOM     27  C23 <0> A   1     -23.608  -9.122  51.190  0.00  0.00    +0.488 C 
ATOM     28  O4  <0> A   1     -22.941  -8.716  52.112  0.00  0.00    -0.447 OA
ATOM     29  O5  <0> A   1     -24.898  -9.472  51.367  0.00  0.00    -0.357 OA
BRANCH  25  30
ATOM     30  O6  <0> A   1     -24.001  -7.178  49.025  0.00  0.00    -0.562 OA
ATOM     31  H36 <0> A   1     -24.788  -6.862  49.489  0.00  0.00    +0.385 HD
ENDBRANCH  25  30
ENDBRANCH  22  23
ENDBRANCH  21  22
ENDBRANCH   7  21
BRANCH   3  32
ATOM     32  C25 <0> A   1     -28.950  -6.011  54.053  0.00  0.00    +0.095 C 
BRANCH  32  33
ATOM     33  S1  <0> A   1     -30.734  -6.301  54.205  0.00  0.00    -0.102 S 
BRANCH  33  34
ATOM     34  C26 <0> A   1     -30.899  -8.047  54.035  0.00  0.00    -0.100 A 
ATOM     35  C27 <0> A   1     -30.612  -8.880  55.110  0.00  0.00    -0.024 A 
ATOM     36  C28 <0> A   1     -30.743 -10.248  54.974  0.00  0.00    +0.026 A 
ATOM     37  C29 <0> A   1     -31.157 -10.790  53.771  0.00  0.00    +0.002 A 
ATOM     38  C30 <0> A   1     -31.441  -9.963  52.699  0.00  0.00    +0.028 A 
ATOM     39  C31 <0> A   1     -31.319  -8.594  52.830  0.00  0.00    +0.030 A 
ENDBRANCH  33  34
ENDBRANCH  32  33
ENDBRANCH   3  32
TORSDOF 11
ENDMDL
MODEL 3
REMARK VINA RESULT:      -7.9     17.400     21.511
REMARK  Name = CHEMBL82467
REMARK  16 active torsions:
REMARK  status: ('A' for Active; 'I' for Inactive)
REMARK    1  A    between atoms: C1_1  and  C2_2
REMARK    2  A    between atoms: C2_2  and  C3_3
REMARK    3  A    between atoms: C3_3  and  C4_4
REMARK    4  A    between atoms: C3_3  and  C5_5
REMARK    5  A    between atoms: C3_3  and  C6_6
REMARK    6  A    between atoms: C6_6  and  O2_8
REMARK    7  A    between atoms: O2_8  and  C7_9
REMARK    8  A    between atoms: C9_12  and  C24_35
REMARK    9  A    between atoms: C9_12  and  C25_36
REMARK   10  A    between atoms: C12_17  and  C17_24
REMARK   11  A    between atoms: C13_19  and  C16_23
REMARK   12  A    between atoms: C17_24  and  C18_25
REMARK   13  A    between atoms: C18_25  and  C19_26
REMARK   14  A    between atoms: C21_28  and  O6_34
REMARK   15  A    between atoms: C25_36  and  S1_37
REMARK   16  A    between atoms: S1_37  and  C26_38
REMARK                            x       y       z     vdW  Elec       q    Type
REMARK                         _______ _______ _______ _____ _____    ______ ____
ROOT
ATOM      1  C7  <0> A   1     -12.559   9.941  48.706  0.00  0.00    +0.187 C 
ATOM      2  C8  <0> A   1     -13.197   8.613  49.072  0.00  0.00    +0.020 C 
ATOM      3  C9  <0> A   1     -14.686   8.708  49.385  0.00  0.00    +0.156 C 
ATOM      4  O3  <0> A   1     -15.364   9.521  48.430  0.00  0.00    -0.345 OA
ATOM      5  C10 <0> A   1     -14.862  10.841  48.298  0.00  0.00    +0.161 C 
ATOM      6  C11 <0> A   1     -13.421  10.826  47.815  0.00  0.00    -0.013 C 
ATOM      7  C12 <0> A   1     -13.272  10.480  46.346  0.00  0.00    +0.001 C 
ATOM      8  C13 <0> A   1     -14.170  11.373  45.486  0.00  0.00    -0.013 C 
ATOM      9  C14 <0> A   1     -15.624  11.233  45.934  0.00  0.00    +0.007 C 
ATOM     10  C15 <0> A   1     -15.755  11.680  47.388  0.00  0.00    +0.041 C 
ATOM     11  C16 <0> A   1     -14.044  10.957  44.018  0.00  0.00    +0.018 C 
ATOM     12  C24 <0> A   1     -14.899   9.243  50.801  0.00  0.00    +0.042 C 
ENDROOT
BRANCH   1  13
ATOM     13  O2  <0> A   1     -12.218  10.661  49.900  0.00  0.00    -0.346 OA
BRANCH  13  14
ATOM     14  C6  <0> A   1     -10.991  11.203  49.956  0.00  0.00    +0.469 C 
ATOM     15  O1  <0> A   1     -10.361  11.379  48.940  0.00  0.00    -0.502 OA
BRANCH  14  16
ATOM     16  C3  <0> A   1     -10.400  11.595  51.286  0.00  0.00    -0.052 C 
ATOM     17  C4  <0> A   1      -9.053  10.891  51.472  0.00  0.00    +0.062 C 
ATOM     18  C5  <0> A   1     -11.351  11.180  52.410  0.00  0.00    +0.061 C 
BRANCH  16  20
ATOM     19  C1  <0> A   1      -9.600  13.509  52.680  0.00  0.00    +0.025 C 
ATOM     20  C2  <0> A   1     -10.193  13.110  51.326  0.00  0.00    +0.036 C 
ENDBRANCH  16  20
ENDBRANCH  14  16
ENDBRANCH  13  14
ENDBRANCH   1  13
BRANCH   7  21
ATOM     21  C17 <0> A   1     -13.577   9.016  46.041  0.00  0.00    +0.024 C 
BRANCH  21  22
ATOM     22  C18 <0> A   1     -12.278   8.286  45.695  0.00  0.00    +0.078 C 
BRANCH  22  23
ATOM     23  C19 <0> A   1     -12.437   7.570  44.352  0.00  0.00    +0.184 C 
ATOM     24  C20 <0> A   1     -11.613   8.296  43.285  0.00  0.00    +0.044 C 
ATOM     25  C21 <0> A   1     -11.808   7.601  41.934  0.00  0.00    +0.183 C 
ATOM     26  C22 <0> A   1     -13.297   7.633  41.569  0.00  0.00    +0.011 C 
ATOM     27  C23 <0> A   1     -14.085   7.087  42.740  0.00  0.00    +0.488 C 
ATOM     28  O4  <0> A   1     -14.930   6.239  42.579  0.00  0.00    -0.447 OA
ATOM     29  O5  <0> A   1     -13.816   7.574  43.969  0.00  0.00    -0.357 OA
BRANCH  25  30
ATOM     30  O6  <0> A   1     -11.364   6.246  42.024  0.00  0.00    -0.562 OA
ATOM     31  H36 <0> A   1     -12.003   5.600  41.694  0.00  0.00    +0.385 HD
ENDBRANCH  25  30
ENDBRANCH  22  23
ENDBRANCH  21  22
ENDBRANCH   7  21
BRANCH   3  32
ATOM     32  C25 <0> A   1     -15.287   7.291  49.315  0.00  0.00    +0.095 C 
BRANCH  32  33
ATOM     33  S1  <0> A   1     -16.391   7.173  47.881  0.00  0.00    -0.102 S 
BRANCH  33  34
ATOM     34  C26 <0> A   1     -15.634   5.956  46.857  0.00  0.00    -0.100 A 
ATOM     35  C27 <0> A   1     -16.369   5.337  45.852  0.00  0.00    -0.024 A 
ATOM     36  C28 <0> A   1     -15.773   4.384  45.051  0.00  0.00    +0.026 A 
ATOM     37  C29 <0> A   1     -14.447   4.044  45.247  0.00  0.00    +0.002 A 
ATOM     38  C30 <0> A   1     -13.713   4.657  46.247  0.00  0.00    +0.028 A 
ATOM     39  C31 <0> A   1     -14.301   5.616  47.048  0.00  0.00    +0.030 A 
ENDBRANCH  33  34
ENDBRANCH  32  33
ENDBRANCH   3  32
TORSDOF 11
ENDMDL
MODEL 4
REMARK VINA RESULT:      -7.9     14.503     19.900
REMARK  Name = CHEMBL82467
REMARK  16 active torsions:
REMARK  status: ('A' for Active; 'I' for Inactive)
REMARK    1  A    between atoms: C1_1  and  C2_2
REMARK    2  A    between atoms: C2_2  and  C3_3
REMARK    3  A    between atoms: C3_3  and  C4_4
REMARK    4  A    between atoms: C3_3  and  C5_5
REMARK    5  A    between atoms: C3_3  and  C6_6
REMARK    6  A    between atoms: C6_6  and  O2_8
REMARK    7  A    between atoms: O2_8  and  C7_9
REMARK    8  A    between atoms: C9_12  and  C24_35
REMARK    9  A    between atoms: C9_12  and  C25_36
REMARK   10  A    between atoms: C12_17  and  C17_24
REMARK   11  A    between atoms: C13_19  and  C16_23
REMARK   12  A    between atoms: C17_24  and  C18_25
REMARK   13  A    between atoms: C18_25  and  C19_26
REMARK   14  A    between atoms: C21_28  and  O6_34
REMARK   15  A    between atoms: C25_36  and  S1_37
REMARK   16  A    between atoms: S1_37  and  C26_38
REMARK                            x       y       z     vdW  Elec       q    Type
REMARK                         _______ _______ _______ _____ _____    ______ ____
ROOT
ATOM      1  C7  <0> A   1     -15.853   7.997  47.452  0.00  0.00    +0.187 C 
ATOM      2  C8  <0> A   1     -15.379   8.856  46.294  0.00  0.00    +0.020 C 
ATOM      3  C9  <0> A   1     -14.920  10.251  46.705  0.00  0.00    +0.156 C 
ATOM      4  O3  <0> A   1     -14.096  10.202  47.867  0.00  0.00    -0.345 OA
ATOM      5  C10 <0> A   1     -14.687   9.586  49.000  0.00  0.00    +0.161 C 
ATOM      6  C11 <0> A   1     -15.012   8.129  48.715  0.00  0.00    -0.013 C 
ATOM      7  C12 <0> A   1     -13.796   7.224  48.693  0.00  0.00    +0.001 C 
ATOM      8  C13 <0> A   1     -12.965   7.402  49.966  0.00  0.00    -0.013 C 
ATOM      9  C14 <0> A   1     -12.553   8.866  50.117  0.00  0.00    +0.007 C 
ATOM     10  C15 <0> A   1     -13.801   9.738  50.233  0.00  0.00    +0.041 C 
ATOM     11  C16 <0> A   1     -11.714   6.524  49.884  0.00  0.00    +0.018 C 
ATOM     12  C24 <0> A   1     -16.127  11.161  46.934  0.00  0.00    +0.042 C 
ENDROOT
BRANCH   1  13
ATOM     13  O2  <0> A   1     -17.221   8.308  47.758  0.00  0.00    -0.346 OA
BRANCH  13  14
ATOM     14  C6  <0> A   1     -18.124   7.333  47.574  0.00  0.00    +0.469 C 
ATOM     15  O1  <0> A   1     -18.538   7.094  46.464  0.00  0.00    -0.502 OA
BRANCH  14  16
ATOM     16  C3  <0> A   1     -18.622   6.534  48.751  0.00  0.00    -0.052 C 
ATOM     17  C4  <0> A   1     -18.480   7.366  50.027  0.00  0.00    +0.062 C 
ATOM     18  C5  <0> A   1     -17.797   5.252  48.884  0.00  0.00    +0.061 C 
BRANCH  16  20
ATOM     19  C1  <0> A   1     -20.420   4.888  49.300  0.00  0.00    +0.025 C 
ATOM     20  C2  <0> A   1     -20.093   6.174  48.538  0.00  0.00    +0.036 C 
ENDBRANCH  16  20
ENDBRANCH  14  16
ENDBRANCH  13  14
ENDBRANCH   1  13
BRANCH   7  21
ATOM     21  C17 <0> A   1     -12.905   7.448  47.474  0.00  0.00    +0.024 C 
BRANCH  21  22
ATOM     22  C18 <0> A   1     -12.713   6.125  46.733  0.00  0.00    +0.078 C 
BRANCH  22  23
ATOM     23  C19 <0> A   1     -13.913   5.873  45.818  0.00  0.00    +0.184 C 
ATOM     24  C20 <0> A   1     -14.543   4.521  46.161  0.00  0.00    +0.044 C 
ATOM     25  C21 <0> A   1     -15.719   4.253  45.215  0.00  0.00    +0.183 C 
ATOM     26  C22 <0> A   1     -15.203   4.249  43.771  0.00  0.00    +0.011 C 
ATOM     27  C23 <0> A   1     -14.415   5.522  43.543  0.00  0.00    +0.488 C 
ATOM     28  O4  <0> A   1     -14.620   6.214  42.574  0.00  0.00    -0.447 OA
ATOM     29  O5  <0> A   1     -13.479   5.860  44.453  0.00  0.00    -0.357 OA
BRANCH  25  30
ATOM     30  O6  <0> A   1     -16.701   5.279  45.372  0.00  0.00    -0.562 OA
ATOM     31  H36 <0> A   1     -17.440   5.033  45.944  0.00  0.00    +0.385 HD
ENDBRANCH  25  30
ENDBRANCH  22  23
ENDBRANCH  21  22
ENDBRANCH   7  21
BRANCH   3  32
ATOM     32  C25 <0> A   1     -14.086  10.845  45.554  0.00  0.00    +0.095 C 
BRANCH  32  33
ATOM     33  S1  <0> A   1     -13.374   9.499  44.567  0.00  0.00    -0.102 S 
BRANCH  33  34
ATOM     34  C26 <0> A   1     -13.608  10.022  42.901  0.00  0.00    -0.100 A 
ATOM     35  C27 <0> A   1     -13.108   9.255  41.855  0.00  0.00    -0.024 A 
ATOM     36  C28 <0> A   1     -13.293   9.668  40.550  0.00  0.00    +0.026 A 
ATOM     37  C29 <0> A   1     -13.973  10.842  40.283  0.00  0.00    +0.002 A 
ATOM     38  C30 <0> A   1     -14.471  11.608  41.322  0.00  0.00    +0.028 A 
ATOM     39  C31 <0> A   1     -14.295  11.198  42.630  0.00  0.00    +0.030 A 
ENDBRANCH  33  34
ENDBRANCH  32  33
ENDBRANCH   3  32
TORSDOF 11
ENDMDL
MODEL 5
REMARK VINA RESULT:      -7.9     15.573     20.020
REMARK  Name = CHEMBL82467
REMARK  16 active torsions:
REMARK  status: ('A' for Active; 'I' for Inactive)
REMARK    1  A    between atoms: C1_1  and  C2_2
REMARK    2  A    between atoms: C2_2  and  C3_3
REMARK    3  A    between atoms: C3_3  and  C4_4
REMARK    4  A    between atoms: C3_3  and  C5_5
REMARK    5  A    between atoms: C3_3  and  C6_6
REMARK    6  A    between atoms: C6_6  and  O2_8
REMARK    7  A    between atoms: O2_8  and  C7_9
REMARK    8  A    between atoms: C9_12  and  C24_35
REMARK    9  A    between atoms: C9_12  and  C25_36
REMARK   10  A    between atoms: C12_17  and  C17_24
REMARK   11  A    between atoms: C13_19  and  C16_23
REMARK   12  A    between atoms: C17_24  and  C18_25
REMARK   13  A    between atoms: C18_25  and  C19_26
REMARK   14  A    between atoms: C21_28  and  O6_34
REMARK   15  A    between atoms: C25_36  and  S1_37
REMARK   16  A    between atoms: S1_37  and  C26_38
REMARK                            x       y       z     vdW  Elec       q    Type
REMARK                         _______ _______ _______ _____ _____    ______ ____
ROOT
ATOM      1  C7  <0> A   1     -15.802   8.031  47.365  0.00  0.00    +0.187 C 
ATOM      2  C8  <0> A   1     -15.317   8.879  46.203  0.00  0.00    +0.020 C 
ATOM      3  C9  <0> A   1     -14.869  10.280  46.603  0.00  0.00    +0.156 C 
ATOM      4  O3  <0> A   1     -14.058  10.247  47.775  0.00  0.00    -0.345 OA
ATOM      5  C10 <0> A   1     -14.660   9.642  48.909  0.00  0.00    +0.161 C 
ATOM      6  C11 <0> A   1     -14.977   8.181  48.636  0.00  0.00    -0.013 C 
ATOM      7  C12 <0> A   1     -13.757   7.280  48.638  0.00  0.00    +0.001 C 
ATOM      8  C13 <0> A   1     -12.942   7.476  49.920  0.00  0.00    -0.013 C 
ATOM      9  C14 <0> A   1     -12.537   8.942  50.059  0.00  0.00    +0.007 C 
ATOM     10  C15 <0> A   1     -13.789   9.811  50.150  0.00  0.00    +0.041 C 
ATOM     11  C16 <0> A   1     -11.687   6.601  49.862  0.00  0.00    +0.018 C 
ATOM     12  C24 <0> A   1     -16.082  11.188  46.808  0.00  0.00    +0.042 C 
ENDROOT
BRANCH   1  13
ATOM     13  O2  <0> A   1     -17.174   8.341  47.652  0.00  0.00    -0.346 OA
BRANCH  13  14
ATOM     14  C6  <0> A   1     -18.067   7.349  47.503  0.00  0.00    +0.469 C 
ATOM     15  O1  <0> A   1     -18.503   7.087  46.408  0.00  0.00    -0.502 OA
BRANCH  14  16
ATOM     16  C3  <0> A   1     -18.524   6.561  48.704  0.00  0.00    -0.052 C 
ATOM     17  C4  <0> A   1     -17.669   5.299  48.840  0.00  0.00    +0.062 C 
ATOM     18  C5  <0> A   1     -19.992   6.167  48.528  0.00  0.00    +0.061 C 
BRANCH  16  20
ATOM     19  C1  <0> A   1     -17.407   6.734  50.932  0.00  0.00    +0.025 C 
ATOM     20  C2  <0> A   1     -18.374   7.417  49.963  0.00  0.00    +0.036 C 
ENDBRANCH  16  20
ENDBRANCH  14  16
ENDBRANCH  13  14
ENDBRANCH   1  13
BRANCH   7  21
ATOM     21  C17 <0> A   1     -12.853   7.494  47.428  0.00  0.00    +0.024 C 
BRANCH  21  22
ATOM     22  C18 <0> A   1     -12.654   6.164  46.699  0.00  0.00    +0.078 C 
BRANCH  22  23
ATOM     23  C19 <0> A   1     -13.860   5.890  45.798  0.00  0.00    +0.184 C 
ATOM     24  C20 <0> A   1     -14.450   4.518  46.136  0.00  0.00    +0.044 C 
ATOM     25  C21 <0> A   1     -15.631   4.230  45.204  0.00  0.00    +0.183 C 
ATOM     26  C22 <0> A   1     -15.136   4.254  43.753  0.00  0.00    +0.011 C 
ATOM     27  C23 <0> A   1     -14.386   5.550  43.527  0.00  0.00    +0.488 C 
ATOM     28  O4  <0> A   1     -14.622   6.246  42.569  0.00  0.00    -0.447 OA
ATOM     29  O5  <0> A   1     -13.446   5.903  44.428  0.00  0.00    -0.357 OA
BRANCH  25  30
ATOM     30  O6  <0> A   1     -16.638   5.228  45.385  0.00  0.00    -0.562 OA
ATOM     31  H36 <0> A   1     -16.439   6.070  44.954  0.00  0.00    +0.385 HD
ENDBRANCH  25  30
ENDBRANCH  22  23
ENDBRANCH  21  22
ENDBRANCH   7  21
BRANCH   3  32
ATOM     32  C25 <0> A   1     -14.023  10.863  45.456  0.00  0.00    +0.095 C 
BRANCH  32  33
ATOM     33  S1  <0> A   1     -13.333   9.510  44.465  0.00  0.00    -0.102 S 
BRANCH  33  34
ATOM     34  C26 <0> A   1     -13.597  10.022  42.800  0.00  0.00    -0.100 A 
ATOM     35  C27 <0> A   1     -14.305  11.189  42.534  0.00  0.00    -0.024 A 
ATOM     36  C28 <0> A   1     -14.510  11.587  41.228  0.00  0.00    +0.026 A 
ATOM     37  C29 <0> A   1     -14.012  10.828  40.185  0.00  0.00    +0.002 A 
ATOM     38  C30 <0> A   1     -13.309   9.666  40.445  0.00  0.00    +0.028 A 
ATOM     39  C31 <0> A   1     -13.095   9.264  41.749  0.00  0.00    +0.030 A 
ENDBRANCH  33  34
ENDBRANCH  32  33
ENDBRANCH   3  32
TORSDOF 11
ENDMDL
MODEL 6
REMARK VINA RESULT:      -7.9      2.481      5.083
REMARK  Name = CHEMBL82467
REMARK  16 active torsions:
REMARK  status: ('A' for Active; 'I' for Inactive)
REMARK    1  A    between atoms: C1_1  and  C2_2
REMARK    2  A    between atoms: C2_2  and  C3_3
REMARK    3  A    between atoms: C3_3  and  C4_4
REMARK    4  A    between atoms: C3_3  and  C5_5
REMARK    5  A    between atoms: C3_3  and  C6_6
REMARK    6  A    between atoms: C6_6  and  O2_8
REMARK    7  A    between atoms: O2_8  and  C7_9
REMARK    8  A    between atoms: C9_12  and  C24_35
REMARK    9  A    between atoms: C9_12  and  C25_36
REMARK   10  A    between atoms: C12_17  and  C17_24
REMARK   11  A    between atoms: C13_19  and  C16_23
REMARK   12  A    between atoms: C17_24  and  C18_25
REMARK   13  A    between atoms: C18_25  and  C19_26
REMARK   14  A    between atoms: C21_28  and  O6_34
REMARK   15  A    between atoms: C25_36  and  S1_37
REMARK   16  A    between atoms: S1_37  and  C26_38
REMARK                            x       y       z     vdW  Elec       q    Type
REMARK                         _______ _______ _______ _____ _____    ______ ____
ROOT
ATOM      1  C7  <0> A   1     -27.879  -4.914  52.461  0.00  0.00    +0.187 C 
ATOM      2  C8  <0> A   1     -28.172  -5.825  51.283  0.00  0.00    +0.020 C 
ATOM      3  C9  <0> A   1     -28.736  -5.101  50.065  0.00  0.00    +0.156 C 
ATOM      4  O3  <0> A   1     -28.017  -3.898  49.801  0.00  0.00    -0.345 OA
ATOM      5  C10 <0> A   1     -27.974  -2.973  50.877  0.00  0.00    +0.161 C 
ATOM      6  C11 <0> A   1     -27.263  -3.574  52.078  0.00  0.00    -0.013 C 
ATOM      7  C12 <0> A   1     -25.757  -3.660  51.917  0.00  0.00    +0.001 C 
ATOM      8  C13 <0> A   1     -25.178  -2.303  51.510  0.00  0.00    -0.013 C 
ATOM      9  C14 <0> A   1     -25.838  -1.823  50.218  0.00  0.00    +0.007 C 
ATOM     10  C15 <0> A   1     -27.338  -1.655  50.444  0.00  0.00    +0.041 C 
ATOM     11  C16 <0> A   1     -23.669  -2.438  51.294  0.00  0.00    +0.018 C 
ATOM     12  C24 <0> A   1     -30.224  -4.812  50.260  0.00  0.00    +0.042 C 
ENDROOT
BRANCH   1  13
ATOM     13  O2  <0> A   1     -29.083  -4.685  53.208  0.00  0.00    -0.346 OA
BRANCH  13  14
ATOM     14  C6  <0> A   1     -29.565  -5.717  53.919  0.00  0.00    +0.469 C 
ATOM     15  O1  <0> A   1     -28.811  -6.426  54.542  0.00  0.00    -0.502 OA
BRANCH  14  16
ATOM     16  C3  <0> A   1     -31.047  -5.989  53.942  0.00  0.00    -0.052 C 
ATOM     17  C4  <0> A   1     -31.805  -4.711  53.577  0.00  0.00    +0.062 C 
ATOM     18  C5  <0> A   1     -31.461  -6.445  55.343  0.00  0.00    +0.061 C 
BRANCH  16  20
ATOM     19  C1  <0> A   1     -31.796  -8.358  53.672  0.00  0.00    +0.025 C 
ATOM     20  C2  <0> A   1     -31.379  -7.086  52.930  0.00  0.00    +0.036 C 
ENDBRANCH  16  20
ENDBRANCH  14  16
ENDBRANCH  13  14
ENDBRANCH   1  13
BRANCH   7  21
ATOM     21  C17 <0> A   1     -25.322  -4.717  50.906  0.00  0.00    +0.024 C 
BRANCH  21  22
ATOM     22  C18 <0> A   1     -24.471  -5.775  51.610  0.00  0.00    +0.078 C 
BRANCH  22  23
ATOM     23  C19 <0> A   1     -24.602  -7.109  50.871  0.00  0.00    +0.184 C 
ATOM     24  C20 <0> A   1     -23.945  -8.218  51.697  0.00  0.00    +0.044 C 
ATOM     25  C21 <0> A   1     -24.042  -9.544  50.936  0.00  0.00    +0.183 C 
ATOM     26  C22 <0> A   1     -23.331  -9.394  49.586  0.00  0.00    +0.011 C 
ATOM     27  C23 <0> A   1     -23.880  -8.165  48.893  0.00  0.00    +0.488 C 
ATOM     28  O4  <0> A   1     -24.242  -8.210  47.742  0.00  0.00    -0.447 OA
ATOM     29  O5  <0> A   1     -23.952  -7.018  49.600  0.00  0.00    -0.357 OA
BRANCH  25  30
ATOM     30  O6  <0> A   1     -25.415  -9.874  50.722  0.00  0.00    -0.562 OA
ATOM     31  H36 <0> A   1     -25.551 -10.651  50.164  0.00  0.00    +0.385 HD
ENDBRANCH  25  30
ENDBRANCH  22  23
ENDBRANCH  21  22
ENDBRANCH   7  21
BRANCH   3  32
ATOM     32  C25 <0> A   1     -28.584  -6.023  48.840  0.00  0.00    +0.095 C 
BRANCH  32  33
ATOM     33  S1  <0> A   1     -27.939  -7.632  49.373  0.00  0.00    -0.102 S 
BRANCH  33  34
ATOM     34  C26 <0> A   1     -29.385  -8.592  49.680  0.00  0.00    -0.100 A 
ATOM     35  C27 <0> A   1     -29.364  -9.593  50.644  0.00  0.00    -0.024 A 
ATOM     36  C28 <0> A   1     -30.499 -10.343  50.881  0.00  0.00    +0.026 A 
ATOM     37  C29 <0> A   1     -31.655 -10.100  50.162  0.00  0.00    +0.002 A 
ATOM     38  C30 <0> A   1     -31.678  -9.105  49.201  0.00  0.00    +0.028 A 
ATOM     39  C31 <0> A   1     -30.549  -8.347  48.962  0.00  0.00    +0.030 A 
ENDBRANCH  33  34
ENDBRANCH  32  33
ENDBRANCH   3  32
TORSDOF 11
ENDMDL
MODEL 7
REMARK VINA RESULT:      -7.9     16.176     20.090
REMARK  Name = CHEMBL82467
REMARK  16 active torsions:
REMARK  status: ('A' for Active; 'I' for Inactive)
REMARK    1  A    between atoms: C1_1  and  C2_2
REMARK    2  A    between atoms: C2_2  and  C3_3
REMARK    3  A    between atoms: C3_3  and  C4_4
REMARK    4  A    between atoms: C3_3  and  C5_5
REMARK    5  A    between atoms: C3_3  and  C6_6
REMARK    6  A    between atoms: C6_6  and  O2_8
REMARK    7  A    between atoms: O2_8  and  C7_9
REMARK    8  A    between atoms: C9_12  and  C24_35
REMARK    9  A    between atoms: C9_12  and  C25_36
REMARK   10  A    between atoms: C12_17  and  C17_24
REMARK   11  A    between atoms: C13_19  and  C16_23
REMARK   12  A    between atoms: C17_24  and  C18_25
REMARK   13  A    between atoms: C18_25  and  C19_26
REMARK   14  A    between atoms: C21_28  and  O6_34
REMARK   15  A    between atoms: C25_36  and  S1_37
REMARK   16  A    between atoms: S1_37  and  C26_38
REMARK                            x       y       z     vdW  Elec       q    Type
REMARK                         _______ _______ _______ _____ _____    ______ ____
ROOT
ATOM      1  C7  <0> A   1     -14.485   7.884  47.552  0.00  0.00    +0.187 C 
ATOM      2  C8  <0> A   1     -12.982   7.935  47.755  0.00  0.00    +0.020 C 
ATOM      3  C9  <0> A   1     -12.340   6.571  47.981  0.00  0.00    +0.156 C 
ATOM      4  O3  <0> A   1     -12.845   5.604  47.063  0.00  0.00    -0.345 OA
ATOM      5  C10 <0> A   1     -14.253   5.432  47.083  0.00  0.00    +0.161 C 
ATOM      6  C11 <0> A   1     -14.961   6.719  46.692  0.00  0.00    -0.013 C 
ATOM      7  C12 <0> A   1     -14.887   7.032  45.210  0.00  0.00    +0.001 C 
ATOM      8  C13 <0> A   1     -15.350   5.832  44.381  0.00  0.00    -0.013 C 
ATOM      9  C14 <0> A   1     -14.504   4.606  44.722  0.00  0.00    +0.007 C 
ATOM     10  C15 <0> A   1     -14.677   4.262  46.199  0.00  0.00    +0.041 C 
ATOM     11  C16 <0> A   1     -15.203   6.156  42.892  0.00  0.00    +0.018 C 
ATOM     12  C24 <0> A   1     -12.557   6.115  49.424  0.00  0.00    +0.042 C 
ENDROOT
BRANCH   1  13
ATOM     13  O2  <0> A   1     -15.145   7.833  48.825  0.00  0.00    -0.346 OA
BRANCH  13  14
ATOM     14  C6  <0> A   1     -16.409   8.282  48.876  0.00  0.00    +0.469 C 
ATOM     15  O1  <0> A   1     -16.646   9.446  48.656  0.00  0.00    -0.502 OA
BRANCH  14  16
ATOM     16  C3  <0> A   1     -17.534   7.334  49.204  0.00  0.00    -0.052 C 
ATOM     17  C4  <0> A   1     -18.476   7.992  50.214  0.00  0.00    +0.062 C 
ATOM     18  C5  <0> A   1     -16.960   6.049  49.804  0.00  0.00    +0.061 C 
BRANCH  16  20
ATOM     19  C1  <0> A   1     -19.714   6.520  48.294  0.00  0.00    +0.025 C 
ATOM     20  C2  <0> A   1     -18.308   7.000  47.927  0.00  0.00    +0.036 C 
ENDBRANCH  16  20
ENDBRANCH  14  16
ENDBRANCH  13  14
ENDBRANCH   1  13
BRANCH   7  21
ATOM     21  C17 <0> A   1     -13.492   7.451  44.755  0.00  0.00    +0.024 C 
BRANCH  21  22
ATOM     22  C18 <0> A   1     -13.515   8.920  44.329  0.00  0.00    +0.078 C 
BRANCH  22  23
ATOM     23  C19 <0> A   1     -12.877   9.060  42.946  0.00  0.00    +0.184 C 
ATOM     24  C20 <0> A   1     -13.609  10.145  42.152  0.00  0.00    +0.044 C 
ATOM     25  C21 <0> A   1     -12.994  10.253  40.753  0.00  0.00    +0.183 C 
ATOM     26  C22 <0> A   1     -13.124   8.898  40.047  0.00  0.00    +0.011 C 
ATOM     27  C23 <0> A   1     -12.563   7.830  40.962  0.00  0.00    +0.488 C 
ATOM     28  O4  <0> A   1     -11.771   7.015  40.552  0.00  0.00    -0.447 OA
ATOM     29  O5  <0> A   1     -12.974   7.815  42.246  0.00  0.00    -0.357 OA
BRANCH  25  30
ATOM     30  O6  <0> A   1     -11.614  10.607  40.863  0.00  0.00    -0.562 OA
ATOM     31  H36 <0> A   1     -11.021   9.851  40.966  0.00  0.00    +0.385 HD
ENDBRANCH  25  30
ENDBRANCH  22  23
ENDBRANCH  21  22
ENDBRANCH   7  21
BRANCH   3  32
ATOM     32  C25 <0> A   1     -10.823   6.705  47.745  0.00  0.00    +0.095 C 
BRANCH  32  33
ATOM     33  S1  <0> A   1      -9.989   5.197  48.310  0.00  0.00    -0.102 S 
BRANCH  33  34
ATOM     34  C26 <0> A   1      -8.756   4.906  47.086  0.00  0.00    -0.100 A 
ATOM     35  C27 <0> A   1      -8.239   3.628  46.909  0.00  0.00    -0.024 A 
ATOM     36  C28 <0> A   1      -7.273   3.403  45.949  0.00  0.00    +0.026 A 
ATOM     37  C29 <0> A   1      -6.820   4.447  45.163  0.00  0.00    +0.002 A 
ATOM     38  C30 <0> A   1      -7.332   5.720  45.337  0.00  0.00    +0.028 A 
ATOM     39  C31 <0> A   1      -8.303   5.951  46.291  0.00  0.00    +0.030 A 
ENDBRANCH  33  34
ENDBRANCH  32  33
ENDBRANCH   3  32
TORSDOF 11
ENDMDL
MODEL 8
REMARK VINA RESULT:      -7.8      5.937      9.495
REMARK  Name = CHEMBL82467
REMARK  16 active torsions:
REMARK  status: ('A' for Active; 'I' for Inactive)
REMARK    1  A    between atoms: C1_1  and  C2_2
REMARK    2  A    between atoms: C2_2  and  C3_3
REMARK    3  A    between atoms: C3_3  and  C4_4
REMARK    4  A    between atoms: C3_3  and  C5_5
REMARK    5  A    between atoms: C3_3  and  C6_6
REMARK    6  A    between atoms: C6_6  and  O2_8
REMARK    7  A    between atoms: O2_8  and  C7_9
REMARK    8  A    between atoms: C9_12  and  C24_35
REMARK    9  A    between atoms: C9_12  and  C25_36
REMARK   10  A    between atoms: C12_17  and  C17_24
REMARK   11  A    between atoms: C13_19  and  C16_23
REMARK   12  A    between atoms: C17_24  and  C18_25
REMARK   13  A    between atoms: C18_25  and  C19_26
REMARK   14  A    between atoms: C21_28  and  O6_34
REMARK   15  A    between atoms: C25_36  and  S1_37
REMARK   16  A    between atoms: S1_37  and  C26_38
REMARK                            x       y       z     vdW  Elec       q    Type
REMARK                         _______ _______ _______ _____ _____    ______ ____
ROOT
ATOM      1  C7  <0> A   1     -21.847  -1.576  52.514  0.00  0.00    +0.187 C 
ATOM      2  C8  <0> A   1     -22.616  -1.510  51.207  0.00  0.00    +0.020 C 
ATOM      3  C9  <0> A   1     -24.123  -1.675  51.366  0.00  0.00    +0.156 C 
ATOM      4  O3  <0> A   1     -24.616  -0.901  52.457  0.00  0.00    -0.345 OA
ATOM      5  C10 <0> A   1     -24.012  -1.176  53.712  0.00  0.00    +0.161 C 
ATOM      6  C11 <0> A   1     -22.525  -0.863  53.676  0.00  0.00    -0.013 C 
ATOM      7  C12 <0> A   1     -22.212   0.621  53.701  0.00  0.00    +0.001 C 
ATOM      8  C13 <0> A   1     -22.929   1.306  54.867  0.00  0.00    -0.013 C 
ATOM      9  C14 <0> A   1     -24.434   1.069  54.763  0.00  0.00    +0.007 C 
ATOM     10  C15 <0> A   1     -24.721  -0.428  54.838  0.00  0.00    +0.041 C 
ATOM     11  C16 <0> A   1     -22.643   2.810  54.825  0.00  0.00    +0.018 C 
ATOM     12  C24 <0> A   1     -24.479  -3.151  51.544  0.00  0.00    +0.042 C 
ENDROOT
BRANCH   1  13
ATOM     13  O2  <0> A   1     -21.614  -2.947  52.871  0.00  0.00    -0.346 OA
BRANCH  13  14
ATOM     14  C6  <0> A   1     -20.346  -3.383  52.822  0.00  0.00    +0.469 C 
ATOM     15  O1  <0> A   1     -19.843  -3.663  51.760  0.00  0.00    -0.502 OA
BRANCH  14  16
ATOM     16  C3  <0> A   1     -19.547  -3.522  54.093  0.00  0.00    -0.052 C 
ATOM     17  C4  <0> A   1     -20.498  -3.537  55.292  0.00  0.00    +0.062 C 
ATOM     18  C5  <0> A   1     -18.582  -2.342  54.222  0.00  0.00    +0.061 C 
BRANCH  16  20
ATOM     19  C1  <0> A   1     -17.285  -4.544  54.378  0.00  0.00    +0.025 C 
ATOM     20  C2  <0> A   1     -18.753  -4.829  54.056  0.00  0.00    +0.036 C 
ENDBRANCH  16  20
ENDBRANCH  14  16
ENDBRANCH  13  14
ENDBRANCH   1  13
BRANCH   7  21
ATOM     21  C17 <0> A   1     -22.573   1.331  52.399  0.00  0.00    +0.024 C 
BRANCH  21  22
ATOM     22  C18 <0> A   1     -21.294   1.706  51.651  0.00  0.00    +0.078 C 
BRANCH  22  23
ATOM     23  C19 <0> A   1     -21.490   3.050  50.945  0.00  0.00    +0.184 C 
ATOM     24  C20 <0> A   1     -20.209   3.427  50.197  0.00  0.00    +0.044 C 
ATOM     25  C21 <0> A   1     -20.396   4.792  49.526  0.00  0.00    +0.183 C 
ATOM     26  C22 <0> A   1     -20.708   5.836  50.605  0.00  0.00    +0.011 C 
ATOM     27  C23 <0> A   1     -21.858   5.322  51.445  0.00  0.00    +0.488 C 
ATOM     28  O4  <0> A   1     -22.812   6.023  51.687  0.00  0.00    -0.447 OA
ATOM     29  O5  <0> A   1     -21.786   4.060  51.916  0.00  0.00    -0.357 OA
BRANCH  25  30
ATOM     30  O6  <0> A   1     -21.478   4.724  48.596  0.00  0.00    -0.562 OA
ATOM     31  H36 <0> A   1     -22.195   4.137  48.869  0.00  0.00    +0.385 HD
ENDBRANCH  25  30
ENDBRANCH  22  23
ENDBRANCH  21  22
ENDBRANCH   7  21
BRANCH   3  32
ATOM     32  C25 <0> A   1     -24.804  -1.171  50.079  0.00  0.00    +0.095 C 
BRANCH  32  33
ATOM     33  S1  <0> A   1     -26.477  -1.863  49.971  0.00  0.00    -0.102 S 
BRANCH  33  34
ATOM     34  C26 <0> A   1     -27.513  -0.572  50.576  0.00  0.00    -0.100 A 
ATOM     35  C27 <0> A   1     -28.640  -0.880  51.329  0.00  0.00    -0.024 A 
ATOM     36  C28 <0> A   1     -29.449   0.134  51.802  0.00  0.00    +0.026 A 
ATOM     37  C29 <0> A   1     -29.140   1.453  51.528  0.00  0.00    +0.002 A 
ATOM     38  C30 <0> A   1     -28.020   1.763  50.777  0.00  0.00    +0.028 A 
ATOM     39  C31 <0> A   1     -27.202   0.755  50.306  0.00  0.00    +0.030 A 
ENDBRANCH  33  34
ENDBRANCH  32  33
ENDBRANCH   3  32
TORSDOF 11
ENDMDL
MODEL 9
REMARK VINA RESULT:      -7.8     17.554     21.172
REMARK  Name = CHEMBL82467
REMARK  16 active torsions:
REMARK  status: ('A' for Active; 'I' for Inactive)
REMARK    1  A    between atoms: C1_1  and  C2_2
REMARK    2  A    between atoms: C2_2  and  C3_3
REMARK    3  A    between atoms: C3_3  and  C4_4
REMARK    4  A    between atoms: C3_3  and  C5_5
REMARK    5  A    between atoms: C3_3  and  C6_6
REMARK    6  A    between atoms: C6_6  and  O2_8
REMARK    7  A    between atoms: O2_8  and  C7_9
REMARK    8  A    between atoms: C9_12  and  C24_35
REMARK    9  A    between atoms: C9_12  and  C25_36
REMARK   10  A    between atoms: C12_17  and  C17_24
REMARK   11  A    between atoms: C13_19  and  C16_23
REMARK   12  A    between atoms: C17_24  and  C18_25
REMARK   13  A    between atoms: C18_25  and  C19_26
REMARK   14  A    between atoms: C21_28  and  O6_34
REMARK   15  A    between atoms: C25_36  and  S1_37
REMARK   16  A    between atoms: S1_37  and  C26_38
REMARK                            x       y       z     vdW  Elec       q    Type
REMARK                         _______ _______ _______ _____ _____    ______ ____
ROOT
ATOM      1  C7  <0> A   1     -12.976   9.352  48.942  0.00  0.00    +0.187 C 
ATOM      2  C8  <0> A   1     -13.840   8.114  49.105  0.00  0.00    +0.020 C 
ATOM      3  C9  <0> A   1     -15.327   8.412  49.263  0.00  0.00    +0.156 C 
ATOM      4  O3  <0> A   1     -15.759   9.396  48.326  0.00  0.00    -0.345 OA
ATOM      5  C10 <0> A   1     -15.059  10.629  48.379  0.00  0.00    +0.161 C 
ATOM      6  C11 <0> A   1     -13.587  10.429  48.055  0.00  0.00    -0.013 C 
ATOM      7  C12 <0> A   1     -13.313  10.185  46.583  0.00  0.00    +0.001 C 
ATOM      8  C13 <0> A   1     -13.961  11.273  45.725  0.00  0.00    -0.013 C 
ATOM      9  C14 <0> A   1     -15.464  11.325  45.997  0.00  0.00    +0.007 C 
ATOM     10  C15 <0> A   1     -15.704  11.667  47.465  0.00  0.00    +0.041 C 
ATOM     11  C16 <0> A   1     -13.720  10.963  44.245  0.00  0.00    +0.018 C 
ATOM     12  C24 <0> A   1     -15.630   8.857  50.694  0.00  0.00    +0.042 C 
ENDROOT
BRANCH   1  13
ATOM     13  O2  <0> A   1     -12.682   9.911  50.231  0.00  0.00    -0.346 OA
BRANCH  13  14
ATOM     14  C6  <0> A   1     -11.391   9.955  50.596  0.00  0.00    +0.469 C 
ATOM     15  O1  <0> A   1     -10.724   8.949  50.582  0.00  0.00    -0.502 OA
BRANCH  14  16
ATOM     16  C3  <0> A   1     -10.773  11.263  51.022  0.00  0.00    -0.052 C 
ATOM     17  C4  <0> A   1     -11.161  11.560  52.472  0.00  0.00    +0.062 C 
ATOM     18  C5  <0> A   1     -11.282  12.387  50.117  0.00  0.00    +0.061 C 
BRANCH  16  20
ATOM     19  C1  <0> A   1      -8.620  11.459  52.274  0.00  0.00    +0.025 C 
ATOM     20  C2  <0> A   1      -9.251  11.167  50.911  0.00  0.00    +0.036 C 
ENDBRANCH  16  20
ENDBRANCH  14  16
ENDBRANCH  13  14
ENDBRANCH   1  13
BRANCH   7  21
ATOM     21  C17 <0> A   1     -13.787   8.816  46.105  0.00  0.00    +0.024 C 
BRANCH  21  22
ATOM     22  C18 <0> A   1     -12.579   7.900  45.903  0.00  0.00    +0.078 C 
BRANCH  22  23
ATOM     23  C19 <0> A   1     -12.576   7.368  44.468  0.00  0.00    +0.184 C 
ATOM     24  C20 <0> A   1     -11.554   8.147  43.636  0.00  0.00    +0.044 C 
ATOM     25  C21 <0> A   1     -11.583   7.641  42.191  0.00  0.00    +0.183 C 
ATOM     26  C22 <0> A   1     -12.993   7.840  41.624  0.00  0.00    +0.011 C 
ATOM     27  C23 <0> A   1     -13.985   7.222  42.586  0.00  0.00    +0.488 C 
ATOM     28  O4  <0> A   1     -14.848   6.473  42.194  0.00  0.00    -0.447 OA
ATOM     29  O5  <0> A   1     -13.877   7.533  43.894  0.00  0.00    -0.357 OA
BRANCH  25  30
ATOM     30  O6  <0> A   1     -11.245   6.252  42.164  0.00  0.00    -0.562 OA
ATOM     31  H36 <0> A   1     -10.689   5.997  41.416  0.00  0.00    +0.385 HD
ENDBRANCH  25  30
ENDBRANCH  22  23
ENDBRANCH  21  22
ENDBRANCH   7  21
BRANCH   3  32
ATOM     32  C25 <0> A   1     -16.113   7.116  48.989  0.00  0.00    +0.095 C 
BRANCH  32  33
ATOM     33  S1  <0> A   1     -16.960   7.250  47.391  0.00  0.00    -0.102 S 
BRANCH  33  34
ATOM     34  C26 <0> A   1     -16.179   6.028  46.390  0.00  0.00    -0.100 A 
ATOM     35  C27 <0> A   1     -15.025   5.395  46.838  0.00  0.00    -0.024 A 
ATOM     36  C28 <0> A   1     -14.416   4.438  46.051  0.00  0.00    +0.026 A 
ATOM     37  C29 <0> A   1     -14.952   4.108  44.819  0.00  0.00    +0.002 A 
ATOM     38  C30 <0> A   1     -16.099   4.737  44.371  0.00  0.00    +0.028 A 
ATOM     39  C31 <0> A   1     -16.718   5.691  45.155  0.00  0.00    +0.030 A 
ENDBRANCH  33  34
ENDBRANCH  32  33
ENDBRANCH   3  32
TORSDOF 11
ENDMDL
MODEL 10
REMARK VINA RESULT:      -7.8     17.374     22.909
REMARK  Name = CHEMBL82467
REMARK  16 active torsions:
REMARK  status: ('A' for Active; 'I' for Inactive)
REMARK    1  A    between atoms: C1_1  and  C2_2
REMARK    2  A    between atoms: C2_2  and  C3_3
REMARK    3  A    between atoms: C3_3  and  C4_4
REMARK    4  A    between atoms: C3_3  and  C5_5
REMARK    5  A    between atoms: C3_3  and  C6_6
REMARK    6  A    between atoms: C6_6  and  O2_8
REMARK    7  A    between atoms: O2_8  and  C7_9
REMARK    8  A    between atoms: C9_12  and  C24_35
REMARK    9  A    between atoms: C9_12  and  C25_36
REMARK   10  A    between atoms: C12_17  and  C17_24
REMARK   11  A    between atoms: C13_19  and  C16_23
REMARK   12  A    between atoms: C17_24  and  C18_25
REMARK   13  A    between atoms: C18_25  and  C19_26
REMARK   14  A    between atoms: C21_28  and  O6_34
REMARK   15  A    between atoms: C25_36  and  S1_37
REMARK   16  A    between atoms: S1_37  and  C26_38
REMARK                            x       y       z     vdW  Elec       q    Type
REMARK                         _______ _______ _______ _____ _____    ______ ____
ROOT
ATOM      1  C7  <0> A   1     -13.215  10.309  44.929  0.00  0.00    +0.187 C 
ATOM      2  C8  <0> A   1     -12.016  10.558  45.825  0.00  0.00    +0.020 C 
ATOM      3  C9  <0> A   1     -12.209  11.700  46.816  0.00  0.00    +0.156 C 
ATOM      4  O3  <0> A   1     -13.490  11.633  47.438  0.00  0.00    -0.345 OA
ATOM      5  C10 <0> A   1     -14.594  11.638  46.547  0.00  0.00    +0.161 C 
ATOM      6  C11 <0> A   1     -14.559  10.421  45.637  0.00  0.00    -0.013 C 
ATOM      7  C12 <0> A   1     -14.953   9.130  46.327  0.00  0.00    +0.001 C 
ATOM      8  C13 <0> A   1     -16.296   9.289  47.045  0.00  0.00    -0.013 C 
ATOM      9  C14 <0> A   1     -16.217  10.440  48.047  0.00  0.00    +0.007 C 
ATOM     10  C15 <0> A   1     -15.913  11.740  47.306  0.00  0.00    +0.041 C 
ATOM     11  C16 <0> A   1     -16.634   7.990  47.784  0.00  0.00    +0.018 C 
ATOM     12  C24 <0> A   1     -12.014  13.046  46.120  0.00  0.00    +0.042 C 
ENDROOT
BRANCH   1  13
ATOM     13  O2  <0> A   1     -13.187  11.219  43.819  0.00  0.00    -0.346 OA
BRANCH  13  14
ATOM     14  C6  <0> A   1     -12.690  10.755  42.661  0.00  0.00    +0.469 C 
ATOM     15  O1  <0> A   1     -11.517  10.481  42.574  0.00  0.00    -0.502 OA
BRANCH  14  16
ATOM     16  C3  <0> A   1     -13.597  10.573  41.471  0.00  0.00    -0.052 C 
ATOM     17  C4  <0> A   1     -14.901  11.339  41.703  0.00  0.00    +0.062 C 
ATOM     18  C5  <0> A   1     -13.906   9.086  41.286  0.00  0.00    +0.061 C 
BRANCH  16  20
ATOM     19  C1  <0> A   1     -12.683   9.965  39.226  0.00  0.00    +0.025 C 
ATOM     20  C2  <0> A   1     -12.906  11.110  40.217  0.00  0.00    +0.036 C 
ENDBRANCH  16  20
ENDBRANCH  14  16
ENDBRANCH  13  14
ENDBRANCH   1  13
BRANCH   7  21
ATOM     21  C17 <0> A   1     -13.905   8.638  47.321  0.00  0.00    +0.024 C 
BRANCH  21  22
ATOM     22  C18 <0> A   1     -13.180   7.424  46.738  0.00  0.00    +0.078 C 
BRANCH  22  23
ATOM     23  C19 <0> A   1     -14.154   6.609  45.884  0.00  0.00    +0.184 C 
ATOM     24  C20 <0> A   1     -14.434   5.268  46.567  0.00  0.00    +0.044 C 
ATOM     25  C21 <0> A   1     -15.377   4.438  45.689  0.00  0.00    +0.183 C 
ATOM     26  C22 <0> A   1     -14.715   4.213  44.324  0.00  0.00    +0.011 C 
ATOM     27  C23 <0> A   1     -14.277   5.557  43.780  0.00  0.00    +0.488 C 
ATOM     28  O4  <0> A   1     -14.547   5.887  42.650  0.00  0.00    -0.447 OA
ATOM     29  O5  <0> A   1     -13.578   6.373  44.595  0.00  0.00    -0.357 OA
BRANCH  25  30
ATOM     30  O6  <0> A   1     -16.610   5.139  45.515  0.00  0.00    -0.562 OA
ATOM     31  H36 <0> A   1     -17.205   5.083  46.275  0.00  0.00    +0.385 HD
ENDBRANCH  25  30
ENDBRANCH  22  23
ENDBRANCH  21  22
ENDBRANCH   7  21
BRANCH   3  32
ATOM     32  C25 <0> A   1     -11.138  11.572  47.917  0.00  0.00    +0.095 C 
BRANCH  32  33
ATOM     33  S1  <0> A   1     -11.626  12.567  49.352  0.00  0.00    -0.102 S 
BRANCH  33  34
ATOM     34  C26 <0> A   1     -10.418  12.176  50.574  0.00  0.00    -0.100 A 
ATOM     35  C27 <0> A   1      -9.889  13.181  51.376  0.00  0.00    -0.024 A 
ATOM     36  C28 <0> A   1      -8.942  12.871  52.332  0.00  0.00    +0.026 A 
ATOM     37  C29 <0> A   1      -8.520  11.564  52.493  0.00  0.00    +0.002 A 
ATOM     38  C30 <0> A   1      -9.044  10.562  51.696  0.00  0.00    +0.028 A 
ATOM     39  C31 <0> A   1      -9.996  10.864  50.741  0.00  0.00    +0.030 A 
ENDBRANCH  33  34
ENDBRANCH  32  33
ENDBRANCH   3  32
TORSDOF 11
ENDMDL
