REMARK VINA RESULT:      -8.2      0.000      0.000
REMARK  Name = CHEMBL250180
REMARK  17 active torsions:
REMARK  status: ('A' for Active; 'I' for Inactive)
REMARK    1  A    between atoms: C1_1  and  C2_2
REMARK    2  A    between atoms: C2_2  and  C3_3
REMARK    3  A    between atoms: C2_2  and  C4_4
REMARK    4  A    between atoms: C5_5  and  C19_29
REMARK    5  A    between atoms: N2_7  and  C13_22
REMARK    6  A    between atoms: C6_8  and  O1_9
REMARK    7  A    between atoms: O1_9  and  C7_10
REMARK    8  A    between atoms: C7_10  and  C8_11
REMARK    9  A    between atoms: C8_11  and  C9_13
REMARK   10  A    between atoms: C8_11  and  O5_21
REMARK   11  A    between atoms: C9_13  and  C10_14
REMARK   12  A    between atoms: C10_14  and  C11_16
REMARK   13  A    between atoms: C10_14  and  O4_20
REMARK   14  A    between atoms: C11_16  and  C12_17
REMARK   15  A    between atoms: N3_31  and  C20_32
REMARK   16  A    between atoms: C20_32  and  C21_33
REMARK   17  A    between atoms: C21_33  and  C22_34
REMARK                            x       y       z     vdW  Elec       q    Type
REMARK                         _______ _______ _______ _____ _____    ______ ____
ROOT
ATOM      1  C4  <0> A   1     -15.368   6.748  45.796  0.00  0.00    -0.161 C 
ATOM      2  C5  <0> A   1     -16.282   7.331  46.698  0.00  0.00    +0.044 C 
ATOM      3  N1  <0> A   1     -15.867   8.554  46.969  0.00  0.00    -0.238 NA
ATOM      4  N2  <0> A   1     -14.685   8.784  46.252  0.00  0.00    -0.318 N 
ATOM      5  C6  <0> A   1     -14.397   7.658  45.543  0.00  0.00    +0.260 C 
ENDROOT
BRANCH   4   6
ATOM      6  C13 <0> A   1     -13.930   9.964  46.267  0.00  0.00    +0.126 A 
ATOM      7  C14 <0> A   1     -14.241  11.000  45.397  0.00  0.00    +0.064 A 
ATOM      8  C15 <0> A   1     -13.495  12.162  45.413  0.00  0.00    +0.005 A 
ATOM      9  C16 <0> A   1     -12.435  12.293  46.295  0.00  0.00    +0.106 A 
ATOM     10  C17 <0> A   1     -12.122  11.260  47.164  0.00  0.00    +0.020 A 
ATOM     11  C18 <0> A   1     -12.871  10.099  47.155  0.00  0.00    +0.073 A 
ATOM     12  F1  <0> A   1     -11.705  13.430  46.310  0.00  0.00    -0.133 F 
ENDBRANCH   4   6
BRANCH   2  13
ATOM     13  C19 <0> A   1     -17.494   6.686  47.244  0.00  0.00    +0.605 C 
ATOM     14  O6  <0> A   1     -18.541   6.740  46.629  0.00  0.00    -0.514 OA
ATOM     15  N3  <0> A   1     -17.438   6.039  48.425  0.00  0.00    -0.718 N 
ATOM     16  H22 <0> A   1     -16.603   5.997  48.916  0.00  0.00    +0.408 HD
BRANCH  15  17
ATOM     17  C20 <0> A   1     -18.639   5.400  48.967  0.00  0.00    +0.273 C 
BRANCH  17  18
ATOM     18  C21 <0> A   1     -18.241   4.423  50.076  0.00  0.00    +0.070 C 
BRANCH  18  19
ATOM     19  C22 <0> A   1     -19.456   3.655  50.529  0.00  0.00    -0.083 A 
ATOM     20  C23 <0> A   1     -20.654   3.795  49.854  0.00  0.00    +0.009 A 
ATOM     21  C24 <0> A   1     -21.768   3.091  50.269  0.00  0.00    +0.004 A 
ATOM     22  C25 <0> A   1     -21.684   2.244  51.359  0.00  0.00    -0.000 A 
ATOM     23  C26 <0> A   1     -20.486   2.103  52.034  0.00  0.00    +0.004 A 
ATOM     24  C27 <0> A   1     -19.371   2.805  51.615  0.00  0.00    +0.009 A 
ENDBRANCH  18  19
ENDBRANCH  17  18
ENDBRANCH  15  17
ENDBRANCH   2  13
BRANCH   1  26
ATOM     25  C1  <0> A   1     -15.725   5.444  43.717  0.00  0.00    +0.029 C 
ATOM     26  C2  <0> A   1     -15.454   5.357  45.219  0.00  0.00    +0.077 C 
ATOM     27  C3  <0> A   1     -14.132   4.625  45.458  0.00  0.00    +0.021 C 
ENDBRANCH   1  26
BRANCH   5  28
ATOM     28  O1  <0> A   1     -13.326   7.481  44.726  0.00  0.00    -0.282 OA
BRANCH  28  29
ATOM     29  C7  <0> A   1     -13.424   8.013  43.404  0.00  0.00    +0.155 C 
BRANCH  29  30
ATOM     30  C8  <0> A   1     -12.266   7.485  42.554  0.00  0.00    +0.232 C 
BRANCH  30  31
ATOM     31  O5  <0> A   1     -12.328   6.058  42.499  0.00  0.00    -0.529 OA
ATOM     32  H17 <0> A   1     -12.791   5.656  43.247  0.00  0.00    +0.363 HD
ENDBRANCH  30  31
BRANCH  30  33
ATOM     33  C9  <0> A   1     -12.370   8.056  41.139  0.00  0.00    -0.040 C 
BRANCH  33  34
ATOM     34  C10 <0> A   1     -12.912   9.485  41.204  0.00  0.00    +0.237 C 
BRANCH  34  35
ATOM     35  O4  <0> A   1     -11.820  10.408  41.220  0.00  0.00    -0.526 OA
ATOM     36  H16 <0> A   1     -11.607  10.750  42.099  0.00  0.00    +0.350 HD
ENDBRANCH  34  35
BRANCH  34  37
ATOM     37  C11 <0> A   1     -13.788   9.755  39.979  0.00  0.00    -0.101 C 
BRANCH  37  38
ATOM     38  C12 <0> A   1     -13.896  11.241  39.756  0.00  0.00    +0.491 C 
ATOM     39  O2  <0> A   1     -14.598  11.918  40.488  0.00  0.00    -0.680 OA
ATOM     40  O3  <0> A   1     -13.280  11.768  38.845  0.00  0.00    -0.712 OA
ENDBRANCH  37  38
ENDBRANCH  34  37
ENDBRANCH  33  34
ENDBRANCH  30  33
ENDBRANCH  29  30
ENDBRANCH  28  29
ENDBRANCH   5  28
TORSDOF 15
