REMARK  Name = CHEMBL142436
REMARK  13 active torsions:
REMARK  status: ('A' for Active; 'I' for Inactive)
REMARK    1  A    between atoms: C1_1  and  C2_2
REMARK    2  A    between atoms: C4_4  and  C17_24
REMARK    3  A    between atoms: C5_5  and  C10_12
REMARK    4  A    between atoms: C6_6  and  C7_9
REMARK    5  A    between atoms: C7_9  and  C8_10
REMARK    6  A    between atoms: C7_9  and  C9_11
REMARK    7  A    between atoms: C11_13  and  C12_14
REMARK    8  A    between atoms: C12_14  and  C13_15
REMARK    9  A    between atoms: C12_14  and  O5_23
REMARK   10  A    between atoms: C13_15  and  C14_16
REMARK   11  A    between atoms: C14_16  and  C15_18
REMARK   12  A    between atoms: C14_16  and  O4_22
REMARK   13  A    between atoms: C15_18  and  C16_19
REMARK                            x       y       z     vdW  Elec       q    Type
REMARK                         _______ _______ _______ _____ _____    ______ ____
ROOT
ATOM      1  C1  <0> A   1      -0.018   1.503   0.010  0.00  0.00    +0.156 C 
ATOM      2  C2  <0> A   1       0.002  -0.004   0.002  0.00  0.00    +0.101 A 
ATOM      3  C3  <0> A   1       0.005  -0.675  -1.204  0.00  0.00    +0.042 A 
ATOM      4  C4  <0> A   1       0.025  -2.071  -1.206  0.00  0.00    +0.005 A 
ATOM      5  C5  <0> A   1       0.040  -2.737   0.037  0.00  0.00    -0.041 A 
ATOM      6  C6  <0> A   1       0.035  -1.976   1.205  0.00  0.00    +0.125 A 
ATOM      7  N1  <0> A   1       0.022  -0.659   1.149  0.00  0.00    -0.114 N 
ATOM      8  O1  <0> A   1       0.023   0.078   2.358  0.00  0.00    -0.533 OA
ENDROOT
BRANCH   4   9
ATOM      9  C17 <0> A   1       0.029  -2.831  -2.478  0.00  0.00    -0.073 A 
ATOM     10  C18 <0> A   1       0.962  -3.847  -2.683  0.00  0.00    +0.083 A 
ATOM     11  C19 <0> A   1       0.962  -4.552  -3.868  0.00  0.00    -0.008 A 
ATOM     12  C20 <0> A   1       0.035  -4.253  -4.854  0.00  0.00    +0.114 A 
ATOM     13  C21 <0> A   1      -0.894  -3.245  -4.655  0.00  0.00    -0.014 A 
ATOM     14  C22 <0> A   1      -0.905  -2.538  -3.471  0.00  0.00    +0.064 A 
ATOM     15  F1  <0> A   1       0.039  -4.947  -6.014  0.00  0.00    -0.135 F 
ENDBRANCH   4   9
BRANCH   6  16
ATOM     16  C7  <0> A   1       0.052  -2.666   2.545  0.00  0.00    +0.055 C 
ATOM     17  C8  <0> A   1       1.299  -2.241   3.322  0.00  0.00    +0.044 C 
ATOM     18  C9  <0> A   1      -1.199  -2.275   3.334  0.00  0.00    +0.044 C 
ENDBRANCH   6  16
BRANCH   5  19
ATOM     19  C10 <0> A   1       0.061  -4.211   0.101  0.00  0.00    +0.002 C 
ATOM     20  C11 <0> A   1      -0.814  -4.918  -0.605  0.00  0.00    -0.015 C 
BRANCH  20  21
ATOM     21  C12 <0> A   1      -0.793  -6.423  -0.540  0.00  0.00    +0.253 C 
BRANCH  21  22
ATOM     22  O5  <0> A   1       0.171  -6.845   0.427  0.00  0.00    -0.536 OA
ATOM     23  H21 <0> A   1      -0.004  -6.524   1.323  0.00  0.00    +0.367 HD
ENDBRANCH  21  22
BRANCH  21  24
ATOM     24  C13 <0> A   1      -2.177  -6.936  -0.138  0.00  0.00    -0.040 C 
BRANCH  24  25
ATOM     25  C14 <0> A   1      -2.191  -8.465  -0.193  0.00  0.00    +0.232 C 
BRANCH  25  26
ATOM     26  O4  <0> A   1      -1.295  -8.985   0.791  0.00  0.00    -0.528 OA
ATOM     27  H20 <0> A   1      -1.515  -8.730   1.697  0.00  0.00    +0.351 HD
ENDBRANCH  25  26
BRANCH  25  28
ATOM     28  C15 <0> A   1      -3.607  -8.972   0.087  0.00  0.00    -0.101 C 
BRANCH  28  29
ATOM     29  C16 <0> A   1      -3.648 -10.469  -0.088  0.00  0.00    +0.491 C 
ATOM     30  O2  <0> A   1      -2.638 -11.073  -0.407  0.00  0.00    -0.681 OA
ATOM     31  O3  <0> A   1      -4.691 -11.075   0.090  0.00  0.00    -0.712 OA
ENDBRANCH  28  29
ENDBRANCH  25  28
ENDBRANCH  24  25
ENDBRANCH  21  24
ENDBRANCH  20  21
ENDBRANCH   5  19
TORSDOF 10
