REMARK VINA RESULT:      -7.8      2.563      4.741
REMARK  Name = CHEMBL466326
REMARK  14 active torsions:
REMARK  status: ('A' for Active; 'I' for Inactive)
REMARK    1  A    between atoms: C1_1  and  C2_2
REMARK    2  A    between atoms: C2_2  and  C3_3
REMARK    3  A    between atoms: C2_2  and  C4_4
REMARK    4  A    between atoms: C5_5  and  C18_25
REMARK    5  A    between atoms: C6_6  and  C12_18
REMARK    6  A    between atoms: N3_10  and  C8_11
REMARK    7  A    between atoms: N6_16  and  C11_17
REMARK    8  A    between atoms: C19_26  and  C20_27
REMARK    9  A    between atoms: C20_27  and  C21_29
REMARK   10  A    between atoms: C20_27  and  O4_37
REMARK   11  A    between atoms: C21_29  and  C22_30
REMARK   12  A    between atoms: C22_30  and  C23_32
REMARK   13  A    between atoms: C22_30  and  O3_36
REMARK   14  A    between atoms: C23_32  and  C24_33
REMARK                            x       y       z     vdW  Elec       q    Type
REMARK                         _______ _______ _______ _____ _____    ______ ____
ROOT
ATOM      1  C4  <0> A   1     -15.825  10.145  47.612  0.00  0.00    +0.238 A 
ATOM      2  C5  <0> A   1     -15.385   9.098  46.796  0.00  0.00    -0.181 A 
ATOM      3  C6  <0> A   1     -15.708   7.779  47.174  0.00  0.00    +0.268 A 
ATOM      4  N1  <0> A   1     -16.414   7.585  48.285  0.00  0.00    -0.550 NA
ATOM      5  C7  <0> A   1     -16.807   8.609  49.024  0.00  0.00    +0.570 A 
ATOM      6  N2  <0> A   1     -16.517   9.862  48.702  0.00  0.00    -0.545 NA
ATOM      7  N3  <0> A   1     -17.541   8.364  50.174  0.00  0.00    -0.517 N 
ATOM      8  C8  <0> A   1     -17.988   9.482  51.009  0.00  0.00    +0.343 C 
ATOM      9  C9  <0> A   1     -17.851   7.063  50.534  0.00  0.00    +0.517 C 
ATOM     10  N4  <0> A   1     -17.173   6.309  51.373  0.00  0.00    -0.527 NA
ATOM     11  C10 <0> A   1     -17.761   5.117  51.480  0.00  0.00    +0.429 C 
ATOM     12  N5  <0> A   1     -18.819   5.090  50.715  0.00  0.00    -0.304 NA
ATOM     13  N6  <0> A   1     -18.905   6.346  50.092  0.00  0.00    -0.368 N 
ATOM     14  C11 <0> A   1     -19.933   6.788  49.146  0.00  0.00    +0.360 C 
ENDROOT
BRANCH   3  15
ATOM     15  C12 <0> A   1     -15.269   6.630  46.349  0.00  0.00    -0.075 A 
ATOM     16  C13 <0> A   1     -14.101   5.941  46.676  0.00  0.00    +0.098 A 
ATOM     17  C14 <0> A   1     -13.696   4.871  45.904  0.00  0.00    -0.015 A 
ATOM     18  C15 <0> A   1     -14.447   4.482  44.806  0.00  0.00    +0.122 A 
ATOM     19  C16 <0> A   1     -15.608   5.164  44.478  0.00  0.00    -0.024 A 
ATOM     20  C17 <0> A   1     -16.024   6.231  45.246  0.00  0.00    +0.091 A 
ATOM     21  F1  <0> A   1     -14.046   3.434  44.053  0.00  0.00    -0.135 F 
ENDBRANCH   3  15
BRANCH   1  23
ATOM     22  C1  <0> A   1     -16.739  12.448  47.518  0.00  0.00    +0.044 C 
ATOM     23  C2  <0> A   1     -15.510  11.575  47.257  0.00  0.00    +0.051 C 
ATOM     24  C3  <0> A   1     -14.343  12.068  48.115  0.00  0.00    +0.044 C 
ENDBRANCH   1  23
BRANCH   2  25
ATOM     25  C18 <0> A   1     -14.605   9.368  45.572  0.00  0.00    +0.012 C 
ATOM     26  C19 <0> A   1     -13.281   9.432  45.631  0.00  0.00    -0.036 C 
BRANCH  26  27
ATOM     27  C20 <0> A   1     -12.484   9.707  44.381  0.00  0.00    +0.252 C 
BRANCH  27  28
ATOM     28  O4  <0> A   1     -11.570   8.632  44.154  0.00  0.00    -0.537 OA
ATOM     29  H28 <0> A   1     -11.806   7.813  44.612  0.00  0.00    +0.366 HD
ENDBRANCH  27  28
BRANCH  27  30
ATOM     30  C21 <0> A   1     -13.434   9.832  43.188  0.00  0.00    -0.041 C 
BRANCH  30  31
ATOM     31  C22 <0> A   1     -12.873  10.853  42.196  0.00  0.00    +0.231 C 
BRANCH  31  32
ATOM     32  O3  <0> A   1     -11.586  10.424  41.746  0.00  0.00    -0.528 OA
ATOM     33  H27 <0> A   1     -11.563  10.155  40.818  0.00  0.00    +0.350 HD
ENDBRANCH  31  32
BRANCH  31  34
ATOM     34  C23 <0> A   1     -13.818  10.971  40.998  0.00  0.00    -0.102 C 
BRANCH  34  35
ATOM     35  C24 <0> A   1     -13.018  10.931  39.722  0.00  0.00    +0.491 C 
ATOM     36  O1  <0> A   1     -12.537  11.958  39.271  0.00  0.00    -0.681 OA
ATOM     37  O2  <0> A   1     -12.850   9.873  39.140  0.00  0.00    -0.713 OA
ENDBRANCH  34  35
ENDBRANCH  31  34
ENDBRANCH  30  31
ENDBRANCH  27  30
ENDBRANCH  26  27
ENDBRANCH   2  25
TORSDOF 10
