REMARK VINA RESULT:      -7.8      1.037      1.398
REMARK  Name = CHEMBL249273
REMARK  18 active torsions:
REMARK  status: ('A' for Active; 'I' for Inactive)
REMARK    1  A    between atoms: C1_1  and  C2_2
REMARK    2  A    between atoms: C4_5  and  C5_8
REMARK    3  A    between atoms: C5_8  and  N3_9
REMARK    4  A    between atoms: C6_10  and  C7_12
REMARK    5  A    between atoms: C8_13  and  C27_40
REMARK    6  A    between atoms: C9_14  and  C21_33
REMARK    7  A    between atoms: C10_15  and  C14_20
REMARK    8  A    between atoms: N4_16  and  C11_17
REMARK    9  A    between atoms: C11_17  and  C12_18
REMARK   10  A    between atoms: C11_17  and  C13_19
REMARK   11  A    between atoms: C14_20  and  C15_21
REMARK   12  A    between atoms: C15_21  and  C16_22
REMARK   13  A    between atoms: C16_22  and  C17_24
REMARK   14  A    between atoms: C16_22  and  O5_32
REMARK   15  A    between atoms: C17_24  and  C18_25
REMARK   16  A    between atoms: C18_25  and  C19_27
REMARK   17  A    between atoms: C18_25  and  O4_31
REMARK   18  A    between atoms: C19_27  and  C20_28
REMARK                            x       y       z     vdW  Elec       q    Type
REMARK                         _______ _______ _______ _____ _____    ______ ____
ROOT
ATOM      1  C7  <0> A   1     -16.376   6.878  46.645  0.00  0.00    -0.057 C 
ATOM      2  C8  <0> A   1     -15.533   7.938  46.953  0.00  0.00    -0.041 C 
ATOM      3  C9  <0> A   1     -14.437   7.859  46.057  0.00  0.00    -0.116 C 
ATOM      4  C10 <0> A   1     -14.645   6.779  45.251  0.00  0.00    +0.087 C 
ATOM      5  N4  <0> A   1     -15.807   6.181  45.604  0.00  0.00    -0.404 N 
ENDROOT
BRANCH   3   6
ATOM      6  C21 <0> A   1     -13.278   8.783  46.004  0.00  0.00    -0.022 A 
ATOM      7  C22 <0> A   1     -13.348   9.952  45.249  0.00  0.00    +0.056 A 
ATOM      8  C23 <0> A   1     -12.268  10.808  45.204  0.00  0.00    -0.009 A 
ATOM      9  C24 <0> A   1     -11.113  10.507  45.909  0.00  0.00    +0.102 A 
ATOM     10  C25 <0> A   1     -11.038   9.347  46.661  0.00  0.00    -0.019 A 
ATOM     11  C26 <0> A   1     -12.116   8.487  46.716  0.00  0.00    +0.053 A 
ATOM     12  F1  <0> A   1     -10.056  11.348  45.860  0.00  0.00    -0.138 F 
ENDBRANCH   3   6
BRANCH   2  13
ATOM     13  C27 <0> A   1     -15.739   8.952  48.012  0.00  0.00    -0.017 A 
ATOM     14  C28 <0> A   1     -16.323  10.181  47.701  0.00  0.00    +0.034 A 
ATOM     15  C29 <0> A   1     -16.512  11.122  48.692  0.00  0.00    +0.014 A 
ATOM     16  C30 <0> A   1     -16.123  10.850  49.992  0.00  0.00    +0.006 A 
ATOM     17  C31 <0> A   1     -15.544   9.634  50.306  0.00  0.00    -0.004 A 
ATOM     18  C32 <0> A   1     -15.354   8.683  49.325  0.00  0.00    -0.005 A 
ENDBRANCH   2  13
BRANCH   1  20
ATOM     19  N3  <0> A   1     -17.635   5.869  48.471  0.00  0.00    -0.742 N 
ATOM     20  C6  <0> A   1     -17.640   6.557  47.311  0.00  0.00    +0.622 C 
ATOM     21  O1  <0> A   1     -18.695   6.911  46.819  0.00  0.00    -0.488 OA
ATOM     22  H10 <0> A   1     -16.800   5.525  48.827  0.00  0.00    +0.400 HD
BRANCH  19  23
ATOM     23  C5  <0> A   1     -18.889   5.641  49.194  0.00  0.00    +0.439 C 
BRANCH  23  28
ATOM     24  C1  <0> A   1     -17.924   1.851  52.410  0.00  0.00    +0.208 C 
ATOM     25  C2  <0> A   1     -18.191   3.220  51.840  0.00  0.00    +0.074 C 
ATOM     26  C3  <0> A   1     -18.257   4.377  52.526  0.00  0.00    +0.233 C 
ATOM     27  N1  <0> A   1     -18.513   5.363  51.653  0.00  0.00    -0.470 N 
ATOM     28  C4  <0> A   1     -18.609   4.862  50.453  0.00  0.00    +0.311 C 
ATOM     29  N2  <0> A   1     -18.408   3.528  50.524  0.00  0.00    -0.499 N 
ATOM     30  H1  <0> A   1     -18.419   2.904  49.781  0.00  0.00    +0.466 HD
ATOM     31  H37 <0> A   1     -18.612   6.301  51.880  0.00  0.00    +0.461 HD
ENDBRANCH  23  28
ENDBRANCH  19  23
ENDBRANCH   1  20
BRANCH   5  32
ATOM     32  C11 <0> A   1     -16.371   4.984  44.976  0.00  0.00    +0.233 C 
ATOM     33  C12 <0> A   1     -17.010   5.364  43.639  0.00  0.00    +0.036 C 
ATOM     34  C13 <0> A   1     -15.258   3.961  44.736  0.00  0.00    +0.048 C 
ENDBRANCH   5  32
BRANCH   4  35
ATOM     35  C14 <0> A   1     -13.724   6.321  44.149  0.00  0.00    +0.120 C 
BRANCH  35  36
ATOM     36  C15 <0> A   1     -14.017   7.119  42.877  0.00  0.00    -0.009 C 
BRANCH  36  37
ATOM     37  C16 <0> A   1     -12.706   7.401  42.139  0.00  0.00    +0.214 C 
BRANCH  37  38
ATOM     38  O5  <0> A   1     -11.850   6.260  42.237  0.00  0.00    -0.541 OA
ATOM     39  H27 <0> A   1     -11.151   6.348  42.899  0.00  0.00    +0.362 HD
ENDBRANCH  37  38
BRANCH  37  40
ATOM     40  C17 <0> A   1     -13.001   7.691  40.667  0.00  0.00    -0.051 C 
BRANCH  40  41
ATOM     41  C18 <0> A   1     -12.336   9.009  40.263  0.00  0.00    +0.231 C 
BRANCH  41  42
ATOM     42  O4  <0> A   1     -12.227   9.070  38.839  0.00  0.00    -0.528 OA
ATOM     43  H26 <0> A   1     -12.074   8.211  38.419  0.00  0.00    +0.349 HD
ENDBRANCH  41  42
BRANCH  41  44
ATOM     44  C19 <0> A   1     -13.183  10.182  40.759  0.00  0.00    -0.103 C 
BRANCH  44  45
ATOM     45  C20 <0> A   1     -13.316  11.206  39.662  0.00  0.00    +0.490 C 
ATOM     46  O2  <0> A   1     -12.368  11.916  39.373  0.00  0.00    -0.681 OA
ATOM     47  O3  <0> A   1     -14.371  11.324  39.063  0.00  0.00    -0.711 OA
ENDBRANCH  44  45
ENDBRANCH  41  44
ENDBRANCH  40  41
ENDBRANCH  37  40
ENDBRANCH  36  37
ENDBRANCH  35  36
ENDBRANCH   4  35
TORSDOF 15
