REMARK VINA RESULT:      -8.1      1.430      2.297
REMARK  Name = CHEMBL398551
REMARK  19 active torsions:
REMARK  status: ('A' for Active; 'I' for Inactive)
REMARK    1  A    between atoms: C1_1  and  C2_2
REMARK    2  A    between atoms: C4_4  and  C6_8
REMARK    3  A    between atoms: N2_6  and  C5_7
REMARK    4  A    between atoms: C6_8  and  N3_9
REMARK    5  A    between atoms: C7_10  and  C8_12
REMARK    6  A    between atoms: C9_13  and  C28_40
REMARK    7  A    between atoms: C10_14  and  C22_33
REMARK    8  A    between atoms: C11_15  and  C15_20
REMARK    9  A    between atoms: N4_16  and  C12_17
REMARK   10  A    between atoms: C12_17  and  C13_18
REMARK   11  A    between atoms: C12_17  and  C14_19
REMARK   12  A    between atoms: C15_20  and  C16_21
REMARK   13  A    between atoms: C16_21  and  C17_22
REMARK   14  A    between atoms: C17_22  and  C18_24
REMARK   15  A    between atoms: C17_22  and  O5_32
REMARK   16  A    between atoms: C18_24  and  C19_25
REMARK   17  A    between atoms: C19_25  and  C20_27
REMARK   18  A    between atoms: C19_25  and  O4_31
REMARK   19  A    between atoms: C20_27  and  C21_28
REMARK                            x       y       z     vdW  Elec       q    Type
REMARK                         _______ _______ _______ _____ _____    ______ ____
ROOT
ATOM      1  C8  <0> A   1     -16.443   7.106  46.410  0.00  0.00    -0.029 C 
ATOM      2  C9  <0> A   1     -15.548   8.131  46.692  0.00  0.00    -0.059 C 
ATOM      3  C10 <0> A   1     -14.391   7.889  45.908  0.00  0.00    -0.123 C 
ATOM      4  C11 <0> A   1     -14.613   6.751  45.192  0.00  0.00    +0.072 C 
ATOM      5  N4  <0> A   1     -15.844   6.272  45.493  0.00  0.00    -0.403 N 
ENDROOT
BRANCH   3   6
ATOM      6  C22 <0> A   1     -13.164   8.721  45.875  0.00  0.00    -0.009 A 
ATOM      7  C23 <0> A   1     -12.094   8.423  46.717  0.00  0.00    +0.053 A 
ATOM      8  C24 <0> A   1     -10.954   9.200  46.682  0.00  0.00    -0.013 A 
ATOM      9  C25 <0> A   1     -10.872  10.276  45.812  0.00  0.00    +0.094 A 
ATOM     10  C26 <0> A   1     -11.933  10.575  44.974  0.00  0.00    -0.020 A 
ATOM     11  C27 <0> A   1     -13.075   9.800  44.997  0.00  0.00    +0.054 A 
ATOM     12  F1  <0> A   1      -9.755  11.034  45.783  0.00  0.00    -0.142 F 
ENDBRANCH   3   6
BRANCH   2  13
ATOM     13  C28 <0> A   1     -15.761   9.257  47.630  0.00  0.00    -0.009 A 
ATOM     14  C29 <0> A   1     -15.485   9.098  48.988  0.00  0.00    +0.027 A 
ATOM     15  C30 <0> A   1     -15.685  10.151  49.857  0.00  0.00    +0.003 A 
ATOM     16  C31 <0> A   1     -16.158  11.362  49.384  0.00  0.00    -0.003 A 
ATOM     17  C32 <0> A   1     -16.435  11.526  48.038  0.00  0.00    -0.001 A 
ATOM     18  C33 <0> A   1     -16.233  10.482  47.159  0.00  0.00    +0.009 A 
ENDBRANCH   2  13
BRANCH   1  20
ATOM     19  N3  <0> A   1     -17.913   6.527  48.263  0.00  0.00    -0.715 N 
ATOM     20  C7  <0> A   1     -17.778   6.939  46.987  0.00  0.00    +0.605 C 
ATOM     21  O1  <0> A   1     -18.764   7.174  46.316  0.00  0.00    -0.517 OA
ATOM     22  H12 <0> A   1     -17.130   6.273  48.777  0.00  0.00    +0.404 HD
BRANCH  19  23
ATOM     23  C6  <0> A   1     -19.242   6.461  48.874  0.00  0.00    +0.381 C 
BRANCH  23  27
ATOM     24  C1  <0> A   1     -18.129   2.368  51.693  0.00  0.00    +0.146 C 
ATOM     25  C2  <0> A   1     -18.877   3.387  50.873  0.00  0.00    +0.083 C 
ATOM     26  C3  <0> A   1     -18.352   4.501  50.313  0.00  0.00    -0.107 C 
ATOM     27  C4  <0> A   1     -19.380   5.170  49.640  0.00  0.00    +0.055 C 
ATOM     28  N1  <0> A   1     -20.482   4.481  49.790  0.00  0.00    -0.276 NA
ATOM     29  N2  <0> A   1     -20.189   3.348  50.560  0.00  0.00    -0.368 N 
ATOM     30  C5  <0> A   1     -21.139   2.307  50.959  0.00  0.00    +0.354 C 
ENDBRANCH  23  27
ENDBRANCH  19  23
ENDBRANCH   1  20
BRANCH   5  31
ATOM     31  C12 <0> A   1     -16.444   5.060  44.929  0.00  0.00    +0.229 C 
ATOM     32  C13 <0> A   1     -17.024   5.372  43.548  0.00  0.00    +0.042 C 
ATOM     33  C14 <0> A   1     -15.376   3.973  44.801  0.00  0.00    +0.046 C 
ENDBRANCH   5  31
BRANCH   4  34
ATOM     34  C15 <0> A   1     -13.644   6.124  44.224  0.00  0.00    +0.118 C 
BRANCH  34  35
ATOM     35  C16 <0> A   1     -13.758   6.820  42.865  0.00  0.00    -0.009 C 
BRANCH  35  36
ATOM     36  C17 <0> A   1     -12.363   7.221  42.379  0.00  0.00    +0.212 C 
BRANCH  36  37
ATOM     37  O5  <0> A   1     -11.540   6.057  42.280  0.00  0.00    -0.542 OA
ATOM     38  H29 <0> A   1     -11.637   5.576  41.446  0.00  0.00    +0.363 HD
ENDBRANCH  36  37
BRANCH  36  39
ATOM     39  C18 <0> A   1     -12.473   7.886  41.006  0.00  0.00    -0.051 C 
BRANCH  39  40
ATOM     40  C19 <0> A   1     -12.978   9.321  41.173  0.00  0.00    +0.230 C 
BRANCH  40  41
ATOM     41  O4  <0> A   1     -11.874  10.184  41.451  0.00  0.00    -0.528 OA
ATOM     42  H28 <0> A   1     -11.036   9.720  41.592  0.00  0.00    +0.349 HD
ENDBRANCH  40  41
BRANCH  40  43
ATOM     43  C20 <0> A   1     -13.665   9.772  39.883  0.00  0.00    -0.103 C 
BRANCH  43  44
ATOM     44  C21 <0> A   1     -13.554  11.270  39.752  0.00  0.00    +0.490 C 
ATOM     45  O2  <0> A   1     -14.414  11.989  40.232  0.00  0.00    -0.681 OA
ATOM     46  O3  <0> A   1     -12.604  11.762  39.167  0.00  0.00    -0.713 OA
ENDBRANCH  43  44
ENDBRANCH  40  43
ENDBRANCH  39  40
ENDBRANCH  36  39
ENDBRANCH  35  36
ENDBRANCH  34  35
ENDBRANCH   4  34
TORSDOF 15
