REMARK VINA RESULT:      -8.1      0.000      0.000
REMARK  Name = CHEMBL170906
REMARK  9 active torsions:
REMARK  status: ('A' for Active; 'I' for Inactive)
REMARK    1  A    between atoms: C1_1  and  C2_2
REMARK    2  A    between atoms: C4_5  and  O4_28
REMARK    3  A    between atoms: C6_8  and  C13_17
REMARK    4  A    between atoms: C7_10  and  C12_16
REMARK    5  A    between atoms: C13_17  and  C14_18
REMARK    6  A    between atoms: C14_18  and  C15_19
REMARK    7  A    between atoms: C17_21  and  O3_27
REMARK    8  A    between atoms: O4_28  and  C20_29
REMARK    9  A    between atoms: C20_29  and  C21_31
REMARK                            x       y       z     vdW  Elec       q    Type
REMARK                         _______ _______ _______ _____ _____    ______ ____
ROOT
ATOM      1  C1  <0> A   1      -0.135   2.610  44.788  0.00  0.00    +0.033 C 
ATOM      2  C2  <0> A   1      -1.491   3.258  44.495  0.00  0.00    +0.025 C 
ATOM      3  C3  <0> A   1      -1.993   3.999  45.742  0.00  0.00    +0.020 C 
ATOM      4  C4  <0> A   1      -3.331   4.654  45.406  0.00  0.00    +0.174 C 
ATOM      5  C5  <0> A   1      -4.360   3.638  44.968  0.00  0.00    +0.040 C 
ATOM      6  C6  <0> A   1      -5.313   3.261  46.104  0.00  0.00    +0.013 C 
ATOM      7  C7  <0> A   1      -6.454   2.421  45.530  0.00  0.00    +0.022 C 
ATOM      8  C8  <0> A   1      -5.941   1.295  44.683  0.00  0.00    -0.032 C 
ATOM      9  C9  <0> A   1      -4.731   1.260  44.153  0.00  0.00    -0.006 C 
ATOM     10  C10 <0> A   1      -3.787   2.374  44.399  0.00  0.00    -0.086 C 
ATOM     11  C11 <0> A   1      -2.502   2.194  44.154  0.00  0.00    -0.022 C 
ATOM     12  C12 <0> A   1      -7.354   3.317  44.676  0.00  0.00    +0.029 C 
ENDROOT
BRANCH   6  13
ATOM     13  C13 <0> A   1      -5.877   4.532  46.743  0.00  0.00    +0.058 C 
BRANCH  13  14
ATOM     14  C14 <0> A   1      -6.990   4.157  47.725  0.00  0.00    +0.040 C 
BRANCH  14  15
ATOM     15  C15 <0> A   1      -6.373   3.574  48.996  0.00  0.00    +0.193 C 
ATOM     16  C16 <0> A   1      -7.466   3.372  50.050  0.00  0.00    +0.039 C 
ATOM     17  C17 <0> A   1      -6.837   2.827  51.336  0.00  0.00    +0.183 C 
ATOM     18  C18 <0> A   1      -5.791   3.830  51.841  0.00  0.00    +0.019 C 
ATOM     19  C19 <0> A   1      -4.850   4.148  50.700  0.00  0.00    +0.495 C 
ATOM     20  O1  <0> A   1      -3.652   4.109  50.854  0.00  0.00    -0.453 OA
ATOM     21  O2  <0> A   1      -5.385   4.477  49.507  0.00  0.00    -0.366 OA
BRANCH  17  22
ATOM     22  O3  <0> A   1      -6.209   1.571  51.068  0.00  0.00    -0.563 OA
ATOM     23  H27 <0> A   1      -6.648   0.816  51.482  0.00  0.00    +0.386 HD
ENDBRANCH  17  22
ENDBRANCH  14  15
ENDBRANCH  13  14
ENDBRANCH   6  13
BRANCH   4  24
ATOM     24  O4  <0> A   1      -3.819   5.337  46.562  0.00  0.00    -0.315 OA
BRANCH  24  25
ATOM     25  C20 <0> A   1      -3.328   6.564  46.796  0.00  0.00    +0.480 C 
ATOM     26  O5  <0> A   1      -3.497   7.447  45.988  0.00  0.00    -0.504 OA
BRANCH  25  27
ATOM     27  C21 <0> A   1      -2.567   6.842  48.067  0.00  0.00    -0.041 C 
ATOM     28  C22 <0> A   1      -2.475   8.297  48.532  0.00  0.00    +0.065 C 
ATOM     29  C23 <0> A   1      -3.369   7.308  49.284  0.00  0.00    +0.074 C 
ENDBRANCH  25  27
ENDBRANCH  24  25
ENDBRANCH   4  24
TORSDOF 7
