MODEL 1
REMARK VINA RESULT:      -7.6      0.000      0.000
REMARK  Name = CHEMBL562679
REMARK  15 active torsions:
REMARK  status: ('A' for Active; 'I' for Inactive)
REMARK    1  A    between atoms: C1_1  and  C2_2
REMARK    2  A    between atoms: C2_2  and  C3_3
REMARK    3  A    between atoms: C3_3  and  C4_4
REMARK    4  A    between atoms: C3_3  and  C6_6
REMARK    5  A    between atoms: C3_3  and  C12_12
REMARK    6  A    between atoms: C4_4  and  C5_5
REMARK    7  A    between atoms: C15_15  and  C24_25
REMARK    8  A    between atoms: C16_16  and  C18_18
REMARK    9  A    between atoms: C25_26  and  C26_27
REMARK   10  A    between atoms: C26_27  and  C27_29
REMARK   11  A    between atoms: C26_27  and  O4_37
REMARK   12  A    between atoms: C27_29  and  C28_30
REMARK   13  A    between atoms: C28_30  and  C29_32
REMARK   14  A    between atoms: C28_30  and  O3_36
REMARK   15  A    between atoms: C29_32  and  C30_33
REMARK                            x       y       z     vdW  Elec       q    Type
REMARK                         _______ _______ _______ _____ _____    ______ ____
ROOT
ATOM      1  C12 <0> A   1     -25.008  -2.192  52.257  0.00  0.00    -0.073 A 
ATOM      2  C13 <0> A   1     -23.824  -2.728  51.778  0.00  0.00    +0.022 A 
ATOM      3  C14 <0> A   1     -23.774  -4.040  51.355  0.00  0.00    +0.010 A 
ATOM      4  C15 <0> A   1     -24.920  -4.833  51.407  0.00  0.00    -0.030 A 
ATOM      5  C16 <0> A   1     -26.120  -4.288  51.893  0.00  0.00    -0.047 A 
ATOM      6  C17 <0> A   1     -26.151  -2.964  52.321  0.00  0.00    +0.035 A 
ENDROOT
BRANCH   5   7
ATOM      7  C18 <0> A   1     -27.346  -5.119  51.953  0.00  0.00    -0.051 A 
ATOM      8  C19 <0> A   1     -28.293  -5.044  50.933  0.00  0.00    +0.060 A 
ATOM      9  C20 <0> A   1     -29.432  -5.821  50.993  0.00  0.00    -0.009 A 
ATOM     10  C21 <0> A   1     -29.636  -6.672  52.066  0.00  0.00    +0.100 A 
ATOM     11  C22 <0> A   1     -28.698  -6.750  53.084  0.00  0.00    -0.016 A 
ATOM     12  C23 <0> A   1     -27.553  -5.983  53.029  0.00  0.00    +0.052 A 
ATOM     13  F1  <0> A   1     -30.754  -7.430  52.122  0.00  0.00    -0.140 F 
ENDBRANCH   5   7
BRANCH   4  14
ATOM     14  C24 <0> A   1     -24.871  -6.238  50.954  0.00  0.00    -0.002 C 
ATOM     15  C25 <0> A   1     -25.065  -6.530  49.674  0.00  0.00    -0.047 C 
BRANCH  15  16
ATOM     16  C26 <0> A   1     -25.016  -7.964  49.213  0.00  0.00    +0.249 C 
BRANCH  16  17
ATOM     17  O4  <0> A   1     -24.429  -8.026  47.912  0.00  0.00    -0.536 OA
ATOM     18  H32 <0> A   1     -23.467  -8.124  47.919  0.00  0.00    +0.364 HD
ENDBRANCH  16  17
BRANCH  16  19
ATOM     19  C27 <0> A   1     -24.177  -8.786  50.192  0.00  0.00    -0.041 C 
BRANCH  19  20
ATOM     20  C28 <0> A   1     -24.806 -10.170  50.366  0.00  0.00    +0.231 C 
BRANCH  20  21
ATOM     21  O3  <0> A   1     -26.091 -10.190  49.744  0.00  0.00    -0.528 OA
ATOM     22  H31 <0> A   1     -26.826 -10.323  50.360  0.00  0.00    +0.350 HD
ENDBRANCH  20  21
BRANCH  20  23
ATOM     23  C29 <0> A   1     -23.907 -11.224  49.715  0.00  0.00    -0.101 C 
BRANCH  23  24
ATOM     24  C30 <0> A   1     -24.545 -11.709  48.439  0.00  0.00    +0.490 C 
ATOM     25  O1  <0> A   1     -25.143 -12.771  48.421  0.00  0.00    -0.681 OA
ATOM     26  O2  <0> A   1     -24.464 -11.039  47.424  0.00  0.00    -0.713 OA
ENDBRANCH  23  24
ENDBRANCH  20  23
ENDBRANCH  19  20
ENDBRANCH  16  19
ENDBRANCH  15  16
ENDBRANCH   4  14
BRANCH   1  27
ATOM     27  C3  <0> A   1     -25.049  -0.757  52.716  0.00  0.00    +0.023 C 
BRANCH  27  28
ATOM     28  C6  <0> A   1     -26.193  -0.045  52.041  0.00  0.00    -0.055 A 
ATOM     29  C7  <0> A   1     -26.233   0.048  50.663  0.00  0.00    +0.009 A 
ATOM     30  C8  <0> A   1     -27.282   0.700  50.043  0.00  0.00    +0.002 A 
ATOM     31  C9  <0> A   1     -28.293   1.259  50.803  0.00  0.00    -0.009 A 
ATOM     32  C10 <0> A   1     -28.254   1.166  52.182  0.00  0.00    -0.001 A 
ATOM     33  C11 <0> A   1     -27.206   0.510  52.801  0.00  0.00    +0.003 A 
ENDBRANCH  27  28
BRANCH  27  35
ATOM     34  C1  <0> A   1     -23.943   1.448  52.319  0.00  0.00    +0.013 C 
ATOM     35  C2  <0> A   1     -23.732  -0.067  52.352  0.00  0.00    +0.025 C 
ENDBRANCH  27  35
BRANCH  27  36
ATOM     36  C4  <0> A   1     -25.244  -0.711  54.233  0.00  0.00    +0.029 C 
ATOM     37  C5  <0> A   1     -23.881  -0.771  54.924  0.00  0.00    +0.012 C 
ENDBRANCH  27  36
ENDBRANCH   1  27
TORSDOF 13
ENDMDL
MODEL 2
REMARK VINA RESULT:      -7.5      1.001      2.458
REMARK  Name = CHEMBL562679
REMARK  15 active torsions:
REMARK  status: ('A' for Active; 'I' for Inactive)
REMARK    1  A    between atoms: C1_1  and  C2_2
REMARK    2  A    between atoms: C2_2  and  C3_3
REMARK    3  A    between atoms: C3_3  and  C4_4
REMARK    4  A    between atoms: C3_3  and  C6_6
REMARK    5  A    between atoms: C3_3  and  C12_12
REMARK    6  A    between atoms: C4_4  and  C5_5
REMARK    7  A    between atoms: C15_15  and  C24_25
REMARK    8  A    between atoms: C16_16  and  C18_18
REMARK    9  A    between atoms: C25_26  and  C26_27
REMARK   10  A    between atoms: C26_27  and  C27_29
REMARK   11  A    between atoms: C26_27  and  O4_37
REMARK   12  A    between atoms: C27_29  and  C28_30
REMARK   13  A    between atoms: C28_30  and  C29_32
REMARK   14  A    between atoms: C28_30  and  O3_36
REMARK   15  A    between atoms: C29_32  and  C30_33
REMARK                            x       y       z     vdW  Elec       q    Type
REMARK                         _______ _______ _______ _____ _____    ______ ____
ROOT
ATOM      1  C12 <0> A   1     -25.186  -2.330  51.537  0.00  0.00    -0.073 A 
ATOM      2  C13 <0> A   1     -24.044  -2.936  51.040  0.00  0.00    +0.022 A 
ATOM      3  C14 <0> A   1     -24.014  -4.298  50.826  0.00  0.00    +0.010 A 
ATOM      4  C15 <0> A   1     -25.139  -5.073  51.110  0.00  0.00    -0.030 A 
ATOM      5  C16 <0> A   1     -26.296  -4.457  51.615  0.00  0.00    -0.047 A 
ATOM      6  C17 <0> A   1     -26.306  -3.081  51.830  0.00  0.00    +0.035 A 
ENDROOT
BRANCH   5   7
ATOM      7  C18 <0> A   1     -27.499  -5.267  51.921  0.00  0.00    -0.051 A 
ATOM      8  C19 <0> A   1     -27.579  -5.974  53.120  0.00  0.00    +0.060 A 
ATOM      9  C20 <0> A   1     -28.701  -6.727  53.401  0.00  0.00    -0.009 A 
ATOM     10  C21 <0> A   1     -29.746  -6.781  52.493  0.00  0.00    +0.100 A 
ATOM     11  C22 <0> A   1     -29.671  -6.081  51.300  0.00  0.00    -0.016 A 
ATOM     12  C23 <0> A   1     -28.556  -5.320  51.013  0.00  0.00    +0.052 A 
ATOM     13  F1  <0> A   1     -30.842  -7.521  52.772  0.00  0.00    -0.140 F 
ENDBRANCH   5   7
BRANCH   4  14
ATOM     14  C24 <0> A   1     -25.112  -6.532  50.882  0.00  0.00    -0.002 C 
ATOM     15  C25 <0> A   1     -25.263  -7.014  49.655  0.00  0.00    -0.047 C 
BRANCH  15  16
ATOM     16  C26 <0> A   1     -25.237  -8.503  49.423  0.00  0.00    +0.249 C 
BRANCH  16  17
ATOM     17  O4  <0> A   1     -25.553  -8.778  48.058  0.00  0.00    -0.536 OA
ATOM     18  H32 <0> A   1     -25.107  -9.558  47.700  0.00  0.00    +0.364 HD
ENDBRANCH  16  17
BRANCH  16  19
ATOM     19  C27 <0> A   1     -23.842  -9.045  49.744  0.00  0.00    -0.041 C 
BRANCH  19  20
ATOM     20  C28 <0> A   1     -23.962 -10.470  50.287  0.00  0.00    +0.231 C 
BRANCH  20  21
ATOM     21  O3  <0> A   1     -25.317 -10.726  50.660  0.00  0.00    -0.528 OA
ATOM     22  H31 <0> A   1     -25.685 -11.534  50.278  0.00  0.00    +0.350 HD
ENDBRANCH  20  21
BRANCH  20  23
ATOM     23  C29 <0> A   1     -23.533 -11.465  49.205  0.00  0.00    -0.101 C 
BRANCH  23  24
ATOM     24  C30 <0> A   1     -24.736 -12.237  48.730  0.00  0.00    +0.490 C 
ATOM     25  O1  <0> A   1     -25.060 -13.269  49.290  0.00  0.00    -0.681 OA
ATOM     26  O2  <0> A   1     -25.387 -11.829  47.782  0.00  0.00    -0.713 OA
ENDBRANCH  23  24
ENDBRANCH  20  23
ENDBRANCH  19  20
ENDBRANCH  16  19
ENDBRANCH  15  16
ENDBRANCH   4  14
BRANCH   1  27
ATOM     27  C3  <0> A   1     -25.204  -0.840  51.767  0.00  0.00    +0.023 C 
BRANCH  27  28
ATOM     28  C6  <0> A   1     -25.112  -0.557  53.244  0.00  0.00    -0.055 A 
ATOM     29  C7  <0> A   1     -23.910  -0.726  53.906  0.00  0.00    +0.009 A 
ATOM     30  C8  <0> A   1     -23.826  -0.466  55.261  0.00  0.00    +0.002 A 
ATOM     31  C9  <0> A   1     -24.943  -0.037  55.954  0.00  0.00    -0.009 A 
ATOM     32  C10 <0> A   1     -26.144   0.132  55.291  0.00  0.00    -0.001 A 
ATOM     33  C11 <0> A   1     -26.228  -0.124  53.935  0.00  0.00    +0.003 A 
ENDBRANCH  27  28
BRANCH  27  35
ATOM     34  C1  <0> A   1     -26.663  -0.654  49.747  0.00  0.00    +0.013 C 
ATOM     35  C2  <0> A   1     -26.507  -0.256  51.216  0.00  0.00    +0.025 C 
ENDBRANCH  27  35
BRANCH  27  36
ATOM     36  C4  <0> A   1     -24.015  -0.198  51.049  0.00  0.00    +0.029 C 
ATOM     37  C5  <0> A   1     -24.115   1.324  51.159  0.00  0.00    +0.012 C 
ENDBRANCH  27  36
ENDBRANCH   1  27
TORSDOF 13
ENDMDL
MODEL 3
REMARK VINA RESULT:      -7.4     15.710     19.985
REMARK  Name = CHEMBL562679
REMARK  15 active torsions:
REMARK  status: ('A' for Active; 'I' for Inactive)
REMARK    1  A    between atoms: C1_1  and  C2_2
REMARK    2  A    between atoms: C2_2  and  C3_3
REMARK    3  A    between atoms: C3_3  and  C4_4
REMARK    4  A    between atoms: C3_3  and  C6_6
REMARK    5  A    between atoms: C3_3  and  C12_12
REMARK    6  A    between atoms: C4_4  and  C5_5
REMARK    7  A    between atoms: C15_15  and  C24_25
REMARK    8  A    between atoms: C16_16  and  C18_18
REMARK    9  A    between atoms: C25_26  and  C26_27
REMARK   10  A    between atoms: C26_27  and  C27_29
REMARK   11  A    between atoms: C26_27  and  O4_37
REMARK   12  A    between atoms: C27_29  and  C28_30
REMARK   13  A    between atoms: C28_30  and  C29_32
REMARK   14  A    between atoms: C28_30  and  O3_36
REMARK   15  A    between atoms: C29_32  and  C30_33
REMARK                            x       y       z     vdW  Elec       q    Type
REMARK                         _______ _______ _______ _____ _____    ______ ____
ROOT
ATOM      1  C12 <0> A   1     -15.827   7.133  47.081  0.00  0.00    -0.073 A 
ATOM      2  C13 <0> A   1     -15.585   6.197  46.089  0.00  0.00    +0.022 A 
ATOM      3  C14 <0> A   1     -14.703   6.477  45.066  0.00  0.00    +0.010 A 
ATOM      4  C15 <0> A   1     -14.050   7.708  45.027  0.00  0.00    -0.030 A 
ATOM      5  C16 <0> A   1     -14.296   8.657  46.034  0.00  0.00    -0.047 A 
ATOM      6  C17 <0> A   1     -15.193   8.359  47.056  0.00  0.00    +0.035 A 
ENDROOT
BRANCH   5   7
ATOM      7  C18 <0> A   1     -13.608   9.970  46.006  0.00  0.00    -0.051 A 
ATOM      8  C19 <0> A   1     -14.134  11.018  45.253  0.00  0.00    +0.060 A 
ATOM      9  C20 <0> A   1     -13.491  12.239  45.230  0.00  0.00    -0.009 A 
ATOM     10  C21 <0> A   1     -12.324  12.422  45.953  0.00  0.00    +0.100 A 
ATOM     11  C22 <0> A   1     -11.796  11.383  46.703  0.00  0.00    -0.016 A 
ATOM     12  C23 <0> A   1     -12.436  10.161  46.737  0.00  0.00    +0.052 A 
ATOM     13  F1  <0> A   1     -11.696  13.619  45.927  0.00  0.00    -0.140 F 
ENDBRANCH   5   7
BRANCH   4  14
ATOM     14  C24 <0> A   1     -13.105   8.013  43.933  0.00  0.00    -0.002 C 
ATOM     15  C25 <0> A   1     -13.235   7.413  42.757  0.00  0.00    -0.047 C 
BRANCH  15  16
ATOM     16  C26 <0> A   1     -12.270   7.723  41.642  0.00  0.00    +0.249 C 
BRANCH  16  17
ATOM     17  O4  <0> A   1     -11.459   6.577  41.381  0.00  0.00    -0.536 OA
ATOM     18  H32 <0> A   1     -10.603   6.783  40.981  0.00  0.00    +0.364 HD
ENDBRANCH  16  17
BRANCH  16  19
ATOM     19  C27 <0> A   1     -13.050   8.095  40.380  0.00  0.00    -0.041 C 
BRANCH  19  20
ATOM     20  C28 <0> A   1     -12.465   9.375  39.778  0.00  0.00    +0.231 C 
BRANCH  20  21
ATOM     21  O3  <0> A   1     -12.784   9.436  38.388  0.00  0.00    -0.528 OA
ATOM     22  H31 <0> A   1     -12.226  10.043  37.881  0.00  0.00    +0.350 HD
ENDBRANCH  20  21
BRANCH  20  23
ATOM     23  C29 <0> A   1     -13.058  10.591  40.493  0.00  0.00    -0.101 C 
BRANCH  23  24
ATOM     24  C30 <0> A   1     -13.928  11.361  39.533  0.00  0.00    +0.490 C 
ATOM     25  O1  <0> A   1     -15.138  11.214  39.554  0.00  0.00    -0.681 OA
ATOM     26  O2  <0> A   1     -13.421  12.131  38.734  0.00  0.00    -0.713 OA
ENDBRANCH  23  24
ENDBRANCH  20  23
ENDBRANCH  19  20
ENDBRANCH  16  19
ENDBRANCH  15  16
ENDBRANCH   4  14
BRANCH   1  27
ATOM     27  C3  <0> A   1     -16.792   6.813  48.194  0.00  0.00    +0.023 C 
BRANCH  27  28
ATOM     28  C6  <0> A   1     -16.190   7.218  49.514  0.00  0.00    -0.055 A 
ATOM     29  C7  <0> A   1     -16.806   8.182  50.289  0.00  0.00    +0.009 A 
ATOM     30  C8  <0> A   1     -16.254   8.553  51.501  0.00  0.00    +0.002 A 
ATOM     31  C9  <0> A   1     -15.084   7.959  51.937  0.00  0.00    -0.009 A 
ATOM     32  C10 <0> A   1     -14.468   6.994  51.163  0.00  0.00    -0.001 A 
ATOM     33  C11 <0> A   1     -15.023   6.620  49.953  0.00  0.00    +0.003 A 
ENDBRANCH  27  28
BRANCH  27  35
ATOM     34  C1  <0> A   1     -18.130   4.998  49.271  0.00  0.00    +0.013 C 
ATOM     35  C2  <0> A   1     -17.079   5.310  48.203  0.00  0.00    +0.025 C 
ENDBRANCH  27  35
BRANCH  27  36
ATOM     36  C4  <0> A   1     -18.098   7.579  47.972  0.00  0.00    +0.029 C 
ATOM     37  C5  <0> A   1     -18.648   7.257  46.581  0.00  0.00    +0.012 C 
ENDBRANCH  27  36
ENDBRANCH   1  27
TORSDOF 13
ENDMDL
MODEL 4
REMARK VINA RESULT:      -7.4      0.960      2.632
REMARK  Name = CHEMBL562679
REMARK  15 active torsions:
REMARK  status: ('A' for Active; 'I' for Inactive)
REMARK    1  A    between atoms: C1_1  and  C2_2
REMARK    2  A    between atoms: C2_2  and  C3_3
REMARK    3  A    between atoms: C3_3  and  C4_4
REMARK    4  A    between atoms: C3_3  and  C6_6
REMARK    5  A    between atoms: C3_3  and  C12_12
REMARK    6  A    between atoms: C4_4  and  C5_5
REMARK    7  A    between atoms: C15_15  and  C24_25
REMARK    8  A    between atoms: C16_16  and  C18_18
REMARK    9  A    between atoms: C25_26  and  C26_27
REMARK   10  A    between atoms: C26_27  and  C27_29
REMARK   11  A    between atoms: C26_27  and  O4_37
REMARK   12  A    between atoms: C27_29  and  C28_30
REMARK   13  A    between atoms: C28_30  and  C29_32
REMARK   14  A    between atoms: C28_30  and  O3_36
REMARK   15  A    between atoms: C29_32  and  C30_33
REMARK                            x       y       z     vdW  Elec       q    Type
REMARK                         _______ _______ _______ _____ _____    ______ ____
ROOT
ATOM      1  C12 <0> A   1     -25.439  -2.514  51.712  0.00  0.00    -0.073 A 
ATOM      2  C13 <0> A   1     -24.269  -3.030  51.181  0.00  0.00    +0.022 A 
ATOM      3  C14 <0> A   1     -24.173  -4.373  50.878  0.00  0.00    +0.010 A 
ATOM      4  C15 <0> A   1     -25.260  -5.217  51.107  0.00  0.00    -0.030 A 
ATOM      5  C16 <0> A   1     -26.446  -4.692  51.646  0.00  0.00    -0.047 A 
ATOM      6  C17 <0> A   1     -26.522  -3.336  51.951  0.00  0.00    +0.035 A 
ENDROOT
BRANCH   5   7
ATOM      7  C18 <0> A   1     -27.608  -5.578  51.894  0.00  0.00    -0.051 A 
ATOM      8  C19 <0> A   1     -28.497  -5.871  50.861  0.00  0.00    +0.060 A 
ATOM      9  C20 <0> A   1     -29.577  -6.697  51.096  0.00  0.00    -0.009 A 
ATOM     10  C21 <0> A   1     -29.780  -7.232  52.357  0.00  0.00    +0.100 A 
ATOM     11  C22 <0> A   1     -28.900  -6.943  53.388  0.00  0.00    -0.016 A 
ATOM     12  C23 <0> A   1     -27.814  -6.124  53.161  0.00  0.00    +0.052 A 
ATOM     13  F1  <0> A   1     -30.841  -8.039  52.583  0.00  0.00    -0.140 F 
ENDBRANCH   5   7
BRANCH   4  14
ATOM     14  C24 <0> A   1     -25.162  -6.655  50.784  0.00  0.00    -0.002 C 
ATOM     15  C25 <0> A   1     -25.129  -7.050  49.518  0.00  0.00    -0.047 C 
BRANCH  15  16
ATOM     16  C26 <0> A   1     -25.031  -8.518  49.189  0.00  0.00    +0.249 C 
BRANCH  16  17
ATOM     17  O4  <0> A   1     -25.099  -8.695  47.773  0.00  0.00    -0.536 OA
ATOM     18  H32 <0> A   1     -24.827  -7.918  47.266  0.00  0.00    +0.364 HD
ENDBRANCH  16  17
BRANCH  16  19
ATOM     19  C27 <0> A   1     -23.702  -9.069  49.709  0.00  0.00    -0.041 C 
BRANCH  19  20
ATOM     20  C28 <0> A   1     -23.917 -10.480  50.262  0.00  0.00    +0.231 C 
BRANCH  20  21
ATOM     21  O3  <0> A   1     -25.292 -10.650  50.609  0.00  0.00    -0.528 OA
ATOM     22  H31 <0> A   1     -25.615 -10.016  51.264  0.00  0.00    +0.350 HD
ENDBRANCH  20  21
BRANCH  20  23
ATOM     23  C29 <0> A   1     -23.526 -11.509  49.199  0.00  0.00    -0.101 C 
BRANCH  23  24
ATOM     24  C30 <0> A   1     -24.758 -12.240  48.733  0.00  0.00    +0.490 C 
ATOM     25  O1  <0> A   1     -25.403 -11.812  47.792  0.00  0.00    -0.681 OA
ATOM     26  O2  <0> A   1     -25.112 -13.262  49.299  0.00  0.00    -0.713 OA
ENDBRANCH  23  24
ENDBRANCH  20  23
ENDBRANCH  19  20
ENDBRANCH  16  19
ENDBRANCH  15  16
ENDBRANCH   4  14
BRANCH   1  27
ATOM     27  C3  <0> A   1     -25.529  -1.045  52.038  0.00  0.00    +0.023 C 
BRANCH  27  28
ATOM     28  C6  <0> A   1     -24.361  -0.649  52.904  0.00  0.00    -0.055 A 
ATOM     29  C7  <0> A   1     -23.405   0.222  52.420  0.00  0.00    +0.009 A 
ATOM     30  C8  <0> A   1     -22.334   0.586  53.214  0.00  0.00    +0.002 A 
ATOM     31  C9  <0> A   1     -22.220   0.077  54.495  0.00  0.00    -0.009 A 
ATOM     32  C10 <0> A   1     -23.177  -0.795  54.980  0.00  0.00    -0.001 A 
ATOM     33  C11 <0> A   1     -24.250  -1.154  54.187  0.00  0.00    +0.003 A 
ENDBRANCH  27  28
BRANCH  27  35
ATOM     34  C1  <0> A   1     -27.008   0.741  52.969  0.00  0.00    +0.013 C 
ATOM     35  C2  <0> A   1     -26.836  -0.768  52.786  0.00  0.00    +0.025 C 
ENDBRANCH  27  35
BRANCH  27  36
ATOM     36  C4  <0> A   1     -25.502  -0.232  50.743  0.00  0.00    +0.029 C 
ATOM     37  C5  <0> A   1     -26.594  -0.740  49.799  0.00  0.00    +0.012 C 
ENDBRANCH  27  36
ENDBRANCH   1  27
TORSDOF 13
ENDMDL
MODEL 5
REMARK VINA RESULT:      -7.4      1.062      1.419
REMARK  Name = CHEMBL562679
REMARK  15 active torsions:
REMARK  status: ('A' for Active; 'I' for Inactive)
REMARK    1  A    between atoms: C1_1  and  C2_2
REMARK    2  A    between atoms: C2_2  and  C3_3
REMARK    3  A    between atoms: C3_3  and  C4_4
REMARK    4  A    between atoms: C3_3  and  C6_6
REMARK    5  A    between atoms: C3_3  and  C12_12
REMARK    6  A    between atoms: C4_4  and  C5_5
REMARK    7  A    between atoms: C15_15  and  C24_25
REMARK    8  A    between atoms: C16_16  and  C18_18
REMARK    9  A    between atoms: C25_26  and  C26_27
REMARK   10  A    between atoms: C26_27  and  C27_29
REMARK   11  A    between atoms: C26_27  and  O4_37
REMARK   12  A    between atoms: C27_29  and  C28_30
REMARK   13  A    between atoms: C28_30  and  C29_32
REMARK   14  A    between atoms: C28_30  and  O3_36
REMARK   15  A    between atoms: C29_32  and  C30_33
REMARK                            x       y       z     vdW  Elec       q    Type
REMARK                         _______ _______ _______ _____ _____    ______ ____
ROOT
ATOM      1  C12 <0> A   1     -24.966  -2.123  52.300  0.00  0.00    -0.073 A 
ATOM      2  C13 <0> A   1     -23.741  -2.605  51.872  0.00  0.00    +0.022 A 
ATOM      3  C14 <0> A   1     -23.614  -3.913  51.451  0.00  0.00    +0.010 A 
ATOM      4  C15 <0> A   1     -24.725  -4.756  51.455  0.00  0.00    -0.030 A 
ATOM      5  C16 <0> A   1     -25.968  -4.265  51.890  0.00  0.00    -0.047 A 
ATOM      6  C17 <0> A   1     -26.075  -2.944  52.316  0.00  0.00    +0.035 A 
ENDROOT
BRANCH   5   7
ATOM      7  C18 <0> A   1     -27.157  -5.150  51.899  0.00  0.00    -0.051 A 
ATOM      8  C19 <0> A   1     -28.030  -5.159  50.812  0.00  0.00    +0.060 A 
ATOM      9  C20 <0> A   1     -29.136  -5.985  50.825  0.00  0.00    -0.009 A 
ATOM     10  C21 <0> A   1     -29.379  -6.802  51.916  0.00  0.00    +0.100 A 
ATOM     11  C22 <0> A   1     -28.515  -6.796  52.999  0.00  0.00    -0.016 A 
ATOM     12  C23 <0> A   1     -27.404  -5.980  52.992  0.00  0.00    +0.052 A 
ATOM     13  F1  <0> A   1     -30.464  -7.609  51.925  0.00  0.00    -0.140 F 
ENDBRANCH   5   7
BRANCH   4  14
ATOM     14  C24 <0> A   1     -24.595  -6.157  51.005  0.00  0.00    -0.002 C 
ATOM     15  C25 <0> A   1     -24.010  -7.054  51.788  0.00  0.00    -0.047 C 
BRANCH  15  16
ATOM     16  C26 <0> A   1     -23.877  -8.483  51.327  0.00  0.00    +0.249 C 
BRANCH  16  17
ATOM     17  O4  <0> A   1     -23.600  -9.322  52.450  0.00  0.00    -0.536 OA
ATOM     18  H32 <0> A   1     -23.143  -8.873  53.173  0.00  0.00    +0.364 HD
ENDBRANCH  16  17
BRANCH  16  19
ATOM     19  C27 <0> A   1     -25.181  -8.929  50.665  0.00  0.00    -0.041 C 
BRANCH  19  20
ATOM     20  C28 <0> A   1     -25.183 -10.452  50.517  0.00  0.00    +0.231 C 
BRANCH  20  21
ATOM     21  O3  <0> A   1     -26.468 -10.963  50.872  0.00  0.00    -0.528 OA
ATOM     22  H31 <0> A   1     -26.764 -11.702  50.322  0.00  0.00    +0.350 HD
ENDBRANCH  20  21
BRANCH  20  23
ATOM     23  C29 <0> A   1     -24.868 -10.823  49.066  0.00  0.00    -0.101 C 
BRANCH  23  24
ATOM     24  C30 <0> A   1     -24.346 -12.236  49.012  0.00  0.00    +0.490 C 
ATOM     25  O1  <0> A   1     -25.041 -13.158  49.400  0.00  0.00    -0.681 OA
ATOM     26  O2  <0> A   1     -23.226 -12.456  48.582  0.00  0.00    -0.713 OA
ENDBRANCH  23  24
ENDBRANCH  20  23
ENDBRANCH  19  20
ENDBRANCH  16  19
ENDBRANCH  15  16
ENDBRANCH   4  14
BRANCH   1  27
ATOM     27  C3  <0> A   1     -25.090  -0.691  52.757  0.00  0.00    +0.023 C 
BRANCH  27  28
ATOM     28  C6  <0> A   1     -26.256  -0.040  52.060  0.00  0.00    -0.055 A 
ATOM     29  C7  <0> A   1     -27.318   0.448  52.797  0.00  0.00    +0.009 A 
ATOM     30  C8  <0> A   1     -28.387   1.046  52.157  0.00  0.00    +0.002 A 
ATOM     31  C9  <0> A   1     -28.394   1.157  50.779  0.00  0.00    -0.009 A 
ATOM     32  C10 <0> A   1     -27.331   0.670  50.041  0.00  0.00    -0.001 A 
ATOM     33  C11 <0> A   1     -26.259   0.076  50.682  0.00  0.00    +0.003 A 
ENDBRANCH  27  28
BRANCH  27  35
ATOM     34  C1  <0> A   1     -24.034   1.567  52.594  0.00  0.00    +0.013 C 
ATOM     35  C2  <0> A   1     -23.804   0.065  52.416  0.00  0.00    +0.025 C 
ENDBRANCH  27  35
BRANCH  27  36
ATOM     36  C4  <0> A   1     -25.315  -0.656  54.270  0.00  0.00    +0.029 C 
ATOM     37  C5  <0> A   1     -23.971  -0.789  54.989  0.00  0.00    +0.012 C 
ENDBRANCH  27  36
ENDBRANCH   1  27
TORSDOF 13
ENDMDL
MODEL 6
REMARK VINA RESULT:      -7.3      2.806      4.935
REMARK  Name = CHEMBL562679
REMARK  15 active torsions:
REMARK  status: ('A' for Active; 'I' for Inactive)
REMARK    1  A    between atoms: C1_1  and  C2_2
REMARK    2  A    between atoms: C2_2  and  C3_3
REMARK    3  A    between atoms: C3_3  and  C4_4
REMARK    4  A    between atoms: C3_3  and  C6_6
REMARK    5  A    between atoms: C3_3  and  C12_12
REMARK    6  A    between atoms: C4_4  and  C5_5
REMARK    7  A    between atoms: C15_15  and  C24_25
REMARK    8  A    between atoms: C16_16  and  C18_18
REMARK    9  A    between atoms: C25_26  and  C26_27
REMARK   10  A    between atoms: C26_27  and  C27_29
REMARK   11  A    between atoms: C26_27  and  O4_37
REMARK   12  A    between atoms: C27_29  and  C28_30
REMARK   13  A    between atoms: C28_30  and  C29_32
REMARK   14  A    between atoms: C28_30  and  O3_36
REMARK   15  A    between atoms: C29_32  and  C30_33
REMARK                            x       y       z     vdW  Elec       q    Type
REMARK                         _______ _______ _______ _____ _____    ______ ____
ROOT
ATOM      1  C12 <0> A   1     -25.963  -3.211  51.577  0.00  0.00    -0.073 A 
ATOM      2  C13 <0> A   1     -27.259  -3.383  52.033  0.00  0.00    +0.022 A 
ATOM      3  C14 <0> A   1     -27.813  -4.644  52.102  0.00  0.00    +0.010 A 
ATOM      4  C15 <0> A   1     -27.066  -5.755  51.712  0.00  0.00    -0.030 A 
ATOM      5  C16 <0> A   1     -25.750  -5.580  51.250  0.00  0.00    -0.047 A 
ATOM      6  C17 <0> A   1     -25.210  -4.299  51.182  0.00  0.00    +0.035 A 
ENDROOT
BRANCH   5   7
ATOM      7  C18 <0> A   1     -24.944  -6.752  50.833  0.00  0.00    -0.051 A 
ATOM      8  C19 <0> A   1     -24.281  -7.520  51.789  0.00  0.00    +0.060 A 
ATOM      9  C20 <0> A   1     -23.532  -8.611  51.396  0.00  0.00    -0.009 A 
ATOM     10  C21 <0> A   1     -23.438  -8.941  50.054  0.00  0.00    +0.100 A 
ATOM     11  C22 <0> A   1     -24.094  -8.180  49.100  0.00  0.00    -0.016 A 
ATOM     12  C23 <0> A   1     -24.851  -7.092  49.484  0.00  0.00    +0.052 A 
ATOM     13  F1  <0> A   1     -22.702 -10.009  49.674  0.00  0.00    -0.140 F 
ENDBRANCH   5   7
BRANCH   4  14
ATOM     14  C24 <0> A   1     -27.654  -7.108  51.785  0.00  0.00    -0.002 C 
ATOM     15  C25 <0> A   1     -28.156  -7.673  50.695  0.00  0.00    -0.047 C 
BRANCH  15  16
ATOM     16  C26 <0> A   1     -28.757  -9.053  50.770  0.00  0.00    +0.249 C 
BRANCH  16  17
ATOM     17  O4  <0> A   1     -27.712 -10.027  50.800  0.00  0.00    -0.536 OA
ATOM     18  H32 <0> A   1     -27.378 -10.272  49.926  0.00  0.00    +0.364 HD
ENDBRANCH  16  17
BRANCH  16  19
ATOM     19  C27 <0> A   1     -29.603  -9.173  52.039  0.00  0.00    -0.041 C 
BRANCH  19  20
ATOM     20  C28 <0> A   1     -30.537 -10.379  51.918  0.00  0.00    +0.231 C 
BRANCH  20  21
ATOM     21  O3  <0> A   1     -30.327 -11.018  50.658  0.00  0.00    -0.528 OA
ATOM     22  H31 <0> A   1     -31.136 -11.151  50.144  0.00  0.00    +0.350 HD
ENDBRANCH  20  21
BRANCH  20  23
ATOM     23  C29 <0> A   1     -30.242 -11.367  53.048  0.00  0.00    -0.101 C 
BRANCH  23  24
ATOM     24  C30 <0> A   1     -29.582 -12.597  52.479  0.00  0.00    +0.490 C 
ATOM     25  O1  <0> A   1     -30.234 -13.611  52.299  0.00  0.00    -0.681 OA
ATOM     26  O2  <0> A   1     -28.395 -12.578  52.200  0.00  0.00    -0.713 OA
ENDBRANCH  23  24
ENDBRANCH  20  23
ENDBRANCH  19  20
ENDBRANCH  16  19
ENDBRANCH  15  16
ENDBRANCH   4  14
BRANCH   1  27
ATOM     27  C3  <0> A   1     -25.370  -1.827  51.507  0.00  0.00    +0.023 C 
BRANCH  27  28
ATOM     28  C6  <0> A   1     -24.786  -1.461  52.847  0.00  0.00    -0.055 A 
ATOM     29  C7  <0> A   1     -25.535  -0.732  53.752  0.00  0.00    +0.009 A 
ATOM     30  C8  <0> A   1     -25.000  -0.397  54.982  0.00  0.00    +0.002 A 
ATOM     31  C9  <0> A   1     -23.715  -0.793  55.307  0.00  0.00    -0.009 A 
ATOM     32  C10 <0> A   1     -22.967  -1.523  54.403  0.00  0.00    -0.001 A 
ATOM     33  C11 <0> A   1     -23.504  -1.862  53.174  0.00  0.00    +0.003 A 
ENDBRANCH  27  28
BRANCH  27  35
ATOM     34  C1  <0> A   1     -26.865  -1.024  49.672  0.00  0.00    +0.013 C 
ATOM     35  C2  <0> A   1     -26.464  -0.823  51.136  0.00  0.00    +0.025 C 
ENDBRANCH  27  35
BRANCH  27  36
ATOM     36  C4  <0> A   1     -24.269  -1.796  50.445  0.00  0.00    +0.029 C 
ATOM     37  C5  <0> A   1     -23.672  -0.390  50.372  0.00  0.00    +0.012 C 
ENDBRANCH  27  36
ENDBRANCH   1  27
TORSDOF 13
ENDMDL
MODEL 7
REMARK VINA RESULT:      -7.3      2.845      5.099
REMARK  Name = CHEMBL562679
REMARK  15 active torsions:
REMARK  status: ('A' for Active; 'I' for Inactive)
REMARK    1  A    between atoms: C1_1  and  C2_2
REMARK    2  A    between atoms: C2_2  and  C3_3
REMARK    3  A    between atoms: C3_3  and  C4_4
REMARK    4  A    between atoms: C3_3  and  C6_6
REMARK    5  A    between atoms: C3_3  and  C12_12
REMARK    6  A    between atoms: C4_4  and  C5_5
REMARK    7  A    between atoms: C15_15  and  C24_25
REMARK    8  A    between atoms: C16_16  and  C18_18
REMARK    9  A    between atoms: C25_26  and  C26_27
REMARK   10  A    between atoms: C26_27  and  C27_29
REMARK   11  A    between atoms: C26_27  and  O4_37
REMARK   12  A    between atoms: C27_29  and  C28_30
REMARK   13  A    between atoms: C28_30  and  C29_32
REMARK   14  A    between atoms: C28_30  and  O3_36
REMARK   15  A    between atoms: C29_32  and  C30_33
REMARK                            x       y       z     vdW  Elec       q    Type
REMARK                         _______ _______ _______ _____ _____    ______ ____
ROOT
ATOM      1  C12 <0> A   1     -25.972  -3.183  51.769  0.00  0.00    -0.073 A 
ATOM      2  C13 <0> A   1     -27.277  -3.366  52.195  0.00  0.00    +0.022 A 
ATOM      3  C14 <0> A   1     -27.833  -4.629  52.216  0.00  0.00    +0.010 A 
ATOM      4  C15 <0> A   1     -27.079  -5.729  51.807  0.00  0.00    -0.030 A 
ATOM      5  C16 <0> A   1     -25.756  -5.541  51.375  0.00  0.00    -0.047 A 
ATOM      6  C17 <0> A   1     -25.213  -4.259  51.355  0.00  0.00    +0.035 A 
ENDROOT
BRANCH   5   7
ATOM      7  C18 <0> A   1     -24.943  -6.701  50.938  0.00  0.00    -0.051 A 
ATOM      8  C19 <0> A   1     -24.339  -7.528  51.884  0.00  0.00    +0.060 A 
ATOM      9  C20 <0> A   1     -23.583  -8.607  51.472  0.00  0.00    -0.009 A 
ATOM     10  C21 <0> A   1     -23.424  -8.868  50.121  0.00  0.00    +0.100 A 
ATOM     11  C22 <0> A   1     -24.022  -8.049  49.177  0.00  0.00    -0.016 A 
ATOM     12  C23 <0> A   1     -24.784  -6.972  49.579  0.00  0.00    +0.052 A 
ATOM     13  F1  <0> A   1     -22.682  -9.926  49.723  0.00  0.00    -0.140 F 
ENDBRANCH   5   7
BRANCH   4  14
ATOM     14  C24 <0> A   1     -27.670  -7.082  51.828  0.00  0.00    -0.002 C 
ATOM     15  C25 <0> A   1     -28.248  -7.571  50.739  0.00  0.00    -0.047 C 
BRANCH  15  16
ATOM     16  C26 <0> A   1     -28.852  -8.952  50.762  0.00  0.00    +0.249 C 
BRANCH  16  17
ATOM     17  O4  <0> A   1     -27.809  -9.928  50.786  0.00  0.00    -0.536 OA
ATOM     18  H32 <0> A   1     -27.466 -10.115  51.671  0.00  0.00    +0.364 HD
ENDBRANCH  16  17
BRANCH  16  19
ATOM     19  C27 <0> A   1     -29.725  -9.107  52.008  0.00  0.00    -0.041 C 
BRANCH  19  20
ATOM     20  C28 <0> A   1     -30.599 -10.355  51.867  0.00  0.00    +0.231 C 
BRANCH  20  21
ATOM     21  O3  <0> A   1     -30.339 -10.978  50.609  0.00  0.00    -0.528 OA
ATOM     22  H31 <0> A   1     -31.034 -10.842  49.950  0.00  0.00    +0.350 HD
ENDBRANCH  20  21
BRANCH  20  23
ATOM     23  C29 <0> A   1     -30.277 -11.333  52.999  0.00  0.00    -0.101 C 
BRANCH  23  24
ATOM     24  C30 <0> A   1     -29.618 -12.561  52.428  0.00  0.00    +0.490 C 
ATOM     25  O1  <0> A   1     -30.264 -13.581  52.263  0.00  0.00    -0.681 OA
ATOM     26  O2  <0> A   1     -28.435 -12.535  52.130  0.00  0.00    -0.713 OA
ENDBRANCH  23  24
ENDBRANCH  20  23
ENDBRANCH  19  20
ENDBRANCH  16  19
ENDBRANCH  15  16
ENDBRANCH   4  14
BRANCH   1  27
ATOM     27  C3  <0> A   1     -25.377  -1.798  51.751  0.00  0.00    +0.023 C 
BRANCH  27  28
ATOM     28  C6  <0> A   1     -24.038  -1.817  52.443  0.00  0.00    -0.055 A 
ATOM     29  C7  <0> A   1     -23.954  -1.546  53.795  0.00  0.00    +0.009 A 
ATOM     30  C8  <0> A   1     -22.727  -1.564  54.429  0.00  0.00    +0.002 A 
ATOM     31  C9  <0> A   1     -21.582  -1.855  53.711  0.00  0.00    -0.009 A 
ATOM     32  C10 <0> A   1     -21.665  -2.127  52.358  0.00  0.00    -0.001 A 
ATOM     33  C11 <0> A   1     -22.894  -2.113  51.724  0.00  0.00    +0.003 A 
ENDBRANCH  27  28
BRANCH  27  35
ATOM     34  C1  <0> A   1     -25.909   0.609  52.159  0.00  0.00    +0.013 C 
ATOM     35  C2  <0> A   1     -26.314  -0.832  52.479  0.00  0.00    +0.025 C 
ENDBRANCH  27  35
BRANCH  27  36
ATOM     36  C4  <0> A   1     -25.197  -1.338  50.303  0.00  0.00    +0.029 C 
ATOM     37  C5  <0> A   1     -26.542  -1.401  49.577  0.00  0.00    +0.012 C 
ENDBRANCH  27  36
ENDBRANCH   1  27
TORSDOF 13
ENDMDL
MODEL 8
REMARK VINA RESULT:      -7.3      2.889      5.045
REMARK  Name = CHEMBL562679
REMARK  15 active torsions:
REMARK  status: ('A' for Active; 'I' for Inactive)
REMARK    1  A    between atoms: C1_1  and  C2_2
REMARK    2  A    between atoms: C2_2  and  C3_3
REMARK    3  A    between atoms: C3_3  and  C4_4
REMARK    4  A    between atoms: C3_3  and  C6_6
REMARK    5  A    between atoms: C3_3  and  C12_12
REMARK    6  A    between atoms: C4_4  and  C5_5
REMARK    7  A    between atoms: C15_15  and  C24_25
REMARK    8  A    between atoms: C16_16  and  C18_18
REMARK    9  A    between atoms: C25_26  and  C26_27
REMARK   10  A    between atoms: C26_27  and  C27_29
REMARK   11  A    between atoms: C26_27  and  O4_37
REMARK   12  A    between atoms: C27_29  and  C28_30
REMARK   13  A    between atoms: C28_30  and  C29_32
REMARK   14  A    between atoms: C28_30  and  O3_36
REMARK   15  A    between atoms: C29_32  and  C30_33
REMARK                            x       y       z     vdW  Elec       q    Type
REMARK                         _______ _______ _______ _____ _____    ______ ____
ROOT
ATOM      1  C12 <0> A   1     -25.790  -3.307  51.752  0.00  0.00    -0.073 A 
ATOM      2  C13 <0> A   1     -27.104  -3.460  52.163  0.00  0.00    +0.022 A 
ATOM      3  C14 <0> A   1     -27.691  -4.708  52.172  0.00  0.00    +0.010 A 
ATOM      4  C15 <0> A   1     -26.959  -5.825  51.766  0.00  0.00    -0.030 A 
ATOM      5  C16 <0> A   1     -25.627  -5.668  51.349  0.00  0.00    -0.047 A 
ATOM      6  C17 <0> A   1     -25.053  -4.399  51.341  0.00  0.00    +0.035 A 
ENDROOT
BRANCH   5   7
ATOM      7  C18 <0> A   1     -24.838  -6.845  50.914  0.00  0.00    -0.051 A 
ATOM      8  C19 <0> A   1     -24.709  -7.139  49.558  0.00  0.00    +0.060 A 
ATOM      9  C20 <0> A   1     -23.973  -8.236  49.158  0.00  0.00    -0.009 A 
ATOM     10  C21 <0> A   1     -23.364  -9.044  50.103  0.00  0.00    +0.100 A 
ATOM     11  C22 <0> A   1     -23.490  -8.757  51.453  0.00  0.00    -0.016 A 
ATOM     12  C23 <0> A   1     -24.217  -7.659  51.861  0.00  0.00    +0.052 A 
ATOM     13  F1  <0> A   1     -22.645 -10.118  49.707  0.00  0.00    -0.140 F 
ENDBRANCH   5   7
BRANCH   4  14
ATOM     14  C24 <0> A   1     -27.583  -7.163  51.774  0.00  0.00    -0.002 C 
ATOM     15  C25 <0> A   1     -28.231  -7.601  50.702  0.00  0.00    -0.047 C 
BRANCH  15  16
ATOM     16  C26 <0> A   1     -28.868  -8.967  50.712  0.00  0.00    +0.249 C 
BRANCH  16  17
ATOM     17  O4  <0> A   1     -27.849  -9.967  50.723  0.00  0.00    -0.536 OA
ATOM     18  H32 <0> A   1     -28.031 -10.708  51.318  0.00  0.00    +0.364 HD
ENDBRANCH  16  17
BRANCH  16  19
ATOM     19  C27 <0> A   1     -29.741  -9.113  51.960  0.00  0.00    -0.041 C 
BRANCH  19  20
ATOM     20  C28 <0> A   1     -30.630 -10.351  51.817  0.00  0.00    +0.231 C 
BRANCH  20  21
ATOM     21  O3  <0> A   1     -30.373 -10.979  50.560  0.00  0.00    -0.528 OA
ATOM     22  H31 <0> A   1     -29.446 -11.215  50.420  0.00  0.00    +0.350 HD
ENDBRANCH  20  21
BRANCH  20  23
ATOM     23  C29 <0> A   1     -30.323 -11.331  52.951  0.00  0.00    -0.101 C 
BRANCH  23  24
ATOM     24  C30 <0> A   1     -29.647 -12.554  52.387  0.00  0.00    +0.490 C 
ATOM     25  O1  <0> A   1     -30.282 -13.581  52.221  0.00  0.00    -0.681 OA
ATOM     26  O2  <0> A   1     -28.462 -12.517  52.098  0.00  0.00    -0.713 OA
ENDBRANCH  23  24
ENDBRANCH  20  23
ENDBRANCH  19  20
ENDBRANCH  16  19
ENDBRANCH  15  16
ENDBRANCH   4  14
BRANCH   1  27
ATOM     27  C3  <0> A   1     -25.161  -1.937  51.747  0.00  0.00    +0.023 C 
BRANCH  27  28
ATOM     28  C6  <0> A   1     -23.792  -2.009  52.373  0.00  0.00    -0.055 A 
ATOM     29  C7  <0> A   1     -22.698  -2.359  51.605  0.00  0.00    +0.009 A 
ATOM     30  C8  <0> A   1     -21.443  -2.425  52.179  0.00  0.00    +0.002 A 
ATOM     31  C9  <0> A   1     -21.281  -2.141  53.522  0.00  0.00    -0.009 A 
ATOM     32  C10 <0> A   1     -22.376  -1.790  54.291  0.00  0.00    -0.001 A 
ATOM     33  C11 <0> A   1     -23.631  -1.720  53.715  0.00  0.00    +0.003 A 
ENDBRANCH  27  28
BRANCH  27  35
ATOM     34  C1  <0> A   1     -25.710   0.468  52.144  0.00  0.00    +0.013 C 
ATOM     35  C2  <0> A   1     -26.038  -0.971  52.548  0.00  0.00    +0.025 C 
ENDBRANCH  27  35
BRANCH  27  36
ATOM     36  C4  <0> A   1     -25.038  -1.437  50.306  0.00  0.00    +0.029 C 
ATOM     37  C5  <0> A   1     -26.395  -1.547  49.610  0.00  0.00    +0.012 C 
ENDBRANCH  27  36
ENDBRANCH   1  27
TORSDOF 13
ENDMDL
MODEL 9
REMARK VINA RESULT:      -7.3      3.072      5.723
REMARK  Name = CHEMBL562679
REMARK  15 active torsions:
REMARK  status: ('A' for Active; 'I' for Inactive)
REMARK    1  A    between atoms: C1_1  and  C2_2
REMARK    2  A    between atoms: C2_2  and  C3_3
REMARK    3  A    between atoms: C3_3  and  C4_4
REMARK    4  A    between atoms: C3_3  and  C6_6
REMARK    5  A    between atoms: C3_3  and  C12_12
REMARK    6  A    between atoms: C4_4  and  C5_5
REMARK    7  A    between atoms: C15_15  and  C24_25
REMARK    8  A    between atoms: C16_16  and  C18_18
REMARK    9  A    between atoms: C25_26  and  C26_27
REMARK   10  A    between atoms: C26_27  and  C27_29
REMARK   11  A    between atoms: C26_27  and  O4_37
REMARK   12  A    between atoms: C27_29  and  C28_30
REMARK   13  A    between atoms: C28_30  and  C29_32
REMARK   14  A    between atoms: C28_30  and  O3_36
REMARK   15  A    between atoms: C29_32  and  C30_33
REMARK                            x       y       z     vdW  Elec       q    Type
REMARK                         _______ _______ _______ _____ _____    ______ ____
ROOT
ATOM      1  C12 <0> A   1     -24.446  -3.058  51.985  0.00  0.00    -0.073 A 
ATOM      2  C13 <0> A   1     -25.770  -2.839  52.332  0.00  0.00    +0.022 A 
ATOM      3  C14 <0> A   1     -26.687  -3.867  52.267  0.00  0.00    +0.010 A 
ATOM      4  C15 <0> A   1     -26.283  -5.136  51.851  0.00  0.00    -0.030 A 
ATOM      5  C16 <0> A   1     -24.940  -5.356  51.500  0.00  0.00    -0.047 A 
ATOM      6  C17 <0> A   1     -24.030  -4.305  51.567  0.00  0.00    +0.035 A 
ENDROOT
BRANCH   5   7
ATOM      7  C18 <0> A   1     -24.497  -6.700  51.058  0.00  0.00    -0.051 A 
ATOM      8  C19 <0> A   1     -24.569  -7.051  49.710  0.00  0.00    +0.060 A 
ATOM      9  C20 <0> A   1     -24.155  -8.303  49.302  0.00  0.00    -0.009 A 
ATOM     10  C21 <0> A   1     -23.668  -9.209  50.230  0.00  0.00    +0.100 A 
ATOM     11  C22 <0> A   1     -23.594  -8.865  51.570  0.00  0.00    -0.016 A 
ATOM     12  C23 <0> A   1     -24.000  -7.614  51.986  0.00  0.00    +0.052 A 
ATOM     13  F1  <0> A   1     -23.264 -10.434  49.826  0.00  0.00    -0.140 F 
ENDBRANCH   5   7
BRANCH   4  14
ATOM     14  C24 <0> A   1     -27.261  -6.240  51.781  0.00  0.00    -0.002 C 
ATOM     15  C25 <0> A   1     -28.374  -6.187  52.501  0.00  0.00    -0.047 C 
BRANCH  15  16
ATOM     16  C26 <0> A   1     -29.372  -7.315  52.430  0.00  0.00    +0.249 C 
BRANCH  16  17
ATOM     17  O4  <0> A   1     -28.769  -8.445  51.799  0.00  0.00    -0.536 OA
ATOM     18  H32 <0> A   1     -29.360  -9.204  51.703  0.00  0.00    +0.364 HD
ENDBRANCH  16  17
BRANCH  16  19
ATOM     19  C27 <0> A   1     -29.814  -7.695  53.844  0.00  0.00    -0.041 C 
BRANCH  19  20
ATOM     20  C28 <0> A   1     -31.076  -8.557  53.769  0.00  0.00    +0.231 C 
BRANCH  20  21
ATOM     21  O3  <0> A   1     -31.403  -8.804  52.401  0.00  0.00    -0.528 OA
ATOM     22  H31 <0> A   1     -31.245  -9.715  52.116  0.00  0.00    +0.350 HD
ENDBRANCH  20  21
BRANCH  20  23
ATOM     23  C29 <0> A   1     -30.827  -9.887  54.484  0.00  0.00    -0.101 C 
BRANCH  23  24
ATOM     24  C30 <0> A   1     -30.677 -10.985  53.462  0.00  0.00    +0.490 C 
ATOM     25  O1  <0> A   1     -29.627 -11.115  52.857  0.00  0.00    -0.681 OA
ATOM     26  O2  <0> A   1     -31.606 -11.742  53.239  0.00  0.00    -0.713 OA
ENDBRANCH  23  24
ENDBRANCH  20  23
ENDBRANCH  19  20
ENDBRANCH  16  19
ENDBRANCH  15  16
ENDBRANCH   4  14
BRANCH   1  27
ATOM     27  C3  <0> A   1     -23.455  -1.925  52.060  0.00  0.00    +0.023 C 
BRANCH  27  28
ATOM     28  C6  <0> A   1     -22.196  -2.403  52.736  0.00  0.00    -0.055 A 
ATOM     29  C7  <0> A   1     -21.126  -2.838  51.977  0.00  0.00    +0.009 A 
ATOM     30  C8  <0> A   1     -19.971  -3.276  52.597  0.00  0.00    +0.002 A 
ATOM     31  C9  <0> A   1     -19.885  -3.279  53.977  0.00  0.00    -0.009 A 
ATOM     32  C10 <0> A   1     -20.955  -2.843  54.737  0.00  0.00    -0.001 A 
ATOM     33  C11 <0> A   1     -22.109  -2.401  54.116  0.00  0.00    +0.003 A 
ENDBRANCH  27  28
BRANCH  27  35
ATOM     34  C1  <0> A   1     -23.138   0.448  52.777  0.00  0.00    +0.013 C 
ATOM     35  C2  <0> A   1     -24.059  -0.771  52.865  0.00  0.00    +0.025 C 
ENDBRANCH  27  35
BRANCH  27  36
ATOM     36  C4  <0> A   1     -23.124  -1.441  50.647  0.00  0.00    +0.029 C 
ATOM     37  C5  <0> A   1     -24.403  -0.958  49.961  0.00  0.00    +0.012 C 
ENDBRANCH  27  36
ENDBRANCH   1  27
TORSDOF 13
ENDMDL
MODEL 10
REMARK VINA RESULT:      -7.2     16.784     20.553
REMARK  Name = CHEMBL562679
REMARK  15 active torsions:
REMARK  status: ('A' for Active; 'I' for Inactive)
REMARK    1  A    between atoms: C1_1  and  C2_2
REMARK    2  A    between atoms: C2_2  and  C3_3
REMARK    3  A    between atoms: C3_3  and  C4_4
REMARK    4  A    between atoms: C3_3  and  C6_6
REMARK    5  A    between atoms: C3_3  and  C12_12
REMARK    6  A    between atoms: C4_4  and  C5_5
REMARK    7  A    between atoms: C15_15  and  C24_25
REMARK    8  A    between atoms: C16_16  and  C18_18
REMARK    9  A    between atoms: C25_26  and  C26_27
REMARK   10  A    between atoms: C26_27  and  C27_29
REMARK   11  A    between atoms: C26_27  and  O4_37
REMARK   12  A    between atoms: C27_29  and  C28_30
REMARK   13  A    between atoms: C28_30  and  C29_32
REMARK   14  A    between atoms: C28_30  and  O3_36
REMARK   15  A    between atoms: C29_32  and  C30_33
REMARK                            x       y       z     vdW  Elec       q    Type
REMARK                         _______ _______ _______ _____ _____    ______ ____
ROOT
ATOM      1  C12 <0> A   1     -12.783   9.997  47.533  0.00  0.00    -0.073 A 
ATOM      2  C13 <0> A   1     -11.742  10.440  46.735  0.00  0.00    +0.022 A 
ATOM      3  C14 <0> A   1     -11.393   9.747  45.594  0.00  0.00    +0.010 A 
ATOM      4  C15 <0> A   1     -12.092   8.592  45.241  0.00  0.00    -0.030 A 
ATOM      5  C16 <0> A   1     -13.148   8.143  46.052  0.00  0.00    -0.047 A 
ATOM      6  C17 <0> A   1     -13.482   8.854  47.202  0.00  0.00    +0.035 A 
ENDROOT
BRANCH   5   7
ATOM      7  C18 <0> A   1     -13.899   6.919  45.689  0.00  0.00    -0.051 A 
ATOM      8  C19 <0> A   1     -14.968   6.993  44.796  0.00  0.00    +0.060 A 
ATOM      9  C20 <0> A   1     -15.664   5.850  44.460  0.00  0.00    -0.009 A 
ATOM     10  C21 <0> A   1     -15.303   4.631  45.009  0.00  0.00    +0.100 A 
ATOM     11  C22 <0> A   1     -14.241   4.551  45.896  0.00  0.00    -0.016 A 
ATOM     12  C23 <0> A   1     -13.535   5.687  46.233  0.00  0.00    +0.052 A 
ATOM     13  F1  <0> A   1     -15.988   3.513  44.677  0.00  0.00    -0.140 F 
ENDBRANCH   5   7
BRANCH   4  14
ATOM     14  C24 <0> A   1     -11.723   7.846  44.021  0.00  0.00    -0.002 C 
ATOM     15  C25 <0> A   1     -12.098   8.295  42.830  0.00  0.00    -0.047 C 
BRANCH  15  16
ATOM     16  C26 <0> A   1     -11.722   7.533  41.585  0.00  0.00    +0.249 C 
BRANCH  16  17
ATOM     17  O4  <0> A   1     -11.579   6.147  41.900  0.00  0.00    -0.536 OA
ATOM     18  H32 <0> A   1     -11.845   5.918  42.801  0.00  0.00    +0.364 HD
ENDBRANCH  16  17
BRANCH  16  19
ATOM     19  C27 <0> A   1     -12.815   7.707  40.530  0.00  0.00    -0.041 C 
BRANCH  19  20
ATOM     20  C28 <0> A   1     -12.669   9.078  39.866  0.00  0.00    +0.231 C 
BRANCH  20  21
ATOM     21  O3  <0> A   1     -12.273   8.908  38.505  0.00  0.00    -0.528 OA
ATOM     22  H31 <0> A   1     -11.600   8.226  38.373  0.00  0.00    +0.350 HD
ENDBRANCH  20  21
BRANCH  20  23
ATOM     23  C29 <0> A   1     -14.010   9.815  39.920  0.00  0.00    -0.101 C 
BRANCH  23  24
ATOM     24  C30 <0> A   1     -13.784  11.284  39.673  0.00  0.00    +0.490 C 
ATOM     25  O1  <0> A   1     -12.936  11.646  38.876  0.00  0.00    -0.681 OA
ATOM     26  O2  <0> A   1     -14.449  12.113  40.272  0.00  0.00    -0.713 OA
ENDBRANCH  23  24
ENDBRANCH  20  23
ENDBRANCH  19  20
ENDBRANCH  16  19
ENDBRANCH  15  16
ENDBRANCH   4  14
BRANCH   1  27
ATOM     27  C3  <0> A   1     -13.153  10.765  48.777  0.00  0.00    +0.023 C 
BRANCH  27  28
ATOM     28  C6  <0> A   1     -11.928  10.957  49.633  0.00  0.00    -0.055 A 
ATOM     29  C7  <0> A   1     -11.403  12.222  49.816  0.00  0.00    +0.009 A 
ATOM     30  C8  <0> A   1     -10.279  12.398  50.601  0.00  0.00    +0.002 A 
ATOM     31  C9  <0> A   1      -9.681  11.307  51.204  0.00  0.00    -0.009 A 
ATOM     32  C10 <0> A   1     -10.206  10.042  51.022  0.00  0.00    -0.001 A 
ATOM     33  C11 <0> A   1     -11.332   9.867  50.240  0.00  0.00    +0.003 A 
ENDBRANCH  27  28
BRANCH  27  35
ATOM     34  C1  <0> A   1     -14.620  10.787  50.799  0.00  0.00    +0.013 C 
ATOM     35  C2  <0> A   1     -14.208   9.984  49.563  0.00  0.00    +0.025 C 
ENDBRANCH  27  35
BRANCH  27  36
ATOM     36  C4  <0> A   1     -13.720  12.131  48.383  0.00  0.00    +0.029 C 
ATOM     37  C5  <0> A   1     -14.866  11.940  47.388  0.00  0.00    +0.012 C 
ENDBRANCH  27  36
ENDBRANCH   1  27
TORSDOF 13
ENDMDL
