REMARK VINA RESULT:      -7.8      7.483     10.714
REMARK  Name = CHEMBL100721
REMARK  12 active torsions:
REMARK  status: ('A' for Active; 'I' for Inactive)
REMARK    1  A    between atoms: C6_6  and  C7_7
REMARK    2  A    between atoms: C7_7  and  C8_8
REMARK    3  A    between atoms: C7_7  and  C14_15
REMARK    4  A    between atoms: C19_20  and  O1_21
REMARK    5  A    between atoms: O1_21  and  C20_22
REMARK    6  A    between atoms: C20_22  and  C21_23
REMARK    7  A    between atoms: C21_23  and  C22_24
REMARK    8  A    between atoms: C21_23  and  O5_32
REMARK    9  A    between atoms: C22_24  and  C23_25
REMARK   10  A    between atoms: C23_25  and  C24_27
REMARK   11  A    between atoms: C23_25  and  O4_31
REMARK   12  A    between atoms: C24_27  and  C25_28
REMARK                            x       y       z     vdW  Elec       q    Type
REMARK                         _______ _______ _______ _____ _____    ______ ____
ROOT
ATOM      1  C14 <0> A   1      -5.117   3.789  45.466  0.00  0.00    -0.071 A 
ATOM      2  C15 <0> A   1      -5.920   2.754  45.024  0.00  0.00    +0.059 A 
ATOM      3  C16 <0> A   1      -5.374   1.724  44.279  0.00  0.00    -0.030 A 
ATOM      4  C17 <0> A   1      -4.025   1.726  43.974  0.00  0.00    +0.058 A 
ATOM      5  C18 <0> A   1      -3.218   2.759  44.414  0.00  0.00    -0.045 A 
ATOM      6  C19 <0> A   1      -3.766   3.797  45.157  0.00  0.00    +0.124 A 
ATOM      7 Cl1  <0> A   1      -1.525   2.762  44.033  0.00  0.00    -0.036 Cl
ATOM      8 Cl2  <0> A   1      -6.385   0.425  43.726  0.00  0.00    -0.053 Cl
ENDROOT
BRANCH   1   9
ATOM      9  C7  <0> A   1      -5.712   4.910  46.278  0.00  0.00    +0.157 C 
BRANCH   9  15
ATOM     10  C1  <0> A   1      -6.944   5.285  44.131  0.00  0.00    +0.049 A 
ATOM     11  C2  <0> A   1      -7.902   5.937  43.379  0.00  0.00    -0.018 A 
ATOM     12  C3  <0> A   1      -8.676   6.930  43.956  0.00  0.00    +0.100 A 
ATOM     13  C4  <0> A   1      -8.489   7.267  45.285  0.00  0.00    -0.011 A 
ATOM     14  C5  <0> A   1      -7.531   6.613  46.035  0.00  0.00    +0.071 A 
ATOM     15  C6  <0> A   1      -6.758   5.623  45.459  0.00  0.00    -0.086 A 
ATOM     16  F2  <0> A   1      -9.613   7.569  43.221  0.00  0.00    -0.140 F 
ENDBRANCH   9  15
BRANCH   9  17
ATOM     17  C8  <0> A   1      -6.347   4.347  47.523  0.00  0.00    -0.090 A 
ATOM     18  C9  <0> A   1      -5.579   4.129  48.652  0.00  0.00    +0.045 A 
ATOM     19  C10 <0> A   1      -6.160   3.613  49.795  0.00  0.00    -0.013 A 
ATOM     20  C11 <0> A   1      -7.512   3.315  49.809  0.00  0.00    +0.099 A 
ATOM     21  C12 <0> A   1      -8.280   3.534  48.678  0.00  0.00    -0.012 A 
ATOM     22  C13 <0> A   1      -7.698   4.054  47.538  0.00  0.00    +0.061 A 
ATOM     23  F1  <0> A   1      -8.081   2.810  50.925  0.00  0.00    -0.140 F 
ENDBRANCH   9  17
ENDBRANCH   1   9
BRANCH   6  24
ATOM     24  O1  <0> A   1      -2.976   4.816  45.586  0.00  0.00    -0.309 OA
BRANCH  24  25
ATOM     25  C20 <0> A   1      -2.133   4.557  46.710  0.00  0.00    +0.155 C 
BRANCH  25  26
ATOM     26  C21 <0> A   1      -2.390   5.603  47.795  0.00  0.00    +0.229 C 
BRANCH  26  27
ATOM     27  O5  <0> A   1      -1.235   5.721  48.627  0.00  0.00    -0.530 OA
ATOM     28  H21 <0> A   1      -0.969   4.892  49.050  0.00  0.00    +0.363 HD
ENDBRANCH  26  27
BRANCH  26  29
ATOM     29  C22 <0> A   1      -2.687   6.954  47.141  0.00  0.00    -0.041 C 
BRANCH  29  30
ATOM     30  C23 <0> A   1      -3.433   7.849  48.132  0.00  0.00    +0.235 C 
BRANCH  30  31
ATOM     31  O4  <0> A   1      -3.845   7.071  49.258  0.00  0.00    -0.526 OA
ATOM     32  H20 <0> A   1      -4.478   7.518  49.836  0.00  0.00    +0.350 HD
ENDBRANCH  30  31
BRANCH  30  33
ATOM     33  C24 <0> A   1      -2.508   8.973  48.602  0.00  0.00    -0.101 C 
BRANCH  33  34
ATOM     34  C25 <0> A   1      -2.336   8.892  50.096  0.00  0.00    +0.490 C 
ATOM     35  O2  <0> A   1      -1.538   8.104  50.575  0.00  0.00    -0.680 OA
ATOM     36  O3  <0> A   1      -2.994   9.613  50.827  0.00  0.00    -0.712 OA
ENDBRANCH  33  34
ENDBRANCH  30  33
ENDBRANCH  29  30
ENDBRANCH  26  29
ENDBRANCH  25  26
ENDBRANCH  24  25
ENDBRANCH   6  24
TORSDOF 12
