REMARK VINA RESULT:      -8.4      0.000      0.000
REMARK  Name = CHEMBL63265
REMARK  13 active torsions:
REMARK  status: ('A' for Active; 'I' for Inactive)
REMARK    1  A    between atoms: C1_1  and  C2_2
REMARK    2  A    between atoms: C2_2  and  C3_3
REMARK    3  A    between atoms: C2_2  and  C4_4
REMARK    4  A    between atoms: C5_5  and  C19_22
REMARK    5  A    between atoms: C6_6  and  C13_15
REMARK    6  A    between atoms: N1_7  and  C7_9
REMARK    7  A    between atoms: C20_23  and  C21_24
REMARK    8  A    between atoms: C21_24  and  C22_25
REMARK    9  A    between atoms: C21_24  and  O4_33
REMARK   10  A    between atoms: C22_25  and  C23_26
REMARK   11  A    between atoms: C23_26  and  C24_28
REMARK   12  A    between atoms: C23_26  and  O3_32
REMARK   13  A    between atoms: C24_28  and  C25_29
REMARK                            x       y       z     vdW  Elec       q    Type
REMARK                         _______ _______ _______ _____ _____    ______ ____
ROOT
ATOM      1  C4  <0> A   1     -14.745   6.559  45.304  0.00  0.00    +0.105 C 
ATOM      2  C5  <0> A   1     -13.874   7.617  44.978  0.00  0.00    -0.165 C 
ATOM      3  C6  <0> A   1     -14.145   8.659  45.857  0.00  0.00    +0.126 C 
ATOM      4  N1  <0> A   1     -15.147   8.234  46.681  0.00  0.00    -0.319 N 
ATOM      5  N2  <0> A   1     -15.496   6.931  46.306  0.00  0.00    -0.276 NA
ENDROOT
BRANCH   3   6
ATOM      6  C13 <0> A   1     -13.477   9.975  45.893  0.00  0.00    -0.049 A 
ATOM      7  C14 <0> A   1     -12.452  10.216  46.810  0.00  0.00    +0.090 A 
ATOM      8  C15 <0> A   1     -11.831  11.447  46.838  0.00  0.00    -0.006 A 
ATOM      9  C16 <0> A   1     -12.224  12.444  45.961  0.00  0.00    +0.113 A 
ATOM     10  C17 <0> A   1     -13.241  12.212  45.049  0.00  0.00    -0.013 A 
ATOM     11  C18 <0> A   1     -13.865  10.983  45.007  0.00  0.00    +0.062 A 
ATOM     12  F1  <0> A   1     -11.613  13.649  45.994  0.00  0.00    -0.135 F 
ENDBRANCH   3   6
BRANCH   4  13
ATOM     13  C7  <0> A   1     -15.728   8.973  47.720  0.00  0.00    +0.155 A 
ATOM     14  C8  <0> A   1     -16.192  10.260  47.482  0.00  0.00    +0.005 A 
ATOM     15  C9  <0> A   1     -16.765  10.986  48.508  0.00  0.00    +0.034 A 
ATOM     16  C10 <0> A   1     -16.877  10.432  49.770  0.00  0.00    +0.007 A 
ATOM     17  C11 <0> A   1     -16.417   9.151  50.010  0.00  0.00    +0.030 A 
ATOM     18  C12 <0> A   1     -15.848   8.418  48.987  0.00  0.00    +0.021 A 
ENDBRANCH   4  13
BRANCH   1  20
ATOM     19  C1  <0> A   1     -14.214   4.146  45.523  0.00  0.00    +0.036 C 
ATOM     20  C2  <0> A   1     -14.804   5.222  44.610  0.00  0.00    +0.079 C 
ATOM     21  C3  <0> A   1     -16.261   4.878  44.290  0.00  0.00    +0.036 C 
ENDBRANCH   1  20
BRANCH   2  22
ATOM     22  C19 <0> A   1     -12.862   7.619  43.903  0.00  0.00    +0.040 C 
ATOM     23  C20 <0> A   1     -13.238   7.761  42.638  0.00  0.00    -0.056 C 
BRANCH  23  24
ATOM     24  C21 <0> A   1     -12.205   7.763  41.541  0.00  0.00    +0.250 C 
BRANCH  24  25
ATOM     25  O4  <0> A   1     -11.544   6.496  41.508  0.00  0.00    -0.539 OA
ATOM     26  H26 <0> A   1     -11.928   5.836  42.101  0.00  0.00    +0.366 HD
ENDBRANCH  24  25
BRANCH  24  27
ATOM     27  C22 <0> A   1     -12.889   8.017  40.196  0.00  0.00    -0.042 C 
BRANCH  27  28
ATOM     28  C23 <0> A   1     -12.410   9.353  39.624  0.00  0.00    +0.230 C 
BRANCH  28  29
ATOM     29  O3  <0> A   1     -12.805   9.455  38.255  0.00  0.00    -0.528 OA
ATOM     30  H25 <0> A   1     -13.337  10.238  38.057  0.00  0.00    +0.350 HD
ENDBRANCH  28  29
BRANCH  28  31
ATOM     31  C24 <0> A   1     -13.032  10.501  40.422  0.00  0.00    -0.102 C 
BRANCH  31  32
ATOM     32  C25 <0> A   1     -13.912  11.322  39.516  0.00  0.00    +0.491 C 
ATOM     33  O1  <0> A   1     -15.124  11.197  39.566  0.00  0.00    -0.681 OA
ATOM     34  O2  <0> A   1     -13.413  12.113  38.734  0.00  0.00    -0.714 OA
ENDBRANCH  31  32
ENDBRANCH  28  31
ENDBRANCH  27  28
ENDBRANCH  24  27
ENDBRANCH  23  24
ENDBRANCH   2  22
TORSDOF 11
