REMARK VINA RESULT:      -8.5      0.000      0.000
REMARK  Name = CHEMBL46057
REMARK  6 active torsions:
REMARK  status: ('A' for Active; 'I' for Inactive)
REMARK    1  A    between atoms: C4_4  and  C7_7
REMARK    2  A    between atoms: C7_7  and  O1_8
REMARK    3  A    between atoms: O1_8  and  C8_9
REMARK    4  A    between atoms: C11_12  and  C14_16
REMARK    5  A    between atoms: C15_17  and  C16_18
REMARK    6  A    between atoms: C18_20  and  O4_26
REMARK                            x       y       z     vdW  Elec       q    Type
REMARK                         _______ _______ _______ _____ _____    ______ ____
ROOT
ATOM      1  C8  <0> A   1      -5.971   0.938  43.748  0.00  0.00    +0.160 A 
ATOM      2  C9  <0> A   1      -6.876   1.899  44.179  0.00  0.00    -0.051 A 
ATOM      3  C10 <0> A   1      -6.428   3.029  44.830  0.00  0.00    +0.025 A 
ATOM      4  C11 <0> A   1      -5.061   3.206  45.058  0.00  0.00    -0.078 A 
ATOM      5  C12 <0> A   1      -4.154   2.237  44.622  0.00  0.00    +0.019 A 
ATOM      6  C13 <0> A   1      -4.612   1.107  43.976  0.00  0.00    +0.013 A 
ATOM      7 Cl1  <0> A   1      -2.454   2.451  44.900  0.00  0.00    -0.037 Cl
ATOM      8 Cl2  <0> A   1      -7.561   4.229  45.367  0.00  0.00    -0.042 Cl
ENDROOT
BRANCH   4   9
ATOM      9  C14 <0> A   1      -4.577   4.416  45.755  0.00  0.00    +0.046 C 
ATOM     10  C15 <0> A   1      -4.791   4.561  47.055  0.00  0.00    -0.003 C 
BRANCH  10  11
ATOM     11  C16 <0> A   1      -4.298   5.795  47.767  0.00  0.00    +0.243 C 
ATOM     12  C17 <0> A   1      -2.915   6.175  47.233  0.00  0.00    +0.051 C 
ATOM     13  C18 <0> A   1      -2.400   7.404  47.989  0.00  0.00    +0.186 C 
ATOM     14  C19 <0> A   1      -2.320   7.071  49.484  0.00  0.00    +0.024 C 
ATOM     15  C20 <0> A   1      -3.657   6.511  49.918  0.00  0.00    +0.497 C 
ATOM     16  O2  <0> A   1      -4.215   6.929  50.905  0.00  0.00    -0.451 OA
ATOM     17  O3  <0> A   1      -4.208   5.531  49.172  0.00  0.00    -0.368 OA
BRANCH  13  18
ATOM     18  O4  <0> A   1      -3.296   8.500  47.788  0.00  0.00    -0.564 OA
ATOM     19  H18 <0> A   1      -2.871   9.298  47.446  0.00  0.00    +0.387 HD
ENDBRANCH  13  18
ENDBRANCH  10  11
ENDBRANCH   4   9
BRANCH   1  20
ATOM     20  O1  <0> A   1      -6.417  -0.174  43.106  0.00  0.00    -0.297 OA
BRANCH  20  21
ATOM     21  C7  <0> A   1      -7.700  -0.092  42.483  0.00  0.00    +0.252 C 
BRANCH  21  25
ATOM     22  C1  <0> A   1      -8.079  -3.214  39.591  0.00  0.00    +0.019 A 
ATOM     23  C2  <0> A   1      -7.032  -3.232  40.495  0.00  0.00    +0.004 A 
ATOM     24  C3  <0> A   1      -6.910  -2.222  41.430  0.00  0.00    +0.031 A 
ATOM     25  C4  <0> A   1      -7.833  -1.193  41.462  0.00  0.00    -0.101 A 
ATOM     26  C5  <0> A   1      -8.879  -1.175  40.558  0.00  0.00    +0.031 A 
ATOM     27  C6  <0> A   1      -9.002  -2.186  39.624  0.00  0.00    +0.004 A 
ENDBRANCH  21  25
ENDBRANCH  20  21
ENDBRANCH   1  20
TORSDOF 6
