REMARK VINA RESULT:      -8.2      2.908      7.546
REMARK  Name = CHEMBL228954
REMARK  13 active torsions:
REMARK  status: ('A' for Active; 'I' for Inactive)
REMARK    1  A    between atoms: C1_1  and  C2_2
REMARK    2  A    between atoms: C2_2  and  C3_3
REMARK    3  A    between atoms: C2_2  and  N1_4
REMARK    4  A    between atoms: C4_5  and  C21_26
REMARK    5  A    between atoms: C5_6  and  C15_19
REMARK    6  A    between atoms: C21_26  and  C22_27
REMARK    7  A    between atoms: C22_27  and  C23_28
REMARK    8  A    between atoms: C23_28  and  C24_30
REMARK    9  A    between atoms: C23_28  and  O5_38
REMARK   10  A    between atoms: C24_30  and  C25_31
REMARK   11  A    between atoms: C25_31  and  C26_33
REMARK   12  A    between atoms: C25_31  and  O4_37
REMARK   13  A    between atoms: C26_33  and  C27_34
REMARK                            x       y       z     vdW  Elec       q    Type
REMARK                         _______ _______ _______ _____ _____    ______ ____
ROOT
ATOM      1  N1  <0> A   1     -14.372   7.092  45.975  0.00  0.00    -0.392 N 
ATOM      2  C4  <0> A   1     -14.729   8.088  46.823  0.00  0.00    +0.109 C 
ATOM      3  C5  <0> A   1     -14.613   9.290  46.187  0.00  0.00    -0.131 C 
ATOM      4  C6  <0> A   1     -14.144   9.001  44.837  0.00  0.00    -0.042 C 
ATOM      5  C7  <0> A   1     -14.004   7.615  44.757  0.00  0.00    -0.048 C 
ATOM      6  C8  <0> A   1     -13.553   7.034  43.550  0.00  0.00    +0.580 C 
ATOM      7  O1  <0> A   1     -13.434   5.823  43.480  0.00  0.00    -0.535 OA
ATOM      8  N2  <0> A   1     -13.253   7.787  42.478  0.00  0.00    -0.629 N 
ATOM      9  H1  <0> A   1     -12.946   7.350  41.667  0.00  0.00    +0.418 HD
ATOM     10  C9  <0> A   1     -13.368   9.165  42.496  0.00  0.00    +0.160 A 
ATOM     11  C10 <0> A   1     -13.818   9.815  43.658  0.00  0.00    -0.055 A 
ATOM     12  C11 <0> A   1     -13.933  11.203  43.678  0.00  0.00    +0.065 A 
ATOM     13  C12 <0> A   1     -13.619  11.932  42.551  0.00  0.00    -0.015 A 
ATOM     14  C13 <0> A   1     -13.189  11.290  41.400  0.00  0.00    +0.046 A 
ATOM     15  C14 <0> A   1     -13.053   9.918  41.371  0.00  0.00    -0.025 A 
ENDROOT
BRANCH   3  16
ATOM     16  C15 <0> A   1     -14.906  10.627  46.758  0.00  0.00    -0.013 A 
ATOM     17  C16 <0> A   1     -13.888  11.372  47.350  0.00  0.00    +0.054 A 
ATOM     18  C17 <0> A   1     -14.165  12.616  47.880  0.00  0.00    -0.012 A 
ATOM     19  C18 <0> A   1     -15.453  13.123  47.824  0.00  0.00    +0.098 A 
ATOM     20  C19 <0> A   1     -16.468  12.387  47.237  0.00  0.00    -0.014 A 
ATOM     21  C20 <0> A   1     -16.198  11.144  46.699  0.00  0.00    +0.053 A 
ATOM     22  F1  <0> A   1     -15.719  14.341  48.345  0.00  0.00    -0.140 F 
ENDBRANCH   3  16
BRANCH   1  24
ATOM     23  C1  <0> A   1     -13.692   5.462  47.666  0.00  0.00    +0.045 C 
ATOM     24  C2  <0> A   1     -14.371   5.666  46.310  0.00  0.00    +0.229 C 
ATOM     25  C3  <0> A   1     -15.812   5.157  46.380  0.00  0.00    +0.046 C 
ENDBRANCH   1  24
BRANCH   2  26
ATOM     26  C21 <0> A   1     -15.186   7.898  48.247  0.00  0.00    +0.121 C 
BRANCH  26  27
ATOM     27  C22 <0> A   1     -16.708   8.036  48.317  0.00  0.00    -0.005 C 
BRANCH  27  28
ATOM     28  C23 <0> A   1     -17.224   7.348  49.582  0.00  0.00    +0.213 C 
BRANCH  28  29
ATOM     29  O5  <0> A   1     -16.180   7.293  50.555  0.00  0.00    -0.542 OA
ATOM     30  H28 <0> A   1     -15.651   8.100  50.611  0.00  0.00    +0.364 HD
ENDBRANCH  28  29
BRANCH  28  31
ATOM     31  C24 <0> A   1     -18.406   8.140  50.146  0.00  0.00    -0.051 C 
BRANCH  31  32
ATOM     32  C25 <0> A   1     -19.601   7.203  50.342  0.00  0.00    +0.231 C 
BRANCH  32  33
ATOM     33  O4  <0> A   1     -20.779   7.818  49.820  0.00  0.00    -0.528 OA
ATOM     34  H27 <0> A   1     -20.741   7.999  48.870  0.00  0.00    +0.349 HD
ENDBRANCH  32  33
BRANCH  32  35
ATOM     35  C26 <0> A   1     -19.342   5.887  49.605  0.00  0.00    -0.103 C 
BRANCH  35  36
ATOM     36  C27 <0> A   1     -20.352   5.725  48.498  0.00  0.00    +0.490 C 
ATOM     37  O2  <0> A   1     -20.238   6.368  47.469  0.00  0.00    -0.681 OA
ATOM     38  O3  <0> A   1     -21.283   4.948  48.633  0.00  0.00    -0.713 OA
ENDBRANCH  35  36
ENDBRANCH  32  35
ENDBRANCH  31  32
ENDBRANCH  28  31
ENDBRANCH  27  28
ENDBRANCH  26  27
ENDBRANCH   2  26
TORSDOF 11
