REMARK  Name = CHEMBL235472
REMARK  17 active torsions:
REMARK  status: ('A' for Active; 'I' for Inactive)
REMARK    1  A    between atoms: C1_1  and  C2_2
REMARK    2  A    between atoms: C2_2  and  C3_3
REMARK    3  A    between atoms: C2_2  and  N1_4
REMARK    4  A    between atoms: C4_5  and  C27_32
REMARK    5  A    between atoms: C5_6  and  C21_25
REMARK    6  A    between atoms: C6_7  and  C16_19
REMARK    7  A    between atoms: C7_8  and  C8_9
REMARK    8  A    between atoms: N2_11  and  C9_12
REMARK    9  A    between atoms: C9_12  and  C10_13
REMARK   10  A    between atoms: C27_32  and  C28_33
REMARK   11  A    between atoms: C28_33  and  C29_34
REMARK   12  A    between atoms: C29_34  and  C30_36
REMARK   13  A    between atoms: C29_34  and  O5_44
REMARK   14  A    between atoms: C30_36  and  C31_37
REMARK   15  A    between atoms: C31_37  and  C32_39
REMARK   16  A    between atoms: C31_37  and  O4_43
REMARK   17  A    between atoms: C32_39  and  C33_40
REMARK                            x       y       z     vdW  Elec       q    Type
REMARK                         _______ _______ _______ _____ _____    ______ ____
ROOT
ATOM      1  N1  <0> A   1      -1.353  -0.461   0.061  0.00  0.00    -0.395 N 
ATOM      2  C4  <0> A   1      -1.901  -1.274  -0.873  0.00  0.00    +0.066 C 
ATOM      3  C5  <0> A   1      -3.206  -1.506  -0.551  0.00  0.00    -0.098 C 
ATOM      4  C6  <0> A   1      -3.480  -0.797   0.647  0.00  0.00    -0.064 C 
ATOM      5  C7  <0> A   1      -2.301  -0.158   1.010  0.00  0.00    -0.020 C 
ENDROOT
BRANCH   3   6
ATOM      6  C21 <0> A   1      -4.163  -2.344  -1.314  0.00  0.00    +0.007 A 
ATOM      7  C22 <0> A   1      -4.545  -1.972  -2.602  0.00  0.00    +0.046 A 
ATOM      8  C23 <0> A   1      -5.436  -2.755  -3.308  0.00  0.00    -0.022 A 
ATOM      9  C24 <0> A   1      -5.950  -3.909  -2.738  0.00  0.00    +0.093 A 
ATOM     10  C25 <0> A   1      -5.572  -4.282  -1.459  0.00  0.00    -0.022 A 
ATOM     11  C26 <0> A   1      -4.678  -3.508  -0.748  0.00  0.00    +0.071 A 
ATOM     12  F1  <0> A   1      -6.822  -4.671  -3.433  0.00  0.00    -0.145 F 
ENDBRANCH   3   6
BRANCH   4  13
ATOM     13  C16 <0> A   1      -4.769  -0.753   1.373  0.00  0.00    +0.205 A 
ATOM     14  C17 <0> A   1      -4.849  -0.099   2.602  0.00  0.00    -0.044 A 
ATOM     15  C18 <0> A   1      -6.061  -0.067   3.269  0.00  0.00    +0.061 A 
ATOM     16  C19 <0> A   1      -7.155  -0.690   2.685  0.00  0.00    -0.050 A 
ATOM     17  C20 <0> A   1      -7.005  -1.321   1.464  0.00  0.00    +0.262 A 
ATOM     18  N3  <0> A   1      -5.841  -1.333   0.847  0.00  0.00    -0.461 NA
ENDBRANCH   4  13
BRANCH   5  19
ATOM     19  C8  <0> A   1      -2.104   0.690   2.189  0.00  0.00    +0.601 C 
ATOM     20  O1  <0> A   1      -1.706   0.201   3.230  0.00  0.00    -0.517 OA
ATOM     21  N2  <0> A   1      -2.364   2.011   2.120  0.00  0.00    -0.718 N 
ATOM     22  H10 <0> A   1      -2.748   2.388   1.314  0.00  0.00    +0.407 HD
BRANCH  21  23
ATOM     23  C9  <0> A   1      -2.066   2.876   3.264  0.00  0.00    +0.320 C 
BRANCH  23  24
ATOM     24  C10 <0> A   1      -2.447   4.296   2.933  0.00  0.00    -0.112 A 
ATOM     25  C11 <0> A   1      -1.525   5.139   2.343  0.00  0.00    +0.025 A 
ATOM     26  C12 <0> A   1      -1.874   6.442   2.038  0.00  0.00    +0.004 A 
ATOM     27  C13 <0> A   1      -3.147   6.901   2.324  0.00  0.00    +0.013 A 
ATOM     28  C14 <0> A   1      -4.070   6.057   2.913  0.00  0.00    +0.003 A 
ATOM     29  C15 <0> A   1      -3.721   4.753   3.213  0.00  0.00    +0.026 A 
ENDBRANCH  23  24
ENDBRANCH  21  23
ENDBRANCH   5  19
BRANCH   1  31
ATOM     30  C1  <0> A   1       0.045   1.546   0.046  0.00  0.00    +0.043 C 
ATOM     31  C2  <0> A   1       0.032   0.016   0.063  0.00  0.00    +0.230 C 
ATOM     32  C3  <0> A   1       0.742  -0.486   1.322  0.00  0.00    +0.046 C 
ENDBRANCH   1  31
BRANCH   2  33
ATOM     33  C27 <0> A   1      -1.185  -1.833  -2.075  0.00  0.00    +0.120 C 
BRANCH  33  34
ATOM     34  C28 <0> A   1      -0.547  -3.174  -1.711  0.00  0.00    -0.008 C 
BRANCH  34  35
ATOM     35  C29 <0> A   1       0.181  -3.741  -2.931  0.00  0.00    +0.213 C 
BRANCH  35  36
ATOM     36  O5  <0> A   1       1.272  -2.885  -3.276  0.00  0.00    -0.542 OA
ATOM     37  H35 <0> A   1       1.929  -2.783  -2.574  0.00  0.00    +0.362 HD
ENDBRANCH  35  36
BRANCH  35  38
ATOM     38  C30 <0> A   1       0.713  -5.138  -2.604  0.00  0.00    -0.051 C 
BRANCH  38  39
ATOM     39  C31 <0> A   1       1.330  -5.756  -3.861  0.00  0.00    +0.231 C 
BRANCH  39  40
ATOM     40  O4  <0> A   1       2.477  -4.996  -4.250  0.00  0.00    -0.528 OA
ATOM     41  H34 <0> A   1       3.171  -4.961  -3.579  0.00  0.00    +0.349 HD
ENDBRANCH  39  40
BRANCH  39  42
ATOM     42  C32 <0> A   1       1.750  -7.198  -3.567  0.00  0.00    -0.103 C 
BRANCH  42  43
ATOM     43  C33 <0> A   1       2.244  -7.845  -4.835  0.00  0.00    +0.491 C 
ATOM     44  O2  <0> A   1       2.260  -7.212  -5.877  0.00  0.00    -0.681 OA
ATOM     45  O3  <0> A   1       2.629  -9.002  -4.819  0.00  0.00    -0.713 OA
ENDBRANCH  42  43
ENDBRANCH  39  42
ENDBRANCH  38  39
ENDBRANCH  35  38
ENDBRANCH  34  35
ENDBRANCH  33  34
ENDBRANCH   2  33
TORSDOF 15
