REMARK VINA RESULT:      -8.1      1.467      1.926
REMARK  Name = CHEMBL438694
REMARK  15 active torsions:
REMARK  status: ('A' for Active; 'I' for Inactive)
REMARK    1  A    between atoms: C1_1  and  C2_2
REMARK    2  A    between atoms: C2_2  and  C3_3
REMARK    3  A    between atoms: C2_2  and  N1_4
REMARK    4  A    between atoms: C4_5  and  C21_25
REMARK    5  A    between atoms: C5_6  and  C15_18
REMARK    6  A    between atoms: C6_7  and  C9_12
REMARK    7  A    between atoms: C7_8  and  C8_9
REMARK    8  A    between atoms: C21_25  and  C22_26
REMARK    9  A    between atoms: C22_26  and  C23_27
REMARK   10  A    between atoms: C23_27  and  C24_29
REMARK   11  A    between atoms: C23_27  and  O5_37
REMARK   12  A    between atoms: C24_29  and  C25_30
REMARK   13  A    between atoms: C25_30  and  C26_32
REMARK   14  A    between atoms: C25_30  and  O4_36
REMARK   15  A    between atoms: C26_32  and  C27_33
REMARK                            x       y       z     vdW  Elec       q    Type
REMARK                         _______ _______ _______ _____ _____    ______ ____
ROOT
ATOM      1  N1  <0> A   1     -15.806   6.188  45.543  0.00  0.00    -0.402 N 
ATOM      2  C4  <0> A   1     -14.606   6.721  45.212  0.00  0.00    +0.073 C 
ATOM      3  C5  <0> A   1     -14.390   7.836  45.965  0.00  0.00    -0.122 C 
ATOM      4  C6  <0> A   1     -15.517   8.002  46.810  0.00  0.00    -0.059 C 
ATOM      5  C7  <0> A   1     -16.390   6.960  46.520  0.00  0.00    -0.034 C 
ENDROOT
BRANCH   3   6
ATOM      6  C15 <0> A   1     -13.196   8.714  45.913  0.00  0.00    -0.009 A 
ATOM      7  C16 <0> A   1     -12.087   8.435  46.709  0.00  0.00    +0.050 A 
ATOM      8  C17 <0> A   1     -10.979   9.255  46.657  0.00  0.00    -0.016 A 
ATOM      9  C18 <0> A   1     -10.967  10.354  45.814  0.00  0.00    +0.095 A 
ATOM     10  C19 <0> A   1     -12.066  10.636  45.020  0.00  0.00    -0.017 A 
ATOM     11  C20 <0> A   1     -13.177   9.818  45.061  0.00  0.00    +0.056 A 
ATOM     12  F1  <0> A   1      -9.879  11.154  45.766  0.00  0.00    -0.142 F 
ENDBRANCH   3   6
BRANCH   4  13
ATOM     13  C9  <0> A   1     -15.727   9.080  47.804  0.00  0.00    -0.010 A 
ATOM     14  C10 <0> A   1     -16.186  10.332  47.392  0.00  0.00    +0.026 A 
ATOM     15  C11 <0> A   1     -16.379  11.332  48.323  0.00  0.00    +0.003 A 
ATOM     16  C12 <0> A   1     -16.118  11.096  49.661  0.00  0.00    -0.002 A 
ATOM     17  C13 <0> A   1     -15.662   9.858  50.075  0.00  0.00    +0.000 A 
ATOM     18  C14 <0> A   1     -15.471   8.847  49.155  0.00  0.00    +0.008 A 
ENDBRANCH   4  13
BRANCH   5  19
ATOM     19  C8  <0> A   1     -17.693   6.724  47.146  0.00  0.00    +0.607 C 
ATOM     20  O1  <0> A   1     -18.711   7.098  46.592  0.00  0.00    -0.522 OA
ATOM     21  N2  <0> A   1     -17.765   6.093  48.334  0.00  0.00    -0.845 N 
ATOM     22  H10 <0> A   1     -16.952   5.864  48.812  0.00  0.00    +0.404 HD
ATOM     23  H11 <0> A   1     -18.629   5.866  48.712  0.00  0.00    +0.406 HD
ENDBRANCH   5  19
BRANCH   1  25
ATOM     24  C1  <0> A   1     -17.044   5.338  43.612  0.00  0.00    +0.044 C 
ATOM     25  C2  <0> A   1     -16.392   4.983  44.949  0.00  0.00    +0.229 C 
ATOM     26  C3  <0> A   1     -15.293   3.942  44.720  0.00  0.00    +0.042 C 
ENDBRANCH   1  25
BRANCH   2  27
ATOM     27  C21 <0> A   1     -13.661   6.171  44.174  0.00  0.00    +0.117 C 
BRANCH  27  28
ATOM     28  C22 <0> A   1     -13.789   6.984  42.884  0.00  0.00    -0.007 C 
BRANCH  28  29
ATOM     29  C23 <0> A   1     -12.393   7.304  42.343  0.00  0.00    +0.212 C 
BRANCH  29  30
ATOM     30  O5  <0> A   1     -11.635   6.097  42.239  0.00  0.00    -0.542 OA
ATOM     31  H30 <0> A   1     -12.076   5.322  42.614  0.00  0.00    +0.362 HD
ENDBRANCH  29  30
BRANCH  29  32
ATOM     32  C24 <0> A   1     -12.518   7.949  40.961  0.00  0.00    -0.051 C 
BRANCH  32  33
ATOM     33  C25 <0> A   1     -13.015   9.388  41.113  0.00  0.00    +0.230 C 
BRANCH  33  34
ATOM     34  O4  <0> A   1     -11.897  10.269  41.231  0.00  0.00    -0.528 OA
ATOM     35  H29 <0> A   1     -12.114  11.200  41.092  0.00  0.00    +0.349 HD
ENDBRANCH  33  34
BRANCH  33  36
ATOM     36  C26 <0> A   1     -13.841   9.774  39.884  0.00  0.00    -0.103 C 
BRANCH  36  37
ATOM     37  C27 <0> A   1     -13.776  11.266  39.685  0.00  0.00    +0.490 C 
ATOM     38  O2  <0> A   1     -13.016  11.738  38.855  0.00  0.00    -0.681 OA
ATOM     39  O3  <0> A   1     -14.484  12.002  40.352  0.00  0.00    -0.713 OA
ENDBRANCH  36  37
ENDBRANCH  33  36
ENDBRANCH  32  33
ENDBRANCH  29  32
ENDBRANCH  28  29
ENDBRANCH  27  28
ENDBRANCH   2  27
TORSDOF 13
