REMARK VINA RESULT:      -7.9     15.573     20.020
REMARK  Name = CHEMBL82467
REMARK  16 active torsions:
REMARK  status: ('A' for Active; 'I' for Inactive)
REMARK    1  A    between atoms: C1_1  and  C2_2
REMARK    2  A    between atoms: C2_2  and  C3_3
REMARK    3  A    between atoms: C3_3  and  C4_4
REMARK    4  A    between atoms: C3_3  and  C5_5
REMARK    5  A    between atoms: C3_3  and  C6_6
REMARK    6  A    between atoms: C6_6  and  O2_8
REMARK    7  A    between atoms: O2_8  and  C7_9
REMARK    8  A    between atoms: C9_12  and  C24_35
REMARK    9  A    between atoms: C9_12  and  C25_36
REMARK   10  A    between atoms: C12_17  and  C17_24
REMARK   11  A    between atoms: C13_19  and  C16_23
REMARK   12  A    between atoms: C17_24  and  C18_25
REMARK   13  A    between atoms: C18_25  and  C19_26
REMARK   14  A    between atoms: C21_28  and  O6_34
REMARK   15  A    between atoms: C25_36  and  S1_37
REMARK   16  A    between atoms: S1_37  and  C26_38
REMARK                            x       y       z     vdW  Elec       q    Type
REMARK                         _______ _______ _______ _____ _____    ______ ____
ROOT
ATOM      1  C7  <0> A   1     -15.802   8.031  47.365  0.00  0.00    +0.187 C 
ATOM      2  C8  <0> A   1     -15.317   8.879  46.203  0.00  0.00    +0.020 C 
ATOM      3  C9  <0> A   1     -14.869  10.280  46.603  0.00  0.00    +0.156 C 
ATOM      4  O3  <0> A   1     -14.058  10.247  47.775  0.00  0.00    -0.345 OA
ATOM      5  C10 <0> A   1     -14.660   9.642  48.909  0.00  0.00    +0.161 C 
ATOM      6  C11 <0> A   1     -14.977   8.181  48.636  0.00  0.00    -0.013 C 
ATOM      7  C12 <0> A   1     -13.757   7.280  48.638  0.00  0.00    +0.001 C 
ATOM      8  C13 <0> A   1     -12.942   7.476  49.920  0.00  0.00    -0.013 C 
ATOM      9  C14 <0> A   1     -12.537   8.942  50.059  0.00  0.00    +0.007 C 
ATOM     10  C15 <0> A   1     -13.789   9.811  50.150  0.00  0.00    +0.041 C 
ATOM     11  C16 <0> A   1     -11.687   6.601  49.862  0.00  0.00    +0.018 C 
ATOM     12  C24 <0> A   1     -16.082  11.188  46.808  0.00  0.00    +0.042 C 
ENDROOT
BRANCH   1  13
ATOM     13  O2  <0> A   1     -17.174   8.341  47.652  0.00  0.00    -0.346 OA
BRANCH  13  14
ATOM     14  C6  <0> A   1     -18.067   7.349  47.503  0.00  0.00    +0.469 C 
ATOM     15  O1  <0> A   1     -18.503   7.087  46.408  0.00  0.00    -0.502 OA
BRANCH  14  16
ATOM     16  C3  <0> A   1     -18.524   6.561  48.704  0.00  0.00    -0.052 C 
ATOM     17  C4  <0> A   1     -17.669   5.299  48.840  0.00  0.00    +0.062 C 
ATOM     18  C5  <0> A   1     -19.992   6.167  48.528  0.00  0.00    +0.061 C 
BRANCH  16  20
ATOM     19  C1  <0> A   1     -17.407   6.734  50.932  0.00  0.00    +0.025 C 
ATOM     20  C2  <0> A   1     -18.374   7.417  49.963  0.00  0.00    +0.036 C 
ENDBRANCH  16  20
ENDBRANCH  14  16
ENDBRANCH  13  14
ENDBRANCH   1  13
BRANCH   7  21
ATOM     21  C17 <0> A   1     -12.853   7.494  47.428  0.00  0.00    +0.024 C 
BRANCH  21  22
ATOM     22  C18 <0> A   1     -12.654   6.164  46.699  0.00  0.00    +0.078 C 
BRANCH  22  23
ATOM     23  C19 <0> A   1     -13.860   5.890  45.798  0.00  0.00    +0.184 C 
ATOM     24  C20 <0> A   1     -14.450   4.518  46.136  0.00  0.00    +0.044 C 
ATOM     25  C21 <0> A   1     -15.631   4.230  45.204  0.00  0.00    +0.183 C 
ATOM     26  C22 <0> A   1     -15.136   4.254  43.753  0.00  0.00    +0.011 C 
ATOM     27  C23 <0> A   1     -14.386   5.550  43.527  0.00  0.00    +0.488 C 
ATOM     28  O4  <0> A   1     -14.622   6.246  42.569  0.00  0.00    -0.447 OA
ATOM     29  O5  <0> A   1     -13.446   5.903  44.428  0.00  0.00    -0.357 OA
BRANCH  25  30
ATOM     30  O6  <0> A   1     -16.638   5.228  45.385  0.00  0.00    -0.562 OA
ATOM     31  H36 <0> A   1     -16.439   6.070  44.954  0.00  0.00    +0.385 HD
ENDBRANCH  25  30
ENDBRANCH  22  23
ENDBRANCH  21  22
ENDBRANCH   7  21
BRANCH   3  32
ATOM     32  C25 <0> A   1     -14.023  10.863  45.456  0.00  0.00    +0.095 C 
BRANCH  32  33
ATOM     33  S1  <0> A   1     -13.333   9.510  44.465  0.00  0.00    -0.102 S 
BRANCH  33  34
ATOM     34  C26 <0> A   1     -13.597  10.022  42.800  0.00  0.00    -0.100 A 
ATOM     35  C27 <0> A   1     -14.305  11.189  42.534  0.00  0.00    -0.024 A 
ATOM     36  C28 <0> A   1     -14.510  11.587  41.228  0.00  0.00    +0.026 A 
ATOM     37  C29 <0> A   1     -14.012  10.828  40.185  0.00  0.00    +0.002 A 
ATOM     38  C30 <0> A   1     -13.309   9.666  40.445  0.00  0.00    +0.028 A 
ATOM     39  C31 <0> A   1     -13.095   9.264  41.749  0.00  0.00    +0.030 A 
ENDBRANCH  33  34
ENDBRANCH  32  33
ENDBRANCH   3  32
TORSDOF 11
