REMARK VINA RESULT:      -7.7      2.949      7.407
REMARK  Name = CHEMBL99838
REMARK  15 active torsions:
REMARK  status: ('A' for Active; 'I' for Inactive)
REMARK    1  A    between atoms: C1_1  and  C2_2
REMARK    2  A    between atoms: C2_2  and  C3_3
REMARK    3  A    between atoms: C2_2  and  C4_4
REMARK    4  A    between atoms: C6_6  and  C23_29
REMARK    5  A    between atoms: C8_8  and  C16_22
REMARK    6  A    between atoms: C9_9  and  O1_10
REMARK    7  A    between atoms: O1_10  and  C10_11
REMARK    8  A    between atoms: C10_11  and  C11_12
REMARK    9  A    between atoms: C11_12  and  C12_13
REMARK   10  A    between atoms: C11_12  and  O5_21
REMARK   11  A    between atoms: C12_13  and  C13_14
REMARK   12  A    between atoms: C13_14  and  C14_16
REMARK   13  A    between atoms: C13_14  and  O4_20
REMARK   14  A    between atoms: C14_16  and  C15_17
REMARK   15  A    between atoms: C16_22  and  C17_23
REMARK                            x       y       z     vdW  Elec       q    Type
REMARK                         _______ _______ _______ _____ _____    ______ ____
ROOT
ATOM      1  C4  <0> A   1     -14.388   6.668  44.523  0.00  0.00    -0.086 A 
ATOM      2  C5  <0> A   1     -14.162   7.172  43.258  0.00  0.00    +0.028 A 
ATOM      3  C6  <0> A   1     -13.416   8.337  43.097  0.00  0.00    -0.053 A 
ATOM      4  C7  <0> A   1     -12.899   8.991  44.214  0.00  0.00    +0.027 A 
ATOM      5  C8  <0> A   1     -13.127   8.483  45.476  0.00  0.00    -0.088 A 
ATOM      6  C9  <0> A   1     -13.876   7.324  45.633  0.00  0.00    +0.106 A 
ENDROOT
BRANCH   3   7
ATOM      7  C23 <0> A   1     -13.172   8.882  41.739  0.00  0.00    -0.037 A 
ATOM      8  C24 <0> A   1     -12.904   8.019  40.677  0.00  0.00    +0.011 A 
ATOM      9  C25 <0> A   1     -12.677   8.531  39.416  0.00  0.00    +0.006 A 
ATOM     10  C26 <0> A   1     -12.716   9.898  39.204  0.00  0.00    -0.002 A 
ATOM     11  C27 <0> A   1     -12.982  10.759  40.254  0.00  0.00    +0.006 A 
ATOM     12  C28 <0> A   1     -13.215  10.257  41.518  0.00  0.00    +0.012 A 
ENDBRANCH   3   7
BRANCH   1  14
ATOM     13  C1  <0> A   1     -16.565   5.584  44.042  0.00  0.00    +0.028 C 
ATOM     14  C2  <0> A   1     -15.194   5.408  44.698  0.00  0.00    +0.032 C 
ATOM     15  C3  <0> A   1     -14.462   4.237  44.039  0.00  0.00    +0.023 C 
ENDBRANCH   1  14
BRANCH   6  16
ATOM     16  O1  <0> A   1     -14.104   6.829  46.878  0.00  0.00    -0.316 OA
BRANCH  16  17
ATOM     17  C10 <0> A   1     -15.324   7.211  47.515  0.00  0.00    +0.146 C 
BRANCH  17  18
ATOM     18  C11 <0> A   1     -15.824   6.061  48.393  0.00  0.00    +0.225 C 
BRANCH  18  19
ATOM     19  O5  <0> A   1     -15.870   6.488  49.756  0.00  0.00    -0.531 OA
ATOM     20  H19 <0> A   1     -16.760   6.495  50.136  0.00  0.00    +0.362 HD
ENDBRANCH  18  19
BRANCH  18  21
ATOM     21  C12 <0> A   1     -17.224   5.645  47.941  0.00  0.00    -0.044 C 
BRANCH  21  22
ATOM     22  C13 <0> A   1     -18.114   6.885  47.831  0.00  0.00    +0.235 C 
BRANCH  22  23
ATOM     23  O4  <0> A   1     -18.786   6.878  46.571  0.00  0.00    -0.527 OA
ATOM     24  H18 <0> A   1     -19.619   7.371  46.566  0.00  0.00    +0.350 HD
ENDBRANCH  22  23
BRANCH  22  25
ATOM     25  C14 <0> A   1     -19.147   6.872  48.961  0.00  0.00    -0.101 C 
BRANCH  25  26
ATOM     26  C15 <0> A   1     -20.076   5.700  48.778  0.00  0.00    +0.491 C 
ATOM     27  O2  <0> A   1     -20.873   5.692  47.855  0.00  0.00    -0.680 OA
ATOM     28  O3  <0> A   1     -20.030   4.759  49.551  0.00  0.00    -0.713 OA
ENDBRANCH  25  26
ENDBRANCH  22  25
ENDBRANCH  21  22
ENDBRANCH  18  21
ENDBRANCH  17  18
ENDBRANCH  16  17
ENDBRANCH   6  16
BRANCH   5  29
ATOM     29  C16 <0> A   1     -12.568   9.188  46.684  0.00  0.00    +0.071 C 
BRANCH  29  30
ATOM     30  C17 <0> A   1     -12.984  10.661  46.653  0.00  0.00    +0.002 C 
ATOM     31  C18 <0> A   1     -12.044  11.474  47.545  0.00  0.00    +0.006 C 
ATOM     32  C19 <0> A   1     -12.459  12.947  47.513  0.00  0.00    -0.001 C 
ATOM     33  C20 <0> A   1     -13.894  13.083  48.027  0.00  0.00    -0.002 C 
ATOM     34  C21 <0> A   1     -14.834  12.269  47.134  0.00  0.00    +0.004 C 
ATOM     35  C22 <0> A   1     -14.418  10.797  47.166  0.00  0.00    +0.009 C 
ENDBRANCH  29  30
ENDBRANCH   5  29
TORSDOF 13
