REMARK VINA RESULT:      -7.3      1.829      5.093
REMARK  Name = CHEMBL47537
REMARK  6 active torsions:
REMARK  status: ('A' for Active; 'I' for Inactive)
REMARK    1  A    between atoms: C4_4  and  O1_7
REMARK    2  A    between atoms: O1_7  and  C7_8
REMARK    3  A    between atoms: C12_13  and  C13_14
REMARK    4  A    between atoms: C13_14  and  C14_15
REMARK    5  A    between atoms: C14_15  and  C15_16
REMARK    6  A    between atoms: C17_18  and  O4_24
REMARK                            x       y       z     vdW  Elec       q    Type
REMARK                         _______ _______ _______ _____ _____    ______ ____
ROOT
ATOM      1  C7  <0> A   1      -4.760   3.905  45.521  0.00  0.00    +0.153 A 
ATOM      2  C8  <0> A   1      -5.297   2.757  44.956  0.00  0.00    -0.035 A 
ATOM      3  C9  <0> A   1      -4.460   1.801  44.409  0.00  0.00    +0.010 A 
ATOM      4  C10 <0> A   1      -3.090   1.990  44.425  0.00  0.00    +0.017 A 
ATOM      5  C11 <0> A   1      -2.553   3.134  44.988  0.00  0.00    +0.010 A 
ATOM      6  C12 <0> A   1      -3.387   4.095  45.531  0.00  0.00    -0.095 A 
ATOM      7 Cl1  <0> A   1      -0.833   3.367  45.007  0.00  0.00    -0.040 Cl
ATOM      8 Cl2  <0> A   1      -5.131   0.365  43.701  0.00  0.00    -0.048 Cl
ENDROOT
BRANCH   1   9
ATOM      9  O1  <0> A   1      -5.580   4.846  46.059  0.00  0.00    -0.239 OA
BRANCH   9  13
ATOM     10  C1  <0> A   1      -8.348   3.623  48.864  0.00  0.00    +0.014 A 
ATOM     11  C2  <0> A   1      -8.773   4.101  47.638  0.00  0.00    +0.029 A 
ATOM     12  C3  <0> A   1      -7.848   4.511  46.698  0.00  0.00    -0.007 A 
ATOM     13  C4  <0> A   1      -6.492   4.443  46.984  0.00  0.00    +0.077 A 
ATOM     14  C5  <0> A   1      -6.068   3.963  48.214  0.00  0.00    +0.017 A 
ATOM     15  C6  <0> A   1      -6.997   3.553  49.151  0.00  0.00    +0.031 A 
ENDBRANCH   9  13
ENDBRANCH   1   9
BRANCH   6  16
ATOM     16  C13 <0> A   1      -2.802   5.344  46.138  0.00  0.00    +0.098 C 
BRANCH  16  17
ATOM     17  C14 <0> A   1      -2.577   5.125  47.635  0.00  0.00    +0.062 C 
BRANCH  17  18
ATOM     18  C15 <0> A   1      -2.951   6.398  48.398  0.00  0.00    +0.199 C 
ATOM     19  C16 <0> A   1      -1.748   7.343  48.437  0.00  0.00    +0.041 C 
ATOM     20  C17 <0> A   1      -2.114   8.598  49.237  0.00  0.00    +0.184 C 
ATOM     21  C18 <0> A   1      -2.509   8.182  50.660  0.00  0.00    +0.021 C 
ATOM     22  C19 <0> A   1      -3.563   7.101  50.563  0.00  0.00    +0.496 C 
ATOM     23  O2  <0> A   1      -4.584   7.168  51.206  0.00  0.00    -0.453 OA
ATOM     24  O3  <0> A   1      -3.330   6.059  49.737  0.00  0.00    -0.365 OA
BRANCH  20  25
ATOM     25  O4  <0> A   1      -3.211   9.263  48.608  0.00  0.00    -0.563 OA
ATOM     26  H18 <0> A   1      -3.834   8.666  48.171  0.00  0.00    +0.386 HD
ENDBRANCH  20  25
ENDBRANCH  17  18
ENDBRANCH  16  17
ENDBRANCH   6  16
TORSDOF 6
