REMARK  Name = CHEMBL562679
REMARK  15 active torsions:
REMARK  status: ('A' for Active; 'I' for Inactive)
REMARK    1  A    between atoms: C1_1  and  C2_2
REMARK    2  A    between atoms: C2_2  and  C3_3
REMARK    3  A    between atoms: C3_3  and  C4_4
REMARK    4  A    between atoms: C3_3  and  C6_6
REMARK    5  A    between atoms: C3_3  and  C12_12
REMARK    6  A    between atoms: C4_4  and  C5_5
REMARK    7  A    between atoms: C15_15  and  C24_25
REMARK    8  A    between atoms: C16_16  and  C18_18
REMARK    9  A    between atoms: C25_26  and  C26_27
REMARK   10  A    between atoms: C26_27  and  C27_29
REMARK   11  A    between atoms: C26_27  and  O4_37
REMARK   12  A    between atoms: C27_29  and  C28_30
REMARK   13  A    between atoms: C28_30  and  C29_32
REMARK   14  A    between atoms: C28_30  and  O3_36
REMARK   15  A    between atoms: C29_32  and  C30_33
REMARK                            x       y       z     vdW  Elec       q    Type
REMARK                         _______ _______ _______ _____ _____    ______ ____
ROOT
ATOM      1  C12 <0> A   1       1.907   0.019  -1.275  0.00  0.00    -0.073 A 
ATOM      2  C13 <0> A   1       2.226   0.915  -0.268  0.00  0.00    +0.022 A 
ATOM      3  C14 <0> A   1       3.507   1.415  -0.159  0.00  0.00    +0.010 A 
ATOM      4  C15 <0> A   1       4.489   1.018  -1.067  0.00  0.00    -0.030 A 
ATOM      5  C16 <0> A   1       4.164   0.109  -2.088  0.00  0.00    -0.047 A 
ATOM      6  C17 <0> A   1       2.867  -0.389  -2.179  0.00  0.00    +0.035 A 
ENDROOT
BRANCH   5   7
ATOM      7  C18 <0> A   1       5.197  -0.321  -3.060  0.00  0.00    -0.051 A 
ATOM      8  C19 <0> A   1       5.982   0.629  -3.712  0.00  0.00    +0.060 A 
ATOM      9  C20 <0> A   1       6.943   0.224  -4.616  0.00  0.00    -0.009 A 
ATOM     10  C21 <0> A   1       7.127  -1.124  -4.876  0.00  0.00    +0.100 A 
ATOM     11  C22 <0> A   1       6.349  -2.072  -4.231  0.00  0.00    -0.016 A 
ATOM     12  C23 <0> A   1       5.391  -1.677  -3.321  0.00  0.00    +0.052 A 
ATOM     13  F1  <0> A   1       8.069  -1.516  -5.763  0.00  0.00    -0.140 F 
ENDBRANCH   5   7
BRANCH   4  14
ATOM     14  C24 <0> A   1       5.862   1.551  -0.955  0.00  0.00    -0.002 C 
ATOM     15  C25 <0> A   1       6.164   2.409   0.011  0.00  0.00    -0.047 C 
BRANCH  15  16
ATOM     16  C26 <0> A   1       7.565   2.953   0.124  0.00  0.00    +0.249 C 
BRANCH  16  17
ATOM     17  O4  <0> A   1       8.346   2.491  -0.979  0.00  0.00    -0.536 OA
ATOM     18  H32 <0> A   1       8.005   2.760  -1.843  0.00  0.00    +0.364 HD
ENDBRANCH  16  17
BRANCH  16  19
ATOM     19  C27 <0> A   1       7.521   4.482   0.114  0.00  0.00    -0.041 C 
BRANCH  19  20
ATOM     20  C28 <0> A   1       8.928   5.034   0.354  0.00  0.00    +0.231 C 
BRANCH  20  21
ATOM     21  O3  <0> A   1       9.774   4.672  -0.738  0.00  0.00    -0.528 OA
ATOM     22  H31 <0> A   1       9.478   5.010  -1.595  0.00  0.00    +0.350 HD
ENDBRANCH  20  21
BRANCH  20  23
ATOM     23  C29 <0> A   1       8.864   6.559   0.468  0.00  0.00    -0.101 C 
BRANCH  23  24
ATOM     24  C30 <0> A   1      10.227   7.092   0.826  0.00  0.00    +0.490 C 
ATOM     25  O1  <0> A   1      11.162   6.325   0.977  0.00  0.00    -0.681 OA
ATOM     26  O2  <0> A   1      10.395   8.292   0.966  0.00  0.00    -0.713 OA
ENDBRANCH  23  24
ENDBRANCH  20  23
ENDBRANCH  19  20
ENDBRANCH  16  19
ENDBRANCH  15  16
ENDBRANCH   4  14
BRANCH   1  27
ATOM     27  C3  <0> A   1       0.503  -0.519  -1.382  0.00  0.00    +0.023 C 
BRANCH  27  28
ATOM     28  C6  <0> A   1      -0.025  -0.273  -2.772  0.00  0.00    -0.055 A 
ATOM     29  C7  <0> A   1       0.769   0.356  -3.712  0.00  0.00    +0.009 A 
ATOM     30  C8  <0> A   1       0.285   0.581  -4.987  0.00  0.00    +0.002 A 
ATOM     31  C9  <0> A   1      -0.994   0.176  -5.322  0.00  0.00    -0.009 A 
ATOM     32  C10 <0> A   1      -1.788  -0.454  -4.382  0.00  0.00    -0.001 A 
ATOM     33  C11 <0> A   1      -1.302  -0.683  -3.108  0.00  0.00    +0.003 A 
ENDBRANCH  27  28
BRANCH  27  35
ATOM     34  C1  <0> A   1      -0.540   1.662  -0.751  0.00  0.00    +0.013 C 
ATOM     35  C2  <0> A   1      -0.393   0.189  -0.363  0.00  0.00    +0.025 C 
ENDBRANCH  27  35
BRANCH  27  36
ATOM     36  C4  <0> A   1       0.509  -2.022  -1.097  0.00  0.00    +0.029 C 
ATOM     37  C5  <0> A   1       1.289  -2.746  -2.196  0.00  0.00    +0.012 C 
ENDBRANCH  27  36
ENDBRANCH   1  27
TORSDOF 13
