REMARK VINA RESULT:      -7.6      4.124      9.776
REMARK  Name = CHEMBL398239
REMARK  18 active torsions:
REMARK  status: ('A' for Active; 'I' for Inactive)
REMARK    1  A    between atoms: C1_1  and  C2_2
REMARK    2  A    between atoms: C4_5  and  C5_7
REMARK    3  A    between atoms: C5_7  and  N2_8
REMARK    4  A    between atoms: C6_9  and  C7_11
REMARK    5  A    between atoms: C8_12  and  C27_39
REMARK    6  A    between atoms: C9_13  and  C21_32
REMARK    7  A    between atoms: C10_14  and  C14_19
REMARK    8  A    between atoms: N3_15  and  C11_16
REMARK    9  A    between atoms: C11_16  and  C12_17
REMARK   10  A    between atoms: C11_16  and  C13_18
REMARK   11  A    between atoms: C14_19  and  C15_20
REMARK   12  A    between atoms: C15_20  and  C16_21
REMARK   13  A    between atoms: C16_21  and  C17_23
REMARK   14  A    between atoms: C16_21  and  O5_31
REMARK   15  A    between atoms: C17_23  and  C18_24
REMARK   16  A    between atoms: C18_24  and  C19_26
REMARK   17  A    between atoms: C18_24  and  O4_30
REMARK   18  A    between atoms: C19_26  and  C20_27
REMARK                            x       y       z     vdW  Elec       q    Type
REMARK                         _______ _______ _______ _____ _____    ______ ____
ROOT
ATOM      1  C7  <0> A   1     -14.501   8.824  46.684  0.00  0.00    -0.033 C 
ATOM      2  C8  <0> A   1     -15.303   7.697  46.808  0.00  0.00    -0.054 C 
ATOM      3  C9  <0> A   1     -16.262   7.988  47.811  0.00  0.00    -0.122 C 
ATOM      4  C10 <0> A   1     -16.018   9.254  48.254  0.00  0.00    +0.075 C 
ATOM      5  N3  <0> A   1     -14.956   9.761  47.584  0.00  0.00    -0.403 N 
ENDROOT
BRANCH   3   6
ATOM      6  C21 <0> A   1     -17.334   7.082  48.290  0.00  0.00    -0.010 A 
ATOM      7  C22 <0> A   1     -18.620   7.180  47.762  0.00  0.00    +0.053 A 
ATOM      8  C23 <0> A   1     -19.615   6.335  48.210  0.00  0.00    -0.013 A 
ATOM      9  C24 <0> A   1     -19.336   5.390  49.183  0.00  0.00    +0.095 A 
ATOM     10  C25 <0> A   1     -18.059   5.289  49.712  0.00  0.00    -0.020 A 
ATOM     11  C26 <0> A   1     -17.058   6.126  49.266  0.00  0.00    +0.054 A 
ATOM     12  F1  <0> A   1     -20.314   4.565  49.621  0.00  0.00    -0.142 F 
ENDBRANCH   3   6
BRANCH   2  13
ATOM     13  C27 <0> A   1     -15.181   6.436  46.042  0.00  0.00    -0.012 A 
ATOM     14  C28 <0> A   1     -14.201   5.502  46.380  0.00  0.00    +0.027 A 
ATOM     15  C29 <0> A   1     -14.091   4.329  45.663  0.00  0.00    +0.003 A 
ATOM     16  C30 <0> A   1     -14.953   4.077  44.609  0.00  0.00    -0.002 A 
ATOM     17  C31 <0> A   1     -15.926   4.999  44.268  0.00  0.00    +0.001 A 
ATOM     18  C32 <0> A   1     -16.048   6.174  44.982  0.00  0.00    +0.010 A 
ENDBRANCH   2  13
BRANCH   1  20
ATOM     19  N2  <0> A   1     -13.540   9.643  44.601  0.00  0.00    -0.719 N 
ATOM     20  C6  <0> A   1     -13.372   8.986  45.766  0.00  0.00    +0.609 C 
ATOM     21  O1  <0> A   1     -12.281   8.528  46.055  0.00  0.00    -0.513 OA
ATOM     22  H9  <0> A   1     -14.423   9.946  44.338  0.00  0.00    +0.406 HD
BRANCH  19  23
ATOM     23  C5  <0> A   1     -12.389   9.897  43.732  0.00  0.00    +0.415 C 
BRANCH  23  28
ATOM     24  C1  <0> A   1     -12.603   8.900  38.832  0.00  0.00    +0.147 C 
ATOM     25  C2  <0> A   1     -13.011   9.672  40.060  0.00  0.00    +0.061 C 
ATOM     26  C3  <0> A   1     -13.918  10.681  39.996  0.00  0.00    -0.026 C 
ATOM     27  S1  <0> A   1     -13.977  11.180  41.710  0.00  0.00    +0.127 S 
ATOM     28  C4  <0> A   1     -12.861  10.072  42.311  0.00  0.00    +0.026 C 
ATOM     29  N1  <0> A   1     -12.508   9.395  41.247  0.00  0.00    -0.492 NA
ENDBRANCH  23  28
ENDBRANCH  19  23
ENDBRANCH   1  20
BRANCH   5  30
ATOM     30  C11 <0> A   1     -14.384  11.095  47.785  0.00  0.00    +0.230 C 
ATOM     31  C12 <0> A   1     -15.500  12.141  47.730  0.00  0.00    +0.041 C 
ATOM     32  C13 <0> A   1     -13.696  11.154  49.149  0.00  0.00    +0.046 C 
ENDBRANCH   5  30
BRANCH   4  33
ATOM     33  C14 <0> A   1     -16.801   9.973  49.324  0.00  0.00    +0.118 C 
BRANCH  33  34
ATOM     34  C15 <0> A   1     -16.424   9.413  50.697  0.00  0.00    -0.009 C 
BRANCH  34  35
ATOM     35  C16 <0> A   1     -17.693   9.172  51.516  0.00  0.00    +0.213 C 
BRANCH  35  36
ATOM     36  O5  <0> A   1     -17.660   9.981  52.693  0.00  0.00    -0.542 OA
ATOM     37  H26 <0> A   1     -16.913  10.595  52.727  0.00  0.00    +0.363 HD
ENDBRANCH  35  36
BRANCH  35  38
ATOM     38  C17 <0> A   1     -18.919   9.540  50.678  0.00  0.00    -0.051 C 
BRANCH  38  39
ATOM     39  C18 <0> A   1     -20.191   9.231  51.470  0.00  0.00    +0.230 C 
BRANCH  39  40
ATOM     40  O4  <0> A   1     -20.514  10.346  52.304  0.00  0.00    -0.528 OA
ATOM     41  H25 <0> A   1     -20.471  10.153  53.252  0.00  0.00    +0.349 HD
ENDBRANCH  39  40
BRANCH  39  42
ATOM     42  C19 <0> A   1     -21.344   8.966  50.501  0.00  0.00    -0.103 C 
BRANCH  42  43
ATOM     43  C20 <0> A   1     -22.455   9.950  50.762  0.00  0.00    +0.490 C 
ATOM     44  O2  <0> A   1     -23.357   9.661  51.530  0.00  0.00    -0.681 OA
ATOM     45  O3  <0> A   1     -22.452  11.034  50.205  0.00  0.00    -0.713 OA
ENDBRANCH  42  43
ENDBRANCH  39  42
ENDBRANCH  38  39
ENDBRANCH  35  38
ENDBRANCH  34  35
ENDBRANCH  33  34
ENDBRANCH   4  33
TORSDOF 15
