REMARK  Name = CHEMBL235712
REMARK  15 active torsions:
REMARK  status: ('A' for Active; 'I' for Inactive)
REMARK    1  A    between atoms: C1_1  and  C2_2
REMARK    2  A    between atoms: C2_2  and  C3_3
REMARK    3  A    between atoms: C2_2  and  N1_4
REMARK    4  A    between atoms: C4_5  and  C20_24
REMARK    5  A    between atoms: C5_6  and  C14_17
REMARK    6  A    between atoms: C6_7  and  C9_11
REMARK    7  A    between atoms: C7_8  and  C8_9
REMARK    8  A    between atoms: C20_24  and  C21_25
REMARK    9  A    between atoms: C21_25  and  C22_26
REMARK   10  A    between atoms: C22_26  and  C23_28
REMARK   11  A    between atoms: C22_26  and  O4_36
REMARK   12  A    between atoms: C23_28  and  C24_29
REMARK   13  A    between atoms: C24_29  and  C25_31
REMARK   14  A    between atoms: C24_29  and  O3_35
REMARK   15  A    between atoms: C25_31  and  C26_32
REMARK                            x       y       z     vdW  Elec       q    Type
REMARK                         _______ _______ _______ _____ _____    ______ ____
ROOT
ATOM      1  N1  <0> A   1      -1.372  -0.511   0.012  0.00  0.00    -0.399 N 
ATOM      2  C4  <0> A   1      -1.925  -1.301  -0.942  0.00  0.00    +0.088 C 
ATOM      3  C5  <0> A   1      -3.215  -1.575  -0.600  0.00  0.00    -0.097 C 
ATOM      4  C6  <0> A   1      -3.476  -0.919   0.633  0.00  0.00    -0.033 C 
ATOM      5  C7  <0> A   1      -2.303  -0.267   0.993  0.00  0.00    +0.069 C 
ENDROOT
BRANCH   3   6
ATOM      6  C14 <0> A   1      -4.172  -2.404  -1.373  0.00  0.00    -0.000 A 
ATOM      7  C15 <0> A   1      -4.593  -1.991  -2.635  0.00  0.00    +0.049 A 
ATOM      8  C16 <0> A   1      -5.483  -2.766  -3.351  0.00  0.00    -0.022 A 
ATOM      9  C17 <0> A   1      -5.958  -3.952  -2.816  0.00  0.00    +0.096 A 
ATOM     10  C18 <0> A   1      -5.543  -4.366  -1.561  0.00  0.00    -0.023 A 
ATOM     11  C19 <0> A   1      -4.648  -3.601  -0.841  0.00  0.00    +0.079 A 
ATOM     12  F1  <0> A   1      -6.829  -4.707  -3.520  0.00  0.00    -0.144 F 
ENDBRANCH   3   6
BRANCH   4  13
ATOM     13  C9  <0> A   1      -4.748  -0.932   1.389  0.00  0.00    +0.198 A 
ATOM     14  C10 <0> A   1      -4.847  -0.228   2.590  0.00  0.00    -0.046 A 
ATOM     15  C11 <0> A   1      -6.042  -0.250   3.285  0.00  0.00    +0.064 A 
ATOM     16  C12 <0> A   1      -7.103  -0.975   2.758  0.00  0.00    -0.043 A 
ATOM     17  C13 <0> A   1      -6.936  -1.650   1.563  0.00  0.00    +0.266 A 
ATOM     18  N3  <0> A   1      -5.788  -1.609   0.917  0.00  0.00    -0.458 NA
ENDBRANCH   4  13
BRANCH   1  20
ATOM     19  C1  <0> A   1      -0.019   1.526   0.010  0.00  0.00    +0.047 C 
ATOM     20  C2  <0> A   1       0.002  -0.004   0.002  0.00  0.00    +0.235 C 
ATOM     21  C3  <0> A   1       0.742  -0.511   1.242  0.00  0.00    +0.047 C 
ENDBRANCH   1  20
BRANCH   5  22
ATOM     22  C8  <0> A   1      -2.102   0.521   2.172  0.00  0.00    +0.287 C 
ATOM     23  N2  <0> A   1      -1.942   1.146   3.107  0.00  0.00    -0.406 NA
ENDBRANCH   5  22
BRANCH   2  24
ATOM     24  C20 <0> A   1      -1.226  -1.796  -2.181  0.00  0.00    +0.124 C 
BRANCH  24  25
ATOM     25  C21 <0> A   1      -0.550  -3.136  -1.884  0.00  0.00    -0.005 C 
BRANCH  25  26
ATOM     26  C22 <0> A   1       0.161  -3.639  -3.142  0.00  0.00    +0.214 C 
BRANCH  26  27
ATOM     27  O4  <0> A   1       1.224  -2.746  -3.478  0.00  0.00    -0.542 OA
ATOM     28  H27 <0> A   1       1.895  -2.656  -2.788  0.00  0.00    +0.363 HD
ENDBRANCH  26  27
BRANCH  26  29
ATOM     29  C23 <0> A   1       0.730  -5.035  -2.883  0.00  0.00    -0.051 C 
BRANCH  29  30
ATOM     30  C24 <0> A   1       1.331  -5.589  -4.176  0.00  0.00    +0.231 C 
BRANCH  30  31
ATOM     31  O3  <0> A   1       2.451  -4.790  -4.562  0.00  0.00    -0.528 OA
ATOM     32  H26 <0> A   1       3.161  -4.764  -3.905  0.00  0.00    +0.349 HD
ENDBRANCH  30  31
BRANCH  30  33
ATOM     33  C25 <0> A   1       1.788  -7.032  -3.949  0.00  0.00    -0.103 C 
BRANCH  33  34
ATOM     34  C26 <0> A   1       2.267  -7.618  -5.253  0.00  0.00    +0.490 C 
ATOM     35  O1  <0> A   1       2.245  -6.944  -6.269  0.00  0.00    -0.681 OA
ATOM     36  O2  <0> A   1       2.677  -8.766  -5.291  0.00  0.00    -0.713 OA
ENDBRANCH  33  34
ENDBRANCH  30  33
ENDBRANCH  29  30
ENDBRANCH  26  29
ENDBRANCH  25  26
ENDBRANCH  24  25
ENDBRANCH   2  24
TORSDOF 13
