REMARK VINA RESULT:      -9.2      2.409      3.180
REMARK  Name = CHEMBL122674
REMARK  12 active torsions:
REMARK  status: ('A' for Active; 'I' for Inactive)
REMARK    1  A    between atoms: C4_4  and  C7_7
REMARK    2  A    between atoms: C10_10  and  C13_13
REMARK    3  A    between atoms: C13_13  and  C14_14
REMARK    4  A    between atoms: N2_21  and  C28_36
REMARK    5  A    between atoms: C20_22  and  C21_23
REMARK    6  A    between atoms: C22_24  and  C23_25
REMARK    7  A    between atoms: C23_25  and  C24_27
REMARK    8  A    between atoms: C23_25  and  O4_35
REMARK    9  A    between atoms: C24_27  and  C25_28
REMARK   10  A    between atoms: C25_28  and  C26_30
REMARK   11  A    between atoms: C25_28  and  O3_34
REMARK   12  A    between atoms: C26_30  and  C27_31
REMARK                            x       y       z     vdW  Elec       q    Type
REMARK                         _______ _______ _______ _____ _____    ______ ____
ROOT
ATOM      1  C14 <0> A   1     -16.674   6.320  47.049  0.00  0.00    +0.092 C 
ATOM      2  C15 <0> A   1     -16.411   4.859  46.667  0.00  0.00    +0.029 C 
ATOM      3  C16 <0> A   1     -16.210   4.747  45.154  0.00  0.00    +0.016 C 
ATOM      4  C17 <0> A   1     -14.858   5.359  44.766  0.00  0.00    +0.104 C 
ATOM      5  C18 <0> A   1     -14.766   6.731  45.387  0.00  0.00    -0.211 C 
ATOM      6  C19 <0> A   1     -15.595   7.173  46.427  0.00  0.00    +0.089 C 
ATOM      7  N1  <0> A   1     -15.263   8.397  46.731  0.00  0.00    -0.263 NA
ATOM      8  N2  <0> A   1     -14.205   8.798  45.903  0.00  0.00    -0.330 N 
ATOM      9  C20 <0> A   1     -13.906   7.752  45.072  0.00  0.00    +0.124 C 
ENDROOT
BRANCH   8  10
ATOM     10  C28 <0> A   1     -13.570  10.046  45.921  0.00  0.00    +0.150 A 
ATOM     11  C29 <0> A   1     -14.019  11.067  45.096  0.00  0.00    +0.047 A 
ATOM     12  C30 <0> A   1     -13.391  12.298  45.115  0.00  0.00    +0.017 A 
ATOM     13  C31 <0> A   1     -12.312  12.512  45.958  0.00  0.00    +0.097 A 
ATOM     14  C32 <0> A   1     -11.862  11.493  46.781  0.00  0.00    +0.007 A 
ATOM     15  C33 <0> A   1     -12.491  10.264  46.769  0.00  0.00    +0.056 A 
ATOM     16  F1  <0> A   1     -11.699  13.715  45.975  0.00  0.00    -0.135 F 
ENDBRANCH   8  10
BRANCH   9  17
ATOM     17  C21 <0> A   1     -12.859   7.726  44.035  0.00  0.00    +0.027 C 
ATOM     18  C22 <0> A   1     -13.197   7.745  42.750  0.00  0.00    -0.028 C 
BRANCH  18  19
ATOM     19  C23 <0> A   1     -12.128   7.719  41.689  0.00  0.00    +0.254 C 
BRANCH  19  20
ATOM     20  O4  <0> A   1     -11.451   6.461  41.724  0.00  0.00    -0.536 OA
ATOM     21  H28 <0> A   1     -10.665   6.421  41.161  0.00  0.00    +0.368 HD
ENDBRANCH  19  20
BRANCH  19  22
ATOM     22  C24 <0> A   1     -12.768   7.916  40.314  0.00  0.00    -0.040 C 
BRANCH  22  23
ATOM     23  C25 <0> A   1     -12.378   9.289  39.762  0.00  0.00    +0.232 C 
BRANCH  23  24
ATOM     24  O3  <0> A   1     -12.735   9.366  38.381  0.00  0.00    -0.528 OA
ATOM     25  H27 <0> A   1     -12.163   8.850  37.797  0.00  0.00    +0.351 HD
ENDBRANCH  23  24
BRANCH  23  26
ATOM     26  C26 <0> A   1     -13.114  10.380  40.541  0.00  0.00    -0.102 C 
BRANCH  26  27
ATOM     27  C27 <0> A   1     -13.911  11.230  39.586  0.00  0.00    +0.491 C 
ATOM     28  O1  <0> A   1     -15.128  11.148  39.566  0.00  0.00    -0.681 OA
ATOM     29  O2  <0> A   1     -13.340  12.000  38.833  0.00  0.00    -0.712 OA
ENDBRANCH  26  27
ENDBRANCH  23  26
ENDBRANCH  22  23
ENDBRANCH  19  22
ENDBRANCH  18  19
ENDBRANCH   9  17
BRANCH   1  30
ATOM     30  C13 <0> A   1     -16.638   6.471  48.571  0.00  0.00    +0.081 C 
BRANCH  30  34
ATOM     31  C7  <0> A   1     -20.124   4.667  50.265  0.00  0.00    -0.050 A 
ATOM     32  C8  <0> A   1     -18.861   4.347  50.760  0.00  0.00    +0.002 A 
ATOM     33  C9  <0> A   1     -17.739   4.932  50.209  0.00  0.00    +0.007 A 
ATOM     34  C10 <0> A   1     -17.866   5.835  49.168  0.00  0.00    -0.083 A 
ATOM     35  C11 <0> A   1     -19.118   6.156  48.674  0.00  0.00    +0.063 A 
ATOM     36  C12 <0> A   1     -20.246   5.572  49.214  0.00  0.00    +0.005 A 
BRANCH  31  40
ATOM     37  C1  <0> A   1     -23.592   2.874  51.951  0.00  0.00    -0.002 A 
ATOM     38  C2  <0> A   1     -22.808   2.158  51.064  0.00  0.00    +0.004 A 
ATOM     39  C3  <0> A   1     -21.682   2.735  50.514  0.00  0.00    +0.010 A 
ATOM     40  C4  <0> A   1     -21.334   4.041  50.854  0.00  0.00    -0.039 A 
ATOM     41  C5  <0> A   1     -22.127   4.757  51.748  0.00  0.00    +0.011 A 
ATOM     42  C6  <0> A   1     -23.252   4.171  52.292  0.00  0.00    +0.006 A 
ENDBRANCH  31  40
ENDBRANCH  30  34
ENDBRANCH   1  30
TORSDOF 12
