REMARK VINA RESULT:      -7.5      4.158      6.062
REMARK  Name = CHEMBL400576
REMARK  14 active torsions:
REMARK  status: ('A' for Active; 'I' for Inactive)
REMARK    1  A    between atoms: C1_1  and  C2_2
REMARK    2  A    between atoms: C2_2  and  C3_3
REMARK    3  A    between atoms: C2_2  and  C4_4
REMARK    4  A    between atoms: C5_5  and  C19_29
REMARK    5  A    between atoms: N2_7  and  C13_22
REMARK    6  A    between atoms: C6_8  and  O1_9
REMARK    7  A    between atoms: O1_9  and  C7_10
REMARK    8  A    between atoms: C7_10  and  C8_11
REMARK    9  A    between atoms: C8_11  and  C9_13
REMARK   10  A    between atoms: C8_11  and  O5_21
REMARK   11  A    between atoms: C9_13  and  C10_14
REMARK   12  A    between atoms: C10_14  and  C11_16
REMARK   13  A    between atoms: C10_14  and  O4_20
REMARK   14  A    between atoms: C11_16  and  C12_17
REMARK                            x       y       z     vdW  Elec       q    Type
REMARK                         _______ _______ _______ _____ _____    ______ ____
ROOT
ATOM      1  C4  <0> A   1     -12.237   9.551  45.483  0.00  0.00    -0.182 C 
ATOM      2  C5  <0> A   1     -11.260  10.351  46.113  0.00  0.00    +0.060 C 
ATOM      3  N1  <0> A   1     -10.109   9.709  46.058  0.00  0.00    -0.234 NA
ATOM      4  N2  <0> A   1     -10.316   8.491  45.396  0.00  0.00    -0.327 N 
ATOM      5  C6  <0> A   1     -11.632   8.415  45.057  0.00  0.00    +0.269 C 
ENDROOT
BRANCH   2   6
ATOM      6  C19 <0> A   1     -11.486  11.674  46.725  0.00  0.00    +0.610 C 
ATOM      7  O6  <0> A   1     -11.509  12.672  46.029  0.00  0.00    -0.516 OA
ATOM      8  N3  <0> A   1     -11.664  11.779  48.057  0.00  0.00    -0.599 N 
ATOM      9  C20 <0> A   1     -11.537  10.600  48.924  0.00  0.00    +0.265 C 
ATOM     10  C21 <0> A   1     -10.533  10.913  50.038  0.00  0.00    +0.011 C 
ATOM     11  C22 <0> A   1     -10.967  12.186  50.768  0.00  0.00    +0.012 C 
ATOM     12  C23 <0> A   1     -10.980  13.360  49.786  0.00  0.00    +0.011 C 
ATOM     13  C24 <0> A   1     -11.984  13.076  48.670  0.00  0.00    +0.279 C 
ENDBRANCH   2   6
BRANCH   4  14
ATOM     14  C13 <0> A   1      -9.341   7.520  45.134  0.00  0.00    +0.128 A 
ATOM     15  C14 <0> A   1      -8.853   7.354  43.845  0.00  0.00    +0.066 A 
ATOM     16  C15 <0> A   1      -7.893   6.396  43.588  0.00  0.00    +0.008 A 
ATOM     17  C16 <0> A   1      -7.416   5.600  44.616  0.00  0.00    +0.107 A 
ATOM     18  C17 <0> A   1      -7.902   5.763  45.903  0.00  0.00    +0.018 A 
ATOM     19  C18 <0> A   1      -8.858   6.725  46.165  0.00  0.00    +0.065 A 
ATOM     20  F1  <0> A   1      -6.476   4.663  44.364  0.00  0.00    -0.132 F 
ENDBRANCH   4  14
BRANCH   1  22
ATOM     21  C1  <0> A   1     -14.294  10.248  46.681  0.00  0.00    +0.025 C 
ATOM     22  C2  <0> A   1     -13.695   9.896  45.318  0.00  0.00    +0.062 C 
ATOM     23  C3  <0> A   1     -13.832  11.094  44.375  0.00  0.00    +0.036 C 
ENDBRANCH   1  22
BRANCH   5  24
ATOM     24  O1  <0> A   1     -12.233   7.385  44.406  0.00  0.00    -0.283 OA
BRANCH  24  25
ATOM     25  C7  <0> A   1     -12.841   7.681  43.147  0.00  0.00    +0.155 C 
BRANCH  25  26
ATOM     26  C8  <0> A   1     -11.822   7.462  42.026  0.00  0.00    +0.230 C 
BRANCH  26  27
ATOM     27  O5  <0> A   1     -11.613   6.061  41.840  0.00  0.00    -0.527 OA
ATOM     28  H17 <0> A   1     -10.711   5.768  42.030  0.00  0.00    +0.364 HD
ENDBRANCH  26  27
BRANCH  26  29
ATOM     29  C9  <0> A   1     -12.353   8.074  40.728  0.00  0.00    -0.040 C 
BRANCH  29  30
ATOM     30  C10 <0> A   1     -12.916   9.468  41.015  0.00  0.00    +0.236 C 
BRANCH  30  31
ATOM     31  O4  <0> A   1     -11.855  10.424  40.990  0.00  0.00    -0.526 OA
ATOM     32  H16 <0> A   1     -12.145  11.337  41.124  0.00  0.00    +0.351 HD
ENDBRANCH  30  31
BRANCH  30  33
ATOM     33  C11 <0> A   1     -13.953   9.828  39.949  0.00  0.00    -0.101 C 
BRANCH  33  34
ATOM     34  C12 <0> A   1     -13.966  11.321  39.746  0.00  0.00    +0.491 C 
ATOM     35  O2  <0> A   1     -14.590  12.035  40.513  0.00  0.00    -0.680 OA
ATOM     36  O3  <0> A   1     -13.354  11.816  38.815  0.00  0.00    -0.712 OA
ENDBRANCH  33  34
ENDBRANCH  30  33
ENDBRANCH  29  30
ENDBRANCH  26  29
ENDBRANCH  25  26
ENDBRANCH  24  25
ENDBRANCH   5  24
TORSDOF 12
