REMARK VINA RESULT:      -7.9      2.623      9.104
REMARK  Name = CHEMBL488299
REMARK  15 active torsions:
REMARK  status: ('A' for Active; 'I' for Inactive)
REMARK    1  A    between atoms: C1_1  and  C2_2
REMARK    2  A    between atoms: C2_2  and  C3_3
REMARK    3  A    between atoms: C2_2  and  C4_4
REMARK    4  A    between atoms: C5_5  and  C20_27
REMARK    5  A    between atoms: N1_8  and  C8_9
REMARK    6  A    between atoms: C8_9  and  C9_10
REMARK    7  A    between atoms: C9_10  and  C10_11
REMARK    8  A    between atoms: C10_11  and  C11_13
REMARK    9  A    between atoms: C10_11  and  O4_21
REMARK   10  A    between atoms: C11_13  and  C12_14
REMARK   11  A    between atoms: C12_14  and  C13_16
REMARK   12  A    between atoms: C12_14  and  O3_20
REMARK   13  A    between atoms: C13_16  and  C14_17
REMARK   14  A    between atoms: N2_29  and  C21_30
REMARK   15  A    between atoms: C21_30  and  C22_31
REMARK                            x       y       z     vdW  Elec       q    Type
REMARK                         _______ _______ _______ _____ _____    ______ ____
ROOT
ATOM      1  C4  <0> A   1     -15.101   7.178  46.162  0.00  0.00    +0.087 C 
ATOM      2  C5  <0> A   1     -14.209   8.051  45.599  0.00  0.00    -0.224 C 
ATOM      3  C6  <0> A   1     -14.480   9.352  46.212  0.00  0.00    -0.124 C 
ATOM      4  C7  <0> A   1     -15.489   9.168  47.081  0.00  0.00    +0.024 C 
ATOM      5  N1  <0> A   1     -15.866   7.857  47.038  0.00  0.00    -0.428 N 
ATOM      6  C15 <0> A   1     -16.087  10.240  47.960  0.00  0.00    +0.101 C 
ATOM      7  C16 <0> A   1     -16.359  11.490  47.120  0.00  0.00    +0.019 C 
ATOM      8  C17 <0> A   1     -15.125  12.388  47.115  0.00  0.00    +0.003 C 
ATOM      9  C18 <0> A   1     -13.850  11.549  47.162  0.00  0.00    +0.010 C 
ATOM     10  C19 <0> A   1     -13.780  10.653  45.923  0.00  0.00    +0.088 C 
ENDROOT
BRANCH   2  11
ATOM     11  C20 <0> A   1     -13.186   7.744  44.587  0.00  0.00    +0.606 C 
ATOM     12  O5  <0> A   1     -12.016   7.665  44.909  0.00  0.00    -0.537 OA
ATOM     13  N2  <0> A   1     -13.545   7.550  43.302  0.00  0.00    -0.723 N 
ATOM     14  H30 <0> A   1     -14.478   7.614  43.045  0.00  0.00    +0.403 HD
BRANCH  13  15
ATOM     15  C21 <0> A   1     -12.527   7.244  42.295  0.00  0.00    +0.311 C 
BRANCH  15  16
ATOM     16  C22 <0> A   1     -12.579   8.276  41.198  0.00  0.00    -0.107 A 
ATOM     17  C23 <0> A   1     -12.712   9.615  41.515  0.00  0.00    +0.023 A 
ATOM     18  C24 <0> A   1     -12.760  10.563  40.510  0.00  0.00    +0.001 A 
ATOM     19  C25 <0> A   1     -12.677  10.171  39.187  0.00  0.00    +0.009 A 
ATOM     20  C26 <0> A   1     -12.543   8.832  38.870  0.00  0.00    +0.002 A 
ATOM     21  C27 <0> A   1     -12.490   7.885  39.875  0.00  0.00    +0.024 A 
ENDBRANCH  15  16
ENDBRANCH  13  15
ENDBRANCH   2  11
BRANCH   1  23
ATOM     22  C1  <0> A   1     -15.741   5.529  44.424  0.00  0.00    +0.037 C 
ATOM     23  C2  <0> A   1     -15.213   5.708  45.849  0.00  0.00    +0.047 C 
ATOM     24  C3  <0> A   1     -13.834   5.055  45.968  0.00  0.00    +0.034 C 
ENDBRANCH   1  23
BRANCH   5  25
ATOM     25  C8  <0> A   1     -16.947   7.271  47.835  0.00  0.00    +0.290 C 
BRANCH  25  26
ATOM     26  C9  <0> A   1     -18.202   7.139  46.970  0.00  0.00    -0.017 C 
BRANCH  26  27
ATOM     27  C10 <0> A   1     -19.424   6.942  47.872  0.00  0.00    +0.216 C 
BRANCH  27  28
ATOM     28  O4  <0> A   1     -20.569   6.659  47.067  0.00  0.00    -0.541 OA
ATOM     29  H19 <0> A   1     -21.382   7.081  47.377  0.00  0.00    +0.366 HD
ENDBRANCH  27  28
BRANCH  27  30
ATOM     30  C11 <0> A   1     -19.169   5.773  48.827  0.00  0.00    -0.048 C 
BRANCH  30  31
ATOM     31  C12 <0> A   1     -20.480   5.378  49.509  0.00  0.00    +0.231 C 
BRANCH  31  32
ATOM     32  O3  <0> A   1     -21.246   4.553  48.628  0.00  0.00    -0.528 OA
ATOM     33  H18 <0> A   1     -20.717   4.090  47.964  0.00  0.00    +0.350 HD
ENDBRANCH  31  32
BRANCH  31  34
ATOM     34  C13 <0> A   1     -20.173   4.606  50.794  0.00  0.00    -0.102 C 
BRANCH  34  35
ATOM     35  C14 <0> A   1     -20.060   3.136  50.481  0.00  0.00    +0.490 C 
ATOM     36  O1  <0> A   1     -19.022   2.687  50.026  0.00  0.00    -0.681 OA
ATOM     37  O2  <0> A   1     -21.008   2.396  50.684  0.00  0.00    -0.712 OA
ENDBRANCH  34  35
ENDBRANCH  31  34
ENDBRANCH  30  31
ENDBRANCH  27  30
ENDBRANCH  26  27
ENDBRANCH  25  26
ENDBRANCH   5  25
TORSDOF 13
