REMARK VINA RESULT:      -7.1     16.714     20.821
REMARK  Name = CHEMBL100165
REMARK  16 active torsions:
REMARK  status: ('A' for Active; 'I' for Inactive)
REMARK    1  A    between atoms: C1_1  and  C2_2
REMARK    2  A    between atoms: C2_2  and  C3_3
REMARK    3  A    between atoms: C2_2  and  C4_4
REMARK    4  A    between atoms: C6_6  and  C19_25
REMARK    5  A    between atoms: C7_7  and  O1_13
REMARK    6  A    between atoms: C8_8  and  C10_10
REMARK    7  A    between atoms: C10_10  and  C11_11
REMARK    8  A    between atoms: C10_10  and  C12_12
REMARK    9  A    between atoms: O1_13  and  C13_14
REMARK   10  A    between atoms: C13_14  and  C14_15
REMARK   11  A    between atoms: C14_15  and  C15_16
REMARK   12  A    between atoms: C14_15  and  O5_24
REMARK   13  A    between atoms: C15_16  and  C16_17
REMARK   14  A    between atoms: C16_17  and  C17_19
REMARK   15  A    between atoms: C16_17  and  O4_23
REMARK   16  A    between atoms: C17_19  and  C18_20
REMARK                            x       y       z     vdW  Elec       q    Type
REMARK                         _______ _______ _______ _____ _____    ______ ____
ROOT
ATOM      1  C4  <0> A   1     -26.440  -2.293  52.688  0.00  0.00    -0.081 A 
ATOM      2  C5  <0> A   1     -27.180  -3.382  52.270  0.00  0.00    +0.032 A 
ATOM      3  C6  <0> A   1     -26.577  -4.382  51.512  0.00  0.00    -0.063 A 
ATOM      4  C7  <0> A   1     -25.224  -4.278  51.177  0.00  0.00    +0.109 A 
ATOM      5  C8  <0> A   1     -24.493  -3.181  51.602  0.00  0.00    -0.085 A 
ATOM      6  C9  <0> A   1     -25.103  -2.190  52.350  0.00  0.00    +0.026 A 
ENDROOT
BRANCH   3   7
ATOM      7  C19 <0> A   1     -27.368  -5.554  51.062  0.00  0.00    -0.056 A 
ATOM      8  C20 <0> A   1     -27.762  -5.660  49.730  0.00  0.00    +0.079 A 
ATOM      9  C21 <0> A   1     -28.498  -6.751  49.315  0.00  0.00    -0.014 A 
ATOM     10  C22 <0> A   1     -28.843  -7.741  50.221  0.00  0.00    +0.102 A 
ATOM     11  C23 <0> A   1     -28.453  -7.639  51.546  0.00  0.00    -0.020 A 
ATOM     12  C24 <0> A   1     -27.713  -6.554  51.968  0.00  0.00    +0.050 A 
ATOM     13  F1  <0> A   1     -29.564  -8.808  49.810  0.00  0.00    -0.139 F 
ENDBRANCH   3   7
BRANCH   1  15
ATOM     14  C1  <0> A   1     -26.034  -0.514  54.367  0.00  0.00    +0.026 C 
ATOM     15  C2  <0> A   1     -27.092  -1.212  53.509  0.00  0.00    +0.023 C 
ATOM     16  C3  <0> A   1     -27.748  -0.190  52.579  0.00  0.00    +0.025 C 
ENDBRANCH   1  15
BRANCH   5  17
ATOM     17  C10 <0> A   1     -23.034  -3.062  51.244  0.00  0.00    +0.032 C 
ATOM     18  C11 <0> A   1     -22.716  -1.614  50.866  0.00  0.00    +0.028 C 
ATOM     19  C12 <0> A   1     -22.179  -3.476  52.444  0.00  0.00    +0.024 C 
ENDBRANCH   5  17
BRANCH   4  20
ATOM     20  O1  <0> A   1     -24.628  -5.249  50.437  0.00  0.00    -0.316 OA
BRANCH  20  21
ATOM     21  C13 <0> A   1     -24.188  -6.416  51.134  0.00  0.00    +0.149 C 
BRANCH  21  22
ATOM     22  C14 <0> A   1     -24.413  -7.649  50.256  0.00  0.00    +0.225 C 
BRANCH  22  23
ATOM     23  O5  <0> A   1     -23.871  -7.412  48.955  0.00  0.00    -0.531 OA
ATOM     24  H26 <0> A   1     -23.991  -8.149  48.338  0.00  0.00    +0.362 HD
ENDBRANCH  22  23
BRANCH  22  25
ATOM     25  C15 <0> A   1     -23.719  -8.858  50.885  0.00  0.00    -0.043 C 
BRANCH  25  26
ATOM     26  C16 <0> A   1     -24.517 -10.125  50.574  0.00  0.00    +0.235 C 
BRANCH  26  27
ATOM     27  O4  <0> A   1     -25.827  -9.765  50.130  0.00  0.00    -0.526 OA
ATOM     28  H25 <0> A   1     -25.861  -8.934  49.637  0.00  0.00    +0.350 HD
ENDBRANCH  26  27
BRANCH  26  29
ATOM     29  C17 <0> A   1     -23.807 -10.918  49.475  0.00  0.00    -0.101 C 
BRANCH  29  30
ATOM     30  C18 <0> A   1     -24.638 -10.889  48.218  0.00  0.00    +0.491 C 
ATOM     31  O2  <0> A   1     -25.322 -11.852  47.916  0.00  0.00    -0.680 OA
ATOM     32  O3  <0> A   1     -24.627  -9.902  47.502  0.00  0.00    -0.713 OA
ENDBRANCH  29  30
ENDBRANCH  26  29
ENDBRANCH  25  26
ENDBRANCH  22  25
ENDBRANCH  21  22
ENDBRANCH  20  21
ENDBRANCH   4  20
TORSDOF 12
