REMARK VINA RESULT:      -7.2      9.906     11.955
REMARK  Name = CHEMBL350272
REMARK  4 active torsions:
REMARK  status: ('A' for Active; 'I' for Inactive)
REMARK    1  A    between atoms: C7_8  and  C11_14
REMARK    2  A    between atoms: C11_14  and  C12_15
REMARK    3  A    between atoms: C12_15  and  C13_16
REMARK    4  A    between atoms: C15_18  and  O3_24
REMARK                            x       y       z     vdW  Elec       q    Type
REMARK                         _______ _______ _______ _____ _____    ______ ____
ROOT
ATOM      1  C1  <0> A   1     -16.053   9.698  47.710  0.00  0.00    +0.042 A 
ATOM      2  C2  <0> A   1     -16.492   8.416  47.847  0.00  0.00    +0.057 A 
ATOM      3  C3  <0> A   1     -15.947   7.404  47.040  0.00  0.00    -0.043 A 
ATOM      4  C4  <0> A   1     -14.946   7.735  46.091  0.00  0.00    -0.021 A 
ATOM      5  C5  <0> A   1     -14.519   9.068  45.977  0.00  0.00    +0.059 A 
ATOM      6  C6  <0> A   1     -15.070  10.023  46.777  0.00  0.00    -0.022 A 
ATOM      7 Cl1  <0> A   1     -14.539  11.670  46.633  0.00  0.00    -0.058 Cl
ATOM      8  C7  <0> A   1     -14.403   6.722  45.282  0.00  0.00    -0.046 A 
ATOM      9  C8  <0> A   1     -14.843   5.440  45.420  0.00  0.00    -0.024 A 
ATOM     10  C9  <0> A   1     -15.826   5.114  46.353  0.00  0.00    +0.056 A 
ATOM     11  C10 <0> A   1     -16.376   6.070  47.154  0.00  0.00    -0.015 A 
ATOM     12 Cl2  <0> A   1     -17.599   5.642  48.309  0.00  0.00    -0.044 Cl
ATOM     13 Cl3  <0> A   1     -14.168   4.193  44.418  0.00  0.00    -0.047 Cl
ENDROOT
BRANCH   8  14
ATOM     14  C11 <0> A   1     -13.339   7.053  44.267  0.00  0.00    +0.090 C 
BRANCH  14  15
ATOM     15  C12 <0> A   1     -13.968   7.121  42.874  0.00  0.00    +0.065 C 
BRANCH  15  16
ATOM     16  C13 <0> A   1     -13.212   8.145  42.024  0.00  0.00    +0.200 C 
ATOM     17  C14 <0> A   1     -13.627   9.559  42.440  0.00  0.00    +0.043 C 
ATOM     18  C15 <0> A   1     -12.900  10.580  41.559  0.00  0.00    +0.185 C 
ATOM     19  C16 <0> A   1     -13.275  10.327  40.093  0.00  0.00    +0.022 C 
ATOM     20  C17 <0> A   1     -13.034   8.865  39.788  0.00  0.00    +0.497 C 
ATOM     21  O1  <0> A   1     -12.413   8.529  38.807  0.00  0.00    -0.451 OA
ATOM     22  O2  <0> A   1     -13.531   7.947  40.642  0.00  0.00    -0.369 OA
BRANCH  18  23
ATOM     23  O3  <0> A   1     -11.488  10.439  41.726  0.00  0.00    -0.564 OA
ATOM     24  H15 <0> A   1     -10.983  11.228  41.489  0.00  0.00    +0.387 HD
ENDBRANCH  18  23
ENDBRANCH  15  16
ENDBRANCH  14  15
ENDBRANCH   8  14
TORSDOF 4
