MODEL 1
REMARK VINA RESULT:      -8.2      0.000      0.000
REMARK  Name = CHEMBL400874
REMARK  18 active torsions:
REMARK  status: ('A' for Active; 'I' for Inactive)
REMARK    1  A    between atoms: C1_1  and  C2_2
REMARK    2  A    between atoms: C2_2  and  C3_3
REMARK    3  A    between atoms: C2_2  and  N1_4
REMARK    4  A    between atoms: C4_5  and  C29_34
REMARK    5  A    between atoms: C5_6  and  C23_27
REMARK    6  A    between atoms: C6_7  and  C17_21
REMARK    7  A    between atoms: C7_8  and  C8_9
REMARK    8  A    between atoms: N2_11  and  C9_12
REMARK    9  A    between atoms: C9_12  and  C10_13
REMARK   10  A    between atoms: C13_16  and  C16_19
REMARK   11  A    between atoms: C29_34  and  C30_35
REMARK   12  A    between atoms: C30_35  and  C31_36
REMARK   13  A    between atoms: C31_36  and  C32_38
REMARK   14  A    between atoms: C31_36  and  O5_46
REMARK   15  A    between atoms: C32_38  and  C33_39
REMARK   16  A    between atoms: C33_39  and  C34_41
REMARK   17  A    between atoms: C33_39  and  O4_45
REMARK   18  A    between atoms: C34_41  and  C35_42
REMARK                            x       y       z     vdW  Elec       q    Type
REMARK                         _______ _______ _______ _____ _____    ______ ____
ROOT
ATOM      1  N1  <0> A   1     -15.776   6.234  45.497  0.00  0.00    -0.401 N 
ATOM      2  C4  <0> A   1     -14.566   6.759  45.188  0.00  0.00    +0.074 C 
ATOM      3  C5  <0> A   1     -14.353   7.866  45.953  0.00  0.00    -0.121 C 
ATOM      4  C6  <0> A   1     -15.492   8.038  46.781  0.00  0.00    -0.060 C 
ATOM      5  C7  <0> A   1     -16.369   7.006  46.469  0.00  0.00    -0.031 C 
ENDROOT
BRANCH   3   6
ATOM      6  C23 <0> A   1     -13.149   8.733  45.926  0.00  0.00    -0.009 A 
ATOM      7  C24 <0> A   1     -13.103   9.838  45.079  0.00  0.00    +0.050 A 
ATOM      8  C25 <0> A   1     -11.981  10.642  45.058  0.00  0.00    -0.016 A 
ATOM      9  C26 <0> A   1     -10.902  10.351  45.876  0.00  0.00    +0.095 A 
ATOM     10  C27 <0> A   1     -10.943   9.253  46.719  0.00  0.00    -0.018 A 
ATOM     11  C28 <0> A   1     -12.064   8.447  46.753  0.00  0.00    +0.056 A 
ATOM     12  F1  <0> A   1      -9.805  11.140  45.851  0.00  0.00    -0.142 F 
ENDBRANCH   3   6
BRANCH   4  13
ATOM     13  C17 <0> A   1     -15.706   9.112  47.778  0.00  0.00    -0.009 A 
ATOM     14  C18 <0> A   1     -16.353  10.291  47.410  0.00  0.00    +0.025 A 
ATOM     15  C19 <0> A   1     -16.550  11.287  48.343  0.00  0.00    +0.003 A 
ATOM     16  C20 <0> A   1     -16.105  11.119  49.642  0.00  0.00    -0.003 A 
ATOM     17  C21 <0> A   1     -15.462   9.952  50.013  0.00  0.00    -0.000 A 
ATOM     18  C22 <0> A   1     -15.265   8.945  49.091  0.00  0.00    +0.010 A 
ENDBRANCH   4  13
BRANCH   5  19
ATOM     19  C8  <0> A   1     -17.685   6.780  47.071  0.00  0.00    +0.605 C 
ATOM     20  O1  <0> A   1     -18.694   7.010  46.430  0.00  0.00    -0.518 OA
ATOM     21  N2  <0> A   1     -17.779   6.318  48.334  0.00  0.00    -0.718 N 
ATOM     22  H10 <0> A   1     -16.977   6.197  48.866  0.00  0.00    +0.405 HD
BRANCH  21  23
ATOM     23  C9  <0> A   1     -19.090   5.998  48.901  0.00  0.00    +0.323 C 
BRANCH  23  24
ATOM     24  C10 <0> A   1     -19.498   7.082  49.864  0.00  0.00    -0.081 A 
ATOM     25  C11 <0> A   1     -18.698   8.200  50.022  0.00  0.00    +0.039 A 
ATOM     26  C12 <0> A   1     -19.065   9.197  50.902  0.00  0.00    +0.066 A 
ATOM     27  C13 <0> A   1     -20.247   9.076  51.635  0.00  0.00    -0.018 A 
ATOM     28  C14 <0> A   1     -21.051   7.946  51.471  0.00  0.00    +0.065 A 
ATOM     29  C15 <0> A   1     -20.675   6.959  50.583  0.00  0.00    +0.037 A 
BRANCH  27  30
ATOM     30  C16 <0> A   1     -20.635  10.107  52.551  0.00  0.00    +0.248 C 
ATOM     31  N3  <0> A   1     -20.943  10.925  53.276  0.00  0.00    -0.408 NA
ENDBRANCH  27  30
ENDBRANCH  23  24
ENDBRANCH  21  23
ENDBRANCH   5  19
BRANCH   1  33
ATOM     32  C1  <0> A   1     -16.973   5.406  43.532  0.00  0.00    +0.046 C 
ATOM     33  C2  <0> A   1     -16.365   5.040  44.886  0.00  0.00    +0.229 C 
ATOM     34  C3  <0> A   1     -15.280   3.979  44.688  0.00  0.00    +0.043 C 
ENDBRANCH   1  33
BRANCH   2  35
ATOM     35  C29 <0> A   1     -13.609   6.205  44.164  0.00  0.00    +0.116 C 
BRANCH  35  36
ATOM     36  C30 <0> A   1     -13.724   7.012  42.869  0.00  0.00    -0.007 C 
BRANCH  36  37
ATOM     37  C31 <0> A   1     -12.325   7.296  42.319  0.00  0.00    +0.212 C 
BRANCH  37  38
ATOM     38  O5  <0> A   1     -11.597   6.072  42.216  0.00  0.00    -0.541 OA
ATOM     39  H35 <0> A   1     -11.339   5.694  43.068  0.00  0.00    +0.362 HD
ENDBRANCH  37  38
BRANCH  37  40
ATOM     40  C32 <0> A   1     -12.443   7.938  40.935  0.00  0.00    -0.051 C 
BRANCH  40  41
ATOM     41  C33 <0> A   1     -12.989   9.360  41.077  0.00  0.00    +0.230 C 
BRANCH  41  42
ATOM     42  O4  <0> A   1     -11.904  10.268  41.288  0.00  0.00    -0.528 OA
ATOM     43  H34 <0> A   1     -11.066   9.974  40.905  0.00  0.00    +0.349 HD
ENDBRANCH  41  42
BRANCH  41  44
ATOM     44  C34 <0> A   1     -13.738   9.749  39.801  0.00  0.00    -0.103 C 
BRANCH  44  45
ATOM     45  C35 <0> A   1     -13.691  11.245  39.627  0.00  0.00    +0.490 C 
ATOM     46  O2  <0> A   1     -14.431  11.959  40.283  0.00  0.00    -0.681 OA
ATOM     47  O3  <0> A   1     -12.914  11.742  38.830  0.00  0.00    -0.713 OA
ENDBRANCH  44  45
ENDBRANCH  41  44
ENDBRANCH  40  41
ENDBRANCH  37  40
ENDBRANCH  36  37
ENDBRANCH  35  36
ENDBRANCH   2  35
TORSDOF 16
ENDMDL
MODEL 2
REMARK VINA RESULT:      -7.8      1.448      1.986
REMARK  Name = CHEMBL400874
REMARK  18 active torsions:
REMARK  status: ('A' for Active; 'I' for Inactive)
REMARK    1  A    between atoms: C1_1  and  C2_2
REMARK    2  A    between atoms: C2_2  and  C3_3
REMARK    3  A    between atoms: C2_2  and  N1_4
REMARK    4  A    between atoms: C4_5  and  C29_34
REMARK    5  A    between atoms: C5_6  and  C23_27
REMARK    6  A    between atoms: C6_7  and  C17_21
REMARK    7  A    between atoms: C7_8  and  C8_9
REMARK    8  A    between atoms: N2_11  and  C9_12
REMARK    9  A    between atoms: C9_12  and  C10_13
REMARK   10  A    between atoms: C13_16  and  C16_19
REMARK   11  A    between atoms: C29_34  and  C30_35
REMARK   12  A    between atoms: C30_35  and  C31_36
REMARK   13  A    between atoms: C31_36  and  C32_38
REMARK   14  A    between atoms: C31_36  and  O5_46
REMARK   15  A    between atoms: C32_38  and  C33_39
REMARK   16  A    between atoms: C33_39  and  C34_41
REMARK   17  A    between atoms: C33_39  and  O4_45
REMARK   18  A    between atoms: C34_41  and  C35_42
REMARK                            x       y       z     vdW  Elec       q    Type
REMARK                         _______ _______ _______ _____ _____    ______ ____
ROOT
ATOM      1  N1  <0> A   1     -14.301   6.845  45.300  0.00  0.00    -0.401 N 
ATOM      2  C4  <0> A   1     -13.467   7.886  45.057  0.00  0.00    +0.074 C 
ATOM      3  C5  <0> A   1     -13.825   8.936  45.848  0.00  0.00    -0.121 C 
ATOM      4  C6  <0> A   1     -14.939   8.526  46.624  0.00  0.00    -0.060 C 
ATOM      5  C7  <0> A   1     -15.219   7.215  46.256  0.00  0.00    -0.031 C 
ENDROOT
BRANCH   3   6
ATOM      6  C23 <0> A   1     -13.167  10.266  45.890  0.00  0.00    -0.009 A 
ATOM      7  C24 <0> A   1     -13.618  11.294  45.065  0.00  0.00    +0.050 A 
ATOM      8  C25 <0> A   1     -13.003  12.530  45.109  0.00  0.00    -0.016 A 
ATOM      9  C26 <0> A   1     -11.940  12.747  45.970  0.00  0.00    +0.095 A 
ATOM     10  C27 <0> A   1     -11.489  11.727  46.791  0.00  0.00    -0.018 A 
ATOM     11  C28 <0> A   1     -12.101  10.490  46.759  0.00  0.00    +0.056 A 
ATOM     12  F1  <0> A   1     -11.341  13.957  46.007  0.00  0.00    -0.142 F 
ENDBRANCH   3   6
BRANCH   4  13
ATOM     13  C17 <0> A   1     -15.665   9.339  47.626  0.00  0.00    -0.009 A 
ATOM     14  C18 <0> A   1     -16.620  10.269  47.215  0.00  0.00    +0.025 A 
ATOM     15  C19 <0> A   1     -17.293  11.023  48.154  0.00  0.00    +0.003 A 
ATOM     16  C20 <0> A   1     -17.021  10.859  49.501  0.00  0.00    -0.003 A 
ATOM     17  C21 <0> A   1     -16.075   9.939  49.914  0.00  0.00    -0.000 A 
ATOM     18  C22 <0> A   1     -15.400   9.174  48.986  0.00  0.00    +0.010 A 
ENDBRANCH   4  13
BRANCH   5  19
ATOM     19  C8  <0> A   1     -16.295   6.379  46.793  0.00  0.00    +0.605 C 
ATOM     20  O1  <0> A   1     -17.266   6.123  46.105  0.00  0.00    -0.518 OA
ATOM     21  N2  <0> A   1     -16.210   5.894  48.047  0.00  0.00    -0.718 N 
ATOM     22  H10 <0> A   1     -15.469   6.151  48.617  0.00  0.00    +0.405 HD
BRANCH  21  23
ATOM     23  C9  <0> A   1     -17.237   4.978  48.549  0.00  0.00    +0.323 C 
BRANCH  23  24
ATOM     24  C10 <0> A   1     -18.320   5.767  49.238  0.00  0.00    -0.081 A 
ATOM     25  C11 <0> A   1     -19.615   5.282  49.262  0.00  0.00    +0.039 A 
ATOM     26  C12 <0> A   1     -20.612   5.999  49.892  0.00  0.00    +0.066 A 
ATOM     27  C13 <0> A   1     -20.311   7.216  50.505  0.00  0.00    -0.018 A 
ATOM     28  C14 <0> A   1     -19.001   7.700  50.477  0.00  0.00    +0.065 A 
ATOM     29  C15 <0> A   1     -18.013   6.970  49.849  0.00  0.00    +0.037 A 
BRANCH  27  30
ATOM     30  C16 <0> A   1     -21.340   7.966  51.161  0.00  0.00    +0.248 C 
ATOM     31  N3  <0> A   1     -22.157   8.560  51.680  0.00  0.00    -0.408 NA
ENDBRANCH  27  30
ENDBRANCH  23  24
ENDBRANCH  21  23
ENDBRANCH   5  19
BRANCH   1  33
ATOM     32  C1  <0> A   1     -14.307   4.433  45.703  0.00  0.00    +0.046 C 
ATOM     33  C2  <0> A   1     -14.239   5.536  44.645  0.00  0.00    +0.229 C 
ATOM     34  C3  <0> A   1     -15.418   5.392  43.681  0.00  0.00    +0.043 C 
ENDBRANCH   1  33
BRANCH   2  35
ATOM     35  C29 <0> A   1     -12.329   7.880  44.070  0.00  0.00    +0.116 C 
BRANCH  35  36
ATOM     36  C30 <0> A   1     -12.839   8.328  42.699  0.00  0.00    -0.007 C 
BRANCH  36  37
ATOM     37  C31 <0> A   1     -12.030   7.635  41.601  0.00  0.00    +0.212 C 
BRANCH  37  38
ATOM     38  O5  <0> A   1     -11.714   6.304  42.012  0.00  0.00    -0.541 OA
ATOM     39  H35 <0> A   1     -12.460   5.691  41.971  0.00  0.00    +0.362 HD
ENDBRANCH  37  38
BRANCH  37  40
ATOM     40  C32 <0> A   1     -12.854   7.589  40.313  0.00  0.00    -0.051 C 
BRANCH  40  41
ATOM     41  C33 <0> A   1     -12.610   8.866  39.506  0.00  0.00    +0.230 C 
BRANCH  41  42
ATOM     42  O4  <0> A   1     -12.473   8.536  38.121  0.00  0.00    -0.528 OA
ATOM     43  H34 <0> A   1     -12.636   9.278  37.523  0.00  0.00    +0.349 HD
ENDBRANCH  41  42
BRANCH  41  44
ATOM     44  C34 <0> A   1     -13.793   9.819  39.688  0.00  0.00    -0.103 C 
BRANCH  44  45
ATOM     45  C35 <0> A   1     -13.294  11.241  39.706  0.00  0.00    +0.490 C 
ATOM     46  O2  <0> A   1     -13.531  11.983  38.768  0.00  0.00    -0.681 OA
ATOM     47  O3  <0> A   1     -12.653  11.650  40.659  0.00  0.00    -0.713 OA
ENDBRANCH  44  45
ENDBRANCH  41  44
ENDBRANCH  40  41
ENDBRANCH  37  40
ENDBRANCH  36  37
ENDBRANCH  35  36
ENDBRANCH   2  35
TORSDOF 16
ENDMDL
MODEL 3
REMARK VINA RESULT:      -7.8      3.136      9.262
REMARK  Name = CHEMBL400874
REMARK  18 active torsions:
REMARK  status: ('A' for Active; 'I' for Inactive)
REMARK    1  A    between atoms: C1_1  and  C2_2
REMARK    2  A    between atoms: C2_2  and  C3_3
REMARK    3  A    between atoms: C2_2  and  N1_4
REMARK    4  A    between atoms: C4_5  and  C29_34
REMARK    5  A    between atoms: C5_6  and  C23_27
REMARK    6  A    between atoms: C6_7  and  C17_21
REMARK    7  A    between atoms: C7_8  and  C8_9
REMARK    8  A    between atoms: N2_11  and  C9_12
REMARK    9  A    between atoms: C9_12  and  C10_13
REMARK   10  A    between atoms: C13_16  and  C16_19
REMARK   11  A    between atoms: C29_34  and  C30_35
REMARK   12  A    between atoms: C30_35  and  C31_36
REMARK   13  A    between atoms: C31_36  and  C32_38
REMARK   14  A    between atoms: C31_36  and  O5_46
REMARK   15  A    between atoms: C32_38  and  C33_39
REMARK   16  A    between atoms: C33_39  and  C34_41
REMARK   17  A    between atoms: C33_39  and  O4_45
REMARK   18  A    between atoms: C34_41  and  C35_42
REMARK                            x       y       z     vdW  Elec       q    Type
REMARK                         _______ _______ _______ _____ _____    ______ ____
ROOT
ATOM      1  N1  <0> A   1     -15.220   6.511  45.748  0.00  0.00    -0.401 N 
ATOM      2  C4  <0> A   1     -15.953   6.853  46.835  0.00  0.00    +0.074 C 
ATOM      3  C5  <0> A   1     -15.375   7.928  47.440  0.00  0.00    -0.121 C 
ATOM      4  C6  <0> A   1     -14.221   8.271  46.689  0.00  0.00    -0.060 C 
ATOM      5  C7  <0> A   1     -14.146   7.364  45.639  0.00  0.00    -0.031 C 
ENDROOT
BRANCH   3   6
ATOM      6  C23 <0> A   1     -15.863   8.615  48.662  0.00  0.00    -0.009 A 
ATOM      7  C24 <0> A   1     -15.571   8.093  49.920  0.00  0.00    +0.050 A 
ATOM      8  C25 <0> A   1     -16.027   8.736  51.054  0.00  0.00    -0.016 A 
ATOM      9  C26 <0> A   1     -16.775   9.897  50.940  0.00  0.00    +0.095 A 
ATOM     10  C27 <0> A   1     -17.067  10.419  49.691  0.00  0.00    -0.018 A 
ATOM     11  C28 <0> A   1     -16.609   9.787  48.552  0.00  0.00    +0.056 A 
ATOM     12  F1  <0> A   1     -17.220  10.522  52.053  0.00  0.00    -0.142 F 
ENDBRANCH   3   6
BRANCH   4  13
ATOM     13  C17 <0> A   1     -13.279   9.378  46.973  0.00  0.00    -0.009 A 
ATOM     14  C18 <0> A   1     -13.366  10.573  46.259  0.00  0.00    +0.025 A 
ATOM     15  C19 <0> A   1     -12.485  11.599  46.527  0.00  0.00    +0.003 A 
ATOM     16  C20 <0> A   1     -11.515  11.445  47.502  0.00  0.00    -0.003 A 
ATOM     17  C21 <0> A   1     -11.423  10.263  48.213  0.00  0.00    -0.000 A 
ATOM     18  C22 <0> A   1     -12.302   9.230  47.959  0.00  0.00    +0.010 A 
ENDBRANCH   4  13
BRANCH   5  19
ATOM     19  C8  <0> A   1     -13.111   7.326  44.603  0.00  0.00    +0.605 C 
ATOM     20  O1  <0> A   1     -11.937   7.423  44.912  0.00  0.00    -0.518 OA
ATOM     21  N2  <0> A   1     -13.458   7.184  43.309  0.00  0.00    -0.718 N 
ATOM     22  H10 <0> A   1     -14.394   7.173  43.057  0.00  0.00    +0.405 HD
BRANCH  21  23
ATOM     23  C9  <0> A   1     -12.421   7.047  42.284  0.00  0.00    +0.323 C 
BRANCH  23  24
ATOM     24  C10 <0> A   1     -12.464   8.240  41.364  0.00  0.00    -0.081 A 
ATOM     25  C11 <0> A   1     -12.593   8.052  39.999  0.00  0.00    +0.039 A 
ATOM     26  C12 <0> A   1     -12.632   9.139  39.151  0.00  0.00    +0.066 A 
ATOM     27  C13 <0> A   1     -12.542  10.431  39.672  0.00  0.00    -0.018 A 
ATOM     28  C14 <0> A   1     -12.412  10.614  41.050  0.00  0.00    +0.065 A 
ATOM     29  C15 <0> A   1     -12.379   9.518  41.888  0.00  0.00    +0.037 A 
BRANCH  27  30
ATOM     30  C16 <0> A   1     -12.583  11.565  38.797  0.00  0.00    +0.248 C 
ATOM     31  N3  <0> A   1     -12.615  12.463  38.104  0.00  0.00    -0.408 NA
ENDBRANCH  27  30
ENDBRANCH  23  24
ENDBRANCH  21  23
ENDBRANCH   5  19
BRANCH   1  33
ATOM     32  C1  <0> A   1     -15.667   4.109  45.639  0.00  0.00    +0.046 C 
ATOM     33  C2  <0> A   1     -15.518   5.403  44.836  0.00  0.00    +0.229 C 
ATOM     34  C3  <0> A   1     -16.821   5.693  44.088  0.00  0.00    +0.043 C 
ENDBRANCH   1  33
BRANCH   2  35
ATOM     35  C29 <0> A   1     -17.206   6.157  47.297  0.00  0.00    +0.116 C 
BRANCH  35  36
ATOM     36  C30 <0> A   1     -18.430   6.950  46.836  0.00  0.00    -0.007 C 
BRANCH  36  37
ATOM     37  C31 <0> A   1     -19.480   6.961  47.949  0.00  0.00    +0.212 C 
BRANCH  37  38
ATOM     38  O5  <0> A   1     -20.523   6.040  47.629  0.00  0.00    -0.541 OA
ATOM     39  H35 <0> A   1     -20.538   5.252  48.190  0.00  0.00    +0.362 HD
ENDBRANCH  37  38
BRANCH  37  40
ATOM     40  C32 <0> A   1     -18.826   6.553  49.271  0.00  0.00    -0.051 C 
BRANCH  40  41
ATOM     41  C33 <0> A   1     -19.718   6.985  50.437  0.00  0.00    +0.230 C 
BRANCH  41  42
ATOM     42  O4  <0> A   1     -20.911   7.587  49.927  0.00  0.00    -0.528 OA
ATOM     43  H34 <0> A   1     -21.275   8.279  50.495  0.00  0.00    +0.349 HD
ENDBRANCH  41  42
BRANCH  41  44
ATOM     44  C34 <0> A   1     -20.085   5.762  51.280  0.00  0.00    -0.103 C 
BRANCH  44  45
ATOM     45  C35 <0> A   1     -21.468   5.292  50.910  0.00  0.00    +0.490 C 
ATOM     46  O2  <0> A   1     -21.624   4.538  49.964  0.00  0.00    -0.681 OA
ATOM     47  O3  <0> A   1     -22.432   5.667  51.556  0.00  0.00    -0.713 OA
ENDBRANCH  44  45
ENDBRANCH  41  44
ENDBRANCH  40  41
ENDBRANCH  37  40
ENDBRANCH  36  37
ENDBRANCH  35  36
ENDBRANCH   2  35
TORSDOF 16
ENDMDL
MODEL 4
REMARK VINA RESULT:      -7.7      2.907      8.918
REMARK  Name = CHEMBL400874
REMARK  18 active torsions:
REMARK  status: ('A' for Active; 'I' for Inactive)
REMARK    1  A    between atoms: C1_1  and  C2_2
REMARK    2  A    between atoms: C2_2  and  C3_3
REMARK    3  A    between atoms: C2_2  and  N1_4
REMARK    4  A    between atoms: C4_5  and  C29_34
REMARK    5  A    between atoms: C5_6  and  C23_27
REMARK    6  A    between atoms: C6_7  and  C17_21
REMARK    7  A    between atoms: C7_8  and  C8_9
REMARK    8  A    between atoms: N2_11  and  C9_12
REMARK    9  A    between atoms: C9_12  and  C10_13
REMARK   10  A    between atoms: C13_16  and  C16_19
REMARK   11  A    between atoms: C29_34  and  C30_35
REMARK   12  A    between atoms: C30_35  and  C31_36
REMARK   13  A    between atoms: C31_36  and  C32_38
REMARK   14  A    between atoms: C31_36  and  O5_46
REMARK   15  A    between atoms: C32_38  and  C33_39
REMARK   16  A    between atoms: C33_39  and  C34_41
REMARK   17  A    between atoms: C33_39  and  O4_45
REMARK   18  A    between atoms: C34_41  and  C35_42
REMARK                            x       y       z     vdW  Elec       q    Type
REMARK                         _______ _______ _______ _____ _____    ______ ____
ROOT
ATOM      1  N1  <0> A   1     -15.320   5.945  45.937  0.00  0.00    -0.401 N 
ATOM      2  C4  <0> A   1     -15.777   6.461  47.104  0.00  0.00    +0.074 C 
ATOM      3  C5  <0> A   1     -15.291   7.726  47.250  0.00  0.00    -0.121 C 
ATOM      4  C6  <0> A   1     -14.490   8.010  46.115  0.00  0.00    -0.060 C 
ATOM      5  C7  <0> A   1     -14.521   6.875  45.313  0.00  0.00    -0.031 C 
ENDROOT
BRANCH   3   6
ATOM      6  C23 <0> A   1     -15.554   8.640  48.390  0.00  0.00    -0.009 A 
ATOM      7  C24 <0> A   1     -14.868   8.473  49.591  0.00  0.00    +0.050 A 
ATOM      8  C25 <0> A   1     -15.115   9.326  50.648  0.00  0.00    -0.016 A 
ATOM      9  C26 <0> A   1     -16.044  10.345  50.516  0.00  0.00    +0.095 A 
ATOM     10  C27 <0> A   1     -16.728  10.514  49.323  0.00  0.00    -0.018 A 
ATOM     11  C28 <0> A   1     -16.482   9.670  48.259  0.00  0.00    +0.056 A 
ATOM     12  F1  <0> A   1     -16.283  11.176  51.554  0.00  0.00    -0.142 F 
ENDBRANCH   3   6
BRANCH   4  13
ATOM     13  C17 <0> A   1     -13.759   9.268  45.841  0.00  0.00    -0.009 A 
ATOM     14  C18 <0> A   1     -12.425   9.401  46.225  0.00  0.00    +0.025 A 
ATOM     15  C19 <0> A   1     -11.750  10.576  45.966  0.00  0.00    +0.003 A 
ATOM     16  C20 <0> A   1     -12.394  11.622  45.330  0.00  0.00    -0.003 A 
ATOM     17  C21 <0> A   1     -13.717  11.496  44.947  0.00  0.00    -0.000 A 
ATOM     18  C22 <0> A   1     -14.402  10.324  45.193  0.00  0.00    +0.010 A 
ENDBRANCH   4  13
BRANCH   5  19
ATOM     19  C8  <0> A   1     -13.831   6.703  44.032  0.00  0.00    +0.605 C 
ATOM     20  O1  <0> A   1     -14.472   6.490  43.020  0.00  0.00    -0.518 OA
ATOM     21  N2  <0> A   1     -12.487   6.781  43.976  0.00  0.00    -0.718 N 
ATOM     22  H10 <0> A   1     -11.973   6.885  44.791  0.00  0.00    +0.405 HD
BRANCH  21  23
ATOM     23  C9  <0> A   1     -11.803   6.707  42.682  0.00  0.00    +0.323 C 
BRANCH  23  24
ATOM     24  C10 <0> A   1     -12.202   7.889  41.836  0.00  0.00    -0.081 A 
ATOM     25  C11 <0> A   1     -12.219   9.157  42.390  0.00  0.00    +0.039 A 
ATOM     26  C12 <0> A   1     -12.583  10.244  41.622  0.00  0.00    +0.066 A 
ATOM     27  C13 <0> A   1     -12.934  10.061  40.283  0.00  0.00    -0.018 A 
ATOM     28  C14 <0> A   1     -12.914   8.779  39.730  0.00  0.00    +0.065 A 
ATOM     29  C15 <0> A   1     -12.544   7.702  40.508  0.00  0.00    +0.037 A 
BRANCH  27  30
ATOM     30  C16 <0> A   1     -13.313  11.185  39.479  0.00  0.00    +0.248 C 
ATOM     31  N3  <0> A   1     -13.614  12.075  38.841  0.00  0.00    -0.408 NA
ENDBRANCH  27  30
ENDBRANCH  23  24
ENDBRANCH  21  23
ENDBRANCH   5  19
BRANCH   1  33
ATOM     32  C1  <0> A   1     -16.492   4.723  44.173  0.00  0.00    +0.046 C 
ATOM     33  C2  <0> A   1     -15.621   4.606  45.425  0.00  0.00    +0.229 C 
ATOM     34  C3  <0> A   1     -14.317   3.887  45.074  0.00  0.00    +0.043 C 
ENDBRANCH   1  33
BRANCH   2  35
ATOM     35  C29 <0> A   1     -16.678   5.750  48.080  0.00  0.00    +0.116 C 
BRANCH  35  36
ATOM     36  C30 <0> A   1     -18.076   6.369  48.027  0.00  0.00    -0.007 C 
BRANCH  36  37
ATOM     37  C31 <0> A   1     -18.768   6.184  49.379  0.00  0.00    +0.212 C 
BRANCH  37  38
ATOM     38  O5  <0> A   1     -17.936   5.400  50.236  0.00  0.00    -0.541 OA
ATOM     39  H35 <0> A   1     -17.034   5.279  49.907  0.00  0.00    +0.362 HD
ENDBRANCH  37  38
BRANCH  37  40
ATOM     40  C32 <0> A   1     -19.012   7.552  50.018  0.00  0.00    -0.051 C 
BRANCH  40  41
ATOM     41  C33 <0> A   1     -20.479   7.948  49.831  0.00  0.00    +0.230 C 
BRANCH  41  42
ATOM     42  O4  <0> A   1     -21.317   6.987  50.478  0.00  0.00    -0.528 OA
ATOM     43  H34 <0> A   1     -22.258   7.090  50.280  0.00  0.00    +0.349 HD
ENDBRANCH  41  42
BRANCH  41  44
ATOM     44  C34 <0> A   1     -20.718   9.329  50.445  0.00  0.00    -0.103 C 
BRANCH  44  45
ATOM     45  C35 <0> A   1     -22.197   9.610  50.489  0.00  0.00    +0.490 C 
ATOM     46  O2  <0> A   1     -22.757  10.086  49.515  0.00  0.00    -0.681 OA
ATOM     47  O3  <0> A   1     -22.835   9.362  51.498  0.00  0.00    -0.713 OA
ENDBRANCH  44  45
ENDBRANCH  41  44
ENDBRANCH  40  41
ENDBRANCH  37  40
ENDBRANCH  36  37
ENDBRANCH  35  36
ENDBRANCH   2  35
TORSDOF 16
ENDMDL
MODEL 5
REMARK VINA RESULT:      -7.6      3.195      9.265
REMARK  Name = CHEMBL400874
REMARK  18 active torsions:
REMARK  status: ('A' for Active; 'I' for Inactive)
REMARK    1  A    between atoms: C1_1  and  C2_2
REMARK    2  A    between atoms: C2_2  and  C3_3
REMARK    3  A    between atoms: C2_2  and  N1_4
REMARK    4  A    between atoms: C4_5  and  C29_34
REMARK    5  A    between atoms: C5_6  and  C23_27
REMARK    6  A    between atoms: C6_7  and  C17_21
REMARK    7  A    between atoms: C7_8  and  C8_9
REMARK    8  A    between atoms: N2_11  and  C9_12
REMARK    9  A    between atoms: C9_12  and  C10_13
REMARK   10  A    between atoms: C13_16  and  C16_19
REMARK   11  A    between atoms: C29_34  and  C30_35
REMARK   12  A    between atoms: C30_35  and  C31_36
REMARK   13  A    between atoms: C31_36  and  C32_38
REMARK   14  A    between atoms: C31_36  and  O5_46
REMARK   15  A    between atoms: C32_38  and  C33_39
REMARK   16  A    between atoms: C33_39  and  C34_41
REMARK   17  A    between atoms: C33_39  and  O4_45
REMARK   18  A    between atoms: C34_41  and  C35_42
REMARK                            x       y       z     vdW  Elec       q    Type
REMARK                         _______ _______ _______ _____ _____    ______ ____
ROOT
ATOM      1  N1  <0> A   1     -15.496   6.211  46.222  0.00  0.00    -0.401 N 
ATOM      2  C4  <0> A   1     -16.176   6.646  47.310  0.00  0.00    +0.074 C 
ATOM      3  C5  <0> A   1     -15.541   7.736  47.824  0.00  0.00    -0.121 C 
ATOM      4  C6  <0> A   1     -14.406   7.991  47.013  0.00  0.00    -0.060 C 
ATOM      5  C7  <0> A   1     -14.400   7.018  46.021  0.00  0.00    -0.031 C 
ENDROOT
BRANCH   3   6
ATOM      6  C23 <0> A   1     -15.961   8.514  49.016  0.00  0.00    -0.009 A 
ATOM      7  C24 <0> A   1     -16.622   9.730  48.859  0.00  0.00    +0.050 A 
ATOM      8  C25 <0> A   1     -17.011  10.451  49.970  0.00  0.00    -0.016 A 
ATOM      9  C26 <0> A   1     -16.744   9.966  51.240  0.00  0.00    +0.095 A 
ATOM     10  C27 <0> A   1     -16.086   8.758  51.401  0.00  0.00    -0.018 A 
ATOM     11  C28 <0> A   1     -15.699   8.027  50.296  0.00  0.00    +0.056 A 
ATOM     12  F1  <0> A   1     -17.125  10.676  52.325  0.00  0.00    -0.142 F 
ENDBRANCH   3   6
BRANCH   4  13
ATOM     13  C17 <0> A   1     -13.418   9.080  47.191  0.00  0.00    -0.009 A 
ATOM     14  C18 <0> A   1     -12.409   8.960  48.146  0.00  0.00    +0.025 A 
ATOM     15  C19 <0> A   1     -11.492   9.978  48.307  0.00  0.00    +0.003 A 
ATOM     16  C20 <0> A   1     -11.573  11.117  47.526  0.00  0.00    -0.003 A 
ATOM     17  C21 <0> A   1     -12.573  11.241  46.578  0.00  0.00    -0.000 A 
ATOM     18  C22 <0> A   1     -13.492  10.228  46.402  0.00  0.00    +0.010 A 
ENDBRANCH   4  13
BRANCH   5  19
ATOM     19  C8  <0> A   1     -13.407   6.879  44.953  0.00  0.00    +0.605 C 
ATOM     20  O1  <0> A   1     -12.270   6.533  45.221  0.00  0.00    -0.518 OA
ATOM     21  N2  <0> A   1     -13.750   7.134  43.675  0.00  0.00    -0.718 N 
ATOM     22  H10 <0> A   1     -14.636   7.471  43.470  0.00  0.00    +0.405 HD
BRANCH  21  23
ATOM     23  C9  <0> A   1     -12.787   6.900  42.598  0.00  0.00    +0.323 C 
BRANCH  23  24
ATOM     24  C10 <0> A   1     -12.782   8.082  41.663  0.00  0.00    -0.081 A 
ATOM     25  C11 <0> A   1     -12.719   7.878  40.297  0.00  0.00    +0.039 A 
ATOM     26  C12 <0> A   1     -12.714   8.956  39.434  0.00  0.00    +0.066 A 
ATOM     27  C13 <0> A   1     -12.774  10.254  39.945  0.00  0.00    -0.018 A 
ATOM     28  C14 <0> A   1     -12.838  10.452  41.325  0.00  0.00    +0.065 A 
ATOM     29  C15 <0> A   1     -12.847   9.366  42.176  0.00  0.00    +0.037 A 
BRANCH  27  30
ATOM     30  C16 <0> A   1     -12.770  11.377  39.056  0.00  0.00    +0.248 C 
ATOM     31  N3  <0> A   1     -12.766  12.269  38.352  0.00  0.00    -0.408 NA
ENDBRANCH  27  30
ENDBRANCH  23  24
ENDBRANCH  21  23
ENDBRANCH   5  19
BRANCH   1  33
ATOM     32  C1  <0> A   1     -16.377   5.549  44.039  0.00  0.00    +0.046 C 
ATOM     33  C2  <0> A   1     -15.864   5.059  45.394  0.00  0.00    +0.229 C 
ATOM     34  C3  <0> A   1     -14.639   4.167  45.185  0.00  0.00    +0.043 C 
ENDBRANCH   1  33
BRANCH   2  35
ATOM     35  C29 <0> A   1     -17.433   6.024  47.860  0.00  0.00    +0.116 C 
BRANCH  35  36
ATOM     36  C30 <0> A   1     -18.652   6.772  47.319  0.00  0.00    -0.007 C 
BRANCH  36  37
ATOM     37  C31 <0> A   1     -19.756   6.785  48.378  0.00  0.00    +0.212 C 
BRANCH  37  38
ATOM     38  O5  <0> A   1     -20.633   5.678  48.164  0.00  0.00    -0.541 OA
ATOM     39  H35 <0> A   1     -21.295   5.827  47.474  0.00  0.00    +0.362 HD
ENDBRANCH  37  38
BRANCH  37  40
ATOM     40  C32 <0> A   1     -19.129   6.677  49.769  0.00  0.00    -0.051 C 
BRANCH  40  41
ATOM     41  C33 <0> A   1     -20.038   7.359  50.793  0.00  0.00    +0.230 C 
BRANCH  41  42
ATOM     42  O4  <0> A   1     -21.197   7.874  50.133  0.00  0.00    -0.528 OA
ATOM     43  H34 <0> A   1     -21.741   7.196  49.710  0.00  0.00    +0.349 HD
ENDBRANCH  41  42
BRANCH  41  44
ATOM     44  C34 <0> A   1     -20.465   6.342  51.854  0.00  0.00    -0.103 C 
BRANCH  44  45
ATOM     45  C35 <0> A   1     -21.837   5.816  51.523  0.00  0.00    +0.490 C 
ATOM     46  O2  <0> A   1     -22.820   6.286  52.071  0.00  0.00    -0.681 OA
ATOM     47  O3  <0> A   1     -21.966   4.920  50.705  0.00  0.00    -0.713 OA
ENDBRANCH  44  45
ENDBRANCH  41  44
ENDBRANCH  40  41
ENDBRANCH  37  40
ENDBRANCH  36  37
ENDBRANCH  35  36
ENDBRANCH   2  35
TORSDOF 16
ENDMDL
MODEL 6
REMARK VINA RESULT:      -7.5      1.831      2.577
REMARK  Name = CHEMBL400874
REMARK  18 active torsions:
REMARK  status: ('A' for Active; 'I' for Inactive)
REMARK    1  A    between atoms: C1_1  and  C2_2
REMARK    2  A    between atoms: C2_2  and  C3_3
REMARK    3  A    between atoms: C2_2  and  N1_4
REMARK    4  A    between atoms: C4_5  and  C29_34
REMARK    5  A    between atoms: C5_6  and  C23_27
REMARK    6  A    between atoms: C6_7  and  C17_21
REMARK    7  A    between atoms: C7_8  and  C8_9
REMARK    8  A    between atoms: N2_11  and  C9_12
REMARK    9  A    between atoms: C9_12  and  C10_13
REMARK   10  A    between atoms: C13_16  and  C16_19
REMARK   11  A    between atoms: C29_34  and  C30_35
REMARK   12  A    between atoms: C30_35  and  C31_36
REMARK   13  A    between atoms: C31_36  and  C32_38
REMARK   14  A    between atoms: C31_36  and  O5_46
REMARK   15  A    between atoms: C32_38  and  C33_39
REMARK   16  A    between atoms: C33_39  and  C34_41
REMARK   17  A    between atoms: C33_39  and  O4_45
REMARK   18  A    between atoms: C34_41  and  C35_42
REMARK                            x       y       z     vdW  Elec       q    Type
REMARK                         _______ _______ _______ _____ _____    ______ ____
ROOT
ATOM      1  N1  <0> A   1     -15.777   6.217  45.552  0.00  0.00    -0.401 N 
ATOM      2  C4  <0> A   1     -14.564   6.723  45.221  0.00  0.00    +0.074 C 
ATOM      3  C5  <0> A   1     -14.342   7.855  45.945  0.00  0.00    -0.121 C 
ATOM      4  C6  <0> A   1     -15.477   8.063  46.770  0.00  0.00    -0.060 C 
ATOM      5  C7  <0> A   1     -16.361   7.026  46.499  0.00  0.00    -0.031 C 
ENDROOT
BRANCH   3   6
ATOM      6  C23 <0> A   1     -13.132   8.713  45.884  0.00  0.00    -0.009 A 
ATOM      7  C24 <0> A   1     -13.111   9.831  45.054  0.00  0.00    +0.050 A 
ATOM      8  C25 <0> A   1     -11.984  10.627  45.000  0.00  0.00    -0.016 A 
ATOM      9  C26 <0> A   1     -10.875  10.313  45.769  0.00  0.00    +0.095 A 
ATOM     10  C27 <0> A   1     -10.892   9.201  46.595  0.00  0.00    -0.018 A 
ATOM     11  C28 <0> A   1     -12.017   8.404  46.661  0.00  0.00    +0.056 A 
ATOM     12  F1  <0> A   1      -9.774  11.094  45.712  0.00  0.00    -0.142 F 
ENDBRANCH   3   6
BRANCH   4  13
ATOM     13  C17 <0> A   1     -15.681   9.173  47.729  0.00  0.00    -0.009 A 
ATOM     14  C18 <0> A   1     -16.225  10.382  47.297  0.00  0.00    +0.025 A 
ATOM     15  C19 <0> A   1     -16.412  11.412  48.195  0.00  0.00    +0.003 A 
ATOM     16  C20 <0> A   1     -16.060  11.248  49.523  0.00  0.00    -0.003 A 
ATOM     17  C21 <0> A   1     -15.520  10.051  49.958  0.00  0.00    -0.000 A 
ATOM     18  C22 <0> A   1     -15.333   9.011  49.071  0.00  0.00    +0.010 A 
ENDBRANCH   4  13
BRANCH   5  19
ATOM     19  C8  <0> A   1     -17.677   6.830  47.112  0.00  0.00    +0.605 C 
ATOM     20  O1  <0> A   1     -18.686   7.073  46.477  0.00  0.00    -0.518 OA
ATOM     21  N2  <0> A   1     -17.769   6.381  48.380  0.00  0.00    -0.718 N 
ATOM     22  H10 <0> A   1     -16.966   6.250  48.907  0.00  0.00    +0.405 HD
BRANCH  21  23
ATOM     23  C9  <0> A   1     -19.082   6.091  48.960  0.00  0.00    +0.323 C 
BRANCH  23  24
ATOM     24  C10 <0> A   1     -18.934   5.057  50.046  0.00  0.00    -0.081 A 
ATOM     25  C11 <0> A   1     -19.092   5.424  51.370  0.00  0.00    +0.039 A 
ATOM     26  C12 <0> A   1     -18.958   4.483  52.371  0.00  0.00    +0.066 A 
ATOM     27  C13 <0> A   1     -18.662   3.159  52.044  0.00  0.00    -0.018 A 
ATOM     28  C14 <0> A   1     -18.503   2.796  50.705  0.00  0.00    +0.065 A 
ATOM     29  C15 <0> A   1     -18.645   3.745  49.714  0.00  0.00    +0.037 A 
BRANCH  27  30
ATOM     30  C16 <0> A   1     -18.521   2.176  53.077  0.00  0.00    +0.248 C 
ATOM     31  N3  <0> A   1     -18.410   1.398  53.896  0.00  0.00    -0.408 NA
ENDBRANCH  27  30
ENDBRANCH  23  24
ENDBRANCH  21  23
ENDBRANCH   5  19
BRANCH   1  33
ATOM     32  C1  <0> A   1     -16.979   5.326  43.618  0.00  0.00    +0.046 C 
ATOM     33  C2  <0> A   1     -16.375   5.005  44.986  0.00  0.00    +0.229 C 
ATOM     34  C3  <0> A   1     -15.299   3.929  44.829  0.00  0.00    +0.043 C 
ENDBRANCH   1  33
BRANCH   2  35
ATOM     35  C29 <0> A   1     -13.615   6.127  44.214  0.00  0.00    +0.116 C 
BRANCH  35  36
ATOM     36  C30 <0> A   1     -13.733   6.884  42.890  0.00  0.00    -0.007 C 
BRANCH  36  37
ATOM     37  C31 <0> A   1     -12.337   7.266  42.394  0.00  0.00    +0.212 C 
BRANCH  37  38
ATOM     38  O5  <0> A   1     -11.536   6.089  42.275  0.00  0.00    -0.541 OA
ATOM     39  H35 <0> A   1     -10.587   6.247  42.372  0.00  0.00    +0.362 HD
ENDBRANCH  37  38
BRANCH  37  40
ATOM     40  C32 <0> A   1     -12.450   7.947  41.028  0.00  0.00    -0.051 C 
BRANCH  40  41
ATOM     41  C33 <0> A   1     -12.933   9.387  41.214  0.00  0.00    +0.230 C 
BRANCH  41  42
ATOM     42  O4  <0> A   1     -11.811  10.273  41.192  0.00  0.00    -0.528 OA
ATOM     43  H34 <0> A   1     -11.492  10.479  40.303  0.00  0.00    +0.349 HD
ENDBRANCH  41  42
BRANCH  41  44
ATOM     44  C34 <0> A   1     -13.896   9.753  40.082  0.00  0.00    -0.103 C 
BRANCH  44  45
ATOM     45  C35 <0> A   1     -13.436  11.028  39.425  0.00  0.00    +0.490 C 
ATOM     46  O2  <0> A   1     -13.963  12.089  39.716  0.00  0.00    -0.681 OA
ATOM     47  O3  <0> A   1     -12.537  11.000  38.602  0.00  0.00    -0.713 OA
ENDBRANCH  44  45
ENDBRANCH  41  44
ENDBRANCH  40  41
ENDBRANCH  37  40
ENDBRANCH  36  37
ENDBRANCH  35  36
ENDBRANCH   2  35
TORSDOF 16
ENDMDL
MODEL 7
REMARK VINA RESULT:      -7.5      3.748      9.974
REMARK  Name = CHEMBL400874
REMARK  18 active torsions:
REMARK  status: ('A' for Active; 'I' for Inactive)
REMARK    1  A    between atoms: C1_1  and  C2_2
REMARK    2  A    between atoms: C2_2  and  C3_3
REMARK    3  A    between atoms: C2_2  and  N1_4
REMARK    4  A    between atoms: C4_5  and  C29_34
REMARK    5  A    between atoms: C5_6  and  C23_27
REMARK    6  A    between atoms: C6_7  and  C17_21
REMARK    7  A    between atoms: C7_8  and  C8_9
REMARK    8  A    between atoms: N2_11  and  C9_12
REMARK    9  A    between atoms: C9_12  and  C10_13
REMARK   10  A    between atoms: C13_16  and  C16_19
REMARK   11  A    between atoms: C29_34  and  C30_35
REMARK   12  A    between atoms: C30_35  and  C31_36
REMARK   13  A    between atoms: C31_36  and  C32_38
REMARK   14  A    between atoms: C31_36  and  O5_46
REMARK   15  A    between atoms: C32_38  and  C33_39
REMARK   16  A    between atoms: C33_39  and  C34_41
REMARK   17  A    between atoms: C33_39  and  O4_45
REMARK   18  A    between atoms: C34_41  and  C35_42
REMARK                            x       y       z     vdW  Elec       q    Type
REMARK                         _______ _______ _______ _____ _____    ______ ____
ROOT
ATOM      1  N1  <0> A   1     -15.446   9.266  48.717  0.00  0.00    -0.401 N 
ATOM      2  C4  <0> A   1     -16.615   8.739  49.156  0.00  0.00    +0.074 C 
ATOM      3  C5  <0> A   1     -16.866   7.586  48.475  0.00  0.00    -0.121 C 
ATOM      4  C6  <0> A   1     -15.796   7.387  47.565  0.00  0.00    -0.060 C 
ATOM      5  C7  <0> A   1     -14.925   8.456  47.735  0.00  0.00    -0.031 C 
ENDROOT
BRANCH   3   6
ATOM      6  C23 <0> A   1     -18.043   6.701  48.653  0.00  0.00    -0.009 A 
ATOM      7  C24 <0> A   1     -17.940   5.549  49.429  0.00  0.00    +0.050 A 
ATOM      8  C25 <0> A   1     -19.038   4.728  49.592  0.00  0.00    -0.016 A 
ATOM      9  C26 <0> A   1     -20.241   5.049  48.985  0.00  0.00    +0.095 A 
ATOM     10  C27 <0> A   1     -20.348   6.194  48.212  0.00  0.00    -0.018 A 
ATOM     11  C28 <0> A   1     -19.257   7.024  48.049  0.00  0.00    +0.056 A 
ATOM     12  F1  <0> A   1     -21.313   4.242  49.147  0.00  0.00    -0.142 F 
ENDBRANCH   3   6
BRANCH   4  13
ATOM     13  C17 <0> A   1     -15.641   6.260  46.616  0.00  0.00    -0.009 A 
ATOM     14  C18 <0> A   1     -14.685   5.273  46.850  0.00  0.00    +0.025 A 
ATOM     15  C19 <0> A   1     -14.546   4.227  45.962  0.00  0.00    +0.003 A 
ATOM     16  C20 <0> A   1     -15.351   4.156  44.839  0.00  0.00    -0.003 A 
ATOM     17  C21 <0> A   1     -16.301   5.133  44.601  0.00  0.00    -0.000 A 
ATOM     18  C22 <0> A   1     -16.455   6.181  45.485  0.00  0.00    +0.010 A 
ENDBRANCH   4  13
BRANCH   5  19
ATOM     19  C8  <0> A   1     -13.677   8.678  47.001  0.00  0.00    +0.605 C 
ATOM     20  O1  <0> A   1     -12.661   8.099  47.341  0.00  0.00    -0.518 OA
ATOM     21  N2  <0> A   1     -13.652   9.524  45.952  0.00  0.00    -0.718 N 
ATOM     22  H10 <0> A   1     -14.444  10.034  45.723  0.00  0.00    +0.405 HD
BRANCH  21  23
ATOM     23  C9  <0> A   1     -12.430   9.671  45.159  0.00  0.00    +0.323 C 
BRANCH  23  24
ATOM     24  C10 <0> A   1     -12.788  10.107  43.762  0.00  0.00    -0.081 A 
ATOM     25  C11 <0> A   1     -13.853  10.967  43.561  0.00  0.00    +0.039 A 
ATOM     26  C12 <0> A   1     -14.187  11.371  42.285  0.00  0.00    +0.066 A 
ATOM     27  C13 <0> A   1     -13.447  10.911  41.195  0.00  0.00    -0.018 A 
ATOM     28  C14 <0> A   1     -12.373  10.043  41.404  0.00  0.00    +0.065 A 
ATOM     29  C15 <0> A   1     -12.047   9.651  42.686  0.00  0.00    +0.037 A 
BRANCH  27  30
ATOM     30  C16 <0> A   1     -13.787  11.326  39.866  0.00  0.00    +0.248 C 
ATOM     31  N3  <0> A   1     -14.056  11.656  38.814  0.00  0.00    -0.408 NA
ENDBRANCH  27  30
ENDBRANCH  23  24
ENDBRANCH  21  23
ENDBRANCH   5  19
BRANCH   1  33
ATOM     32  C1  <0> A   1     -15.784  11.677  48.945  0.00  0.00    +0.046 C 
ATOM     33  C2  <0> A   1     -14.836  10.505  49.206  0.00  0.00    +0.229 C 
ATOM     34  C3  <0> A   1     -14.572  10.387  50.709  0.00  0.00    +0.043 C 
ENDBRANCH   1  33
BRANCH   2  35
ATOM     35  C29 <0> A   1     -17.494   9.334  50.225  0.00  0.00    +0.116 C 
BRANCH  35  36
ATOM     36  C30 <0> A   1     -17.625   8.345  51.385  0.00  0.00    -0.007 C 
BRANCH  36  37
ATOM     37  C31 <0> A   1     -19.096   8.227  51.791  0.00  0.00    +0.212 C 
BRANCH  37  38
ATOM     38  O5  <0> A   1     -19.222   8.461  53.194  0.00  0.00    -0.541 OA
ATOM     39  H35 <0> A   1     -19.060   7.680  53.741  0.00  0.00    +0.362 HD
ENDBRANCH  37  38
BRANCH  37  40
ATOM     40  C32 <0> A   1     -19.921   9.263  51.024  0.00  0.00    -0.051 C 
BRANCH  40  41
ATOM     41  C33 <0> A   1     -21.321   8.705  50.759  0.00  0.00    +0.230 C 
BRANCH  41  42
ATOM     42  O4  <0> A   1     -21.401   7.365  51.252  0.00  0.00    -0.528 OA
ATOM     43  H34 <0> A   1     -20.743   6.767  50.872  0.00  0.00    +0.349 HD
ENDBRANCH  41  42
BRANCH  41  44
ATOM     44  C34 <0> A   1     -22.360   9.574  51.471  0.00  0.00    -0.103 C 
BRANCH  44  45
ATOM     45  C35 <0> A   1     -23.008  10.499  50.474  0.00  0.00    +0.490 C 
ATOM     46  O2  <0> A   1     -23.398  11.600  50.827  0.00  0.00    -0.681 OA
ATOM     47  O3  <0> A   1     -23.144  10.148  49.315  0.00  0.00    -0.713 OA
ENDBRANCH  44  45
ENDBRANCH  41  44
ENDBRANCH  40  41
ENDBRANCH  37  40
ENDBRANCH  36  37
ENDBRANCH  35  36
ENDBRANCH   2  35
TORSDOF 16
ENDMDL
MODEL 8
REMARK VINA RESULT:      -7.4     14.923     19.894
REMARK  Name = CHEMBL400874
REMARK  18 active torsions:
REMARK  status: ('A' for Active; 'I' for Inactive)
REMARK    1  A    between atoms: C1_1  and  C2_2
REMARK    2  A    between atoms: C2_2  and  C3_3
REMARK    3  A    between atoms: C2_2  and  N1_4
REMARK    4  A    between atoms: C4_5  and  C29_34
REMARK    5  A    between atoms: C5_6  and  C23_27
REMARK    6  A    between atoms: C6_7  and  C17_21
REMARK    7  A    between atoms: C7_8  and  C8_9
REMARK    8  A    between atoms: N2_11  and  C9_12
REMARK    9  A    between atoms: C9_12  and  C10_13
REMARK   10  A    between atoms: C13_16  and  C16_19
REMARK   11  A    between atoms: C29_34  and  C30_35
REMARK   12  A    between atoms: C30_35  and  C31_36
REMARK   13  A    between atoms: C31_36  and  C32_38
REMARK   14  A    between atoms: C31_36  and  O5_46
REMARK   15  A    between atoms: C32_38  and  C33_39
REMARK   16  A    between atoms: C33_39  and  C34_41
REMARK   17  A    between atoms: C33_39  and  O4_45
REMARK   18  A    between atoms: C34_41  and  C35_42
REMARK                            x       y       z     vdW  Elec       q    Type
REMARK                         _______ _______ _______ _____ _____    ______ ____
ROOT
ATOM      1  N1  <0> A   1     -28.469  -4.440  50.660  0.00  0.00    -0.401 N 
ATOM      2  C4  <0> A   1     -27.841  -5.637  50.565  0.00  0.00    +0.074 C 
ATOM      3  C5  <0> A   1     -26.514  -5.464  50.817  0.00  0.00    -0.121 C 
ATOM      4  C6  <0> A   1     -26.306  -4.086  51.082  0.00  0.00    -0.060 C 
ATOM      5  C7  <0> A   1     -27.546  -3.468  50.971  0.00  0.00    -0.031 C 
ENDROOT
BRANCH   3   6
ATOM      6  C23 <0> A   1     -25.475  -6.524  50.815  0.00  0.00    -0.009 A 
ATOM      7  C24 <0> A   1     -24.966  -7.005  52.019  0.00  0.00    +0.050 A 
ATOM      8  C25 <0> A   1     -24.000  -7.991  52.012  0.00  0.00    -0.016 A 
ATOM      9  C26 <0> A   1     -23.537  -8.502  50.811  0.00  0.00    +0.095 A 
ATOM     10  C27 <0> A   1     -24.040  -8.026  49.611  0.00  0.00    -0.018 A 
ATOM     11  C28 <0> A   1     -25.011  -7.044  49.608  0.00  0.00    +0.056 A 
ATOM     12  F1  <0> A   1     -22.591  -9.466  50.809  0.00  0.00    -0.142 F 
ENDBRANCH   3   6
BRANCH   4  13
ATOM     13  C17 <0> A   1     -25.017  -3.433  51.408  0.00  0.00    -0.009 A 
ATOM     14  C18 <0> A   1     -24.882  -2.698  52.585  0.00  0.00    +0.025 A 
ATOM     15  C19 <0> A   1     -23.679  -2.092  52.883  0.00  0.00    +0.003 A 
ATOM     16  C20 <0> A   1     -22.608  -2.211  52.016  0.00  0.00    -0.003 A 
ATOM     17  C21 <0> A   1     -22.736  -2.938  50.846  0.00  0.00    -0.000 A 
ATOM     18  C22 <0> A   1     -23.932  -3.555  50.540  0.00  0.00    +0.010 A 
ENDBRANCH   4  13
BRANCH   5  19
ATOM     19  C8  <0> A   1     -27.819  -2.041  51.155  0.00  0.00    +0.605 C 
ATOM     20  O1  <0> A   1     -28.404  -1.658  52.152  0.00  0.00    -0.518 OA
ATOM     21  N2  <0> A   1     -27.424  -1.153  50.222  0.00  0.00    -0.718 N 
ATOM     22  H10 <0> A   1     -27.017  -1.464  49.399  0.00  0.00    +0.405 HD
BRANCH  21  23
ATOM     23  C9  <0> A   1     -27.610   0.282  50.452  0.00  0.00    +0.323 C 
BRANCH  23  24
ATOM     24  C10 <0> A   1     -26.308   0.889  50.908  0.00  0.00    -0.081 A 
ATOM     25  C11 <0> A   1     -26.319   1.969  51.772  0.00  0.00    +0.039 A 
ATOM     26  C12 <0> A   1     -25.131   2.531  52.194  0.00  0.00    +0.066 A 
ATOM     27  C13 <0> A   1     -23.918   2.006  51.748  0.00  0.00    -0.018 A 
ATOM     28  C14 <0> A   1     -23.914   0.915  50.876  0.00  0.00    +0.065 A 
ATOM     29  C15 <0> A   1     -25.109   0.360  50.466  0.00  0.00    +0.037 A 
BRANCH  27  30
ATOM     30  C16 <0> A   1     -22.680   2.584  52.181  0.00  0.00    +0.248 C 
ATOM     31  N3  <0> A   1     -21.700   3.041  52.526  0.00  0.00    -0.408 NA
ENDBRANCH  27  30
ENDBRANCH  23  24
ENDBRANCH  21  23
ENDBRANCH   5  19
BRANCH   1  33
ATOM     32  C1  <0> A   1     -30.376  -5.013  49.241  0.00  0.00    +0.046 C 
ATOM     33  C2  <0> A   1     -29.902  -4.213  50.456  0.00  0.00    +0.229 C 
ATOM     34  C3  <0> A   1     -30.673  -4.665  51.697  0.00  0.00    +0.043 C 
ENDBRANCH   1  33
BRANCH   2  35
ATOM     35  C29 <0> A   1     -28.507  -6.948  50.235  0.00  0.00    +0.116 C 
BRANCH  35  36
ATOM     36  C30 <0> A   1     -28.659  -7.777  51.511  0.00  0.00    -0.007 C 
BRANCH  36  37
ATOM     37  C31 <0> A   1     -29.222  -9.156  51.159  0.00  0.00    +0.212 C 
BRANCH  37  38
ATOM     38  O5  <0> A   1     -28.145 -10.073  50.961  0.00  0.00    -0.541 OA
ATOM     39  H35 <0> A   1     -27.957 -10.631  51.729  0.00  0.00    +0.362 HD
ENDBRANCH  37  38
BRANCH  37  40
ATOM     40  C32 <0> A   1     -30.110  -9.651  52.303  0.00  0.00    -0.051 C 
BRANCH  40  41
ATOM     41  C33 <0> A   1     -30.931 -10.852  51.828  0.00  0.00    +0.230 C 
BRANCH  41  42
ATOM     42  O4  <0> A   1     -30.461 -11.273  50.545  0.00  0.00    -0.528 OA
ATOM     43  H34 <0> A   1     -29.498 -11.317  50.474  0.00  0.00    +0.349 HD
ENDBRANCH  41  42
BRANCH  41  44
ATOM     44  C34 <0> A   1     -30.781 -12.000  52.828  0.00  0.00    -0.103 C 
BRANCH  44  45
ATOM     45  C35 <0> A   1     -29.867 -13.051  52.253  0.00  0.00    +0.490 C 
ATOM     46  O2  <0> A   1     -30.324 -14.115  51.871  0.00  0.00    -0.681 OA
ATOM     47  O3  <0> A   1     -28.669 -12.838  52.171  0.00  0.00    -0.713 OA
ENDBRANCH  44  45
ENDBRANCH  41  44
ENDBRANCH  40  41
ENDBRANCH  37  40
ENDBRANCH  36  37
ENDBRANCH  35  36
ENDBRANCH   2  35
TORSDOF 16
ENDMDL
MODEL 9
REMARK VINA RESULT:      -7.4     15.035     19.045
REMARK  Name = CHEMBL400874
REMARK  18 active torsions:
REMARK  status: ('A' for Active; 'I' for Inactive)
REMARK    1  A    between atoms: C1_1  and  C2_2
REMARK    2  A    between atoms: C2_2  and  C3_3
REMARK    3  A    between atoms: C2_2  and  N1_4
REMARK    4  A    between atoms: C4_5  and  C29_34
REMARK    5  A    between atoms: C5_6  and  C23_27
REMARK    6  A    between atoms: C6_7  and  C17_21
REMARK    7  A    between atoms: C7_8  and  C8_9
REMARK    8  A    between atoms: N2_11  and  C9_12
REMARK    9  A    between atoms: C9_12  and  C10_13
REMARK   10  A    between atoms: C13_16  and  C16_19
REMARK   11  A    between atoms: C29_34  and  C30_35
REMARK   12  A    between atoms: C30_35  and  C31_36
REMARK   13  A    between atoms: C31_36  and  C32_38
REMARK   14  A    between atoms: C31_36  and  O5_46
REMARK   15  A    between atoms: C32_38  and  C33_39
REMARK   16  A    between atoms: C33_39  and  C34_41
REMARK   17  A    between atoms: C33_39  and  O4_45
REMARK   18  A    between atoms: C34_41  and  C35_42
REMARK                            x       y       z     vdW  Elec       q    Type
REMARK                         _______ _______ _______ _____ _____    ______ ____
ROOT
ATOM      1  N1  <0> A   1     -26.224  -2.765  51.455  0.00  0.00    -0.401 N 
ATOM      2  C4  <0> A   1     -25.286  -3.683  51.121  0.00  0.00    +0.074 C 
ATOM      3  C5  <0> A   1     -25.824  -4.930  51.236  0.00  0.00    -0.121 C 
ATOM      4  C6  <0> A   1     -27.168  -4.777  51.664  0.00  0.00    -0.060 C 
ATOM      5  C7  <0> A   1     -27.389  -3.411  51.799  0.00  0.00    -0.031 C 
ENDROOT
BRANCH   3   6
ATOM      6  C23 <0> A   1     -25.132  -6.213  50.962  0.00  0.00    -0.009 A 
ATOM      7  C24 <0> A   1     -25.066  -6.708  49.661  0.00  0.00    +0.050 A 
ATOM      8  C25 <0> A   1     -24.420  -7.902  49.411  0.00  0.00    -0.016 A 
ATOM      9  C26 <0> A   1     -23.838  -8.608  50.451  0.00  0.00    +0.095 A 
ATOM     10  C27 <0> A   1     -23.902  -8.120  51.746  0.00  0.00    -0.018 A 
ATOM     11  C28 <0> A   1     -24.540  -6.923  52.004  0.00  0.00    +0.056 A 
ATOM     12  F1  <0> A   1     -23.208  -9.777  50.201  0.00  0.00    -0.142 F 
ENDBRANCH   3   6
BRANCH   4  13
ATOM     13  C17 <0> A   1     -28.143  -5.861  51.922  0.00  0.00    -0.009 A 
ATOM     14  C18 <0> A   1     -28.392  -6.284  53.228  0.00  0.00    +0.025 A 
ATOM     15  C19 <0> A   1     -29.301  -7.294  53.461  0.00  0.00    +0.003 A 
ATOM     16  C20 <0> A   1     -29.964  -7.891  52.403  0.00  0.00    -0.003 A 
ATOM     17  C21 <0> A   1     -29.721  -7.476  51.106  0.00  0.00    -0.000 A 
ATOM     18  C22 <0> A   1     -28.819  -6.462  50.860  0.00  0.00    +0.010 A 
ENDBRANCH   4  13
BRANCH   5  19
ATOM     19  C8  <0> A   1     -28.638  -2.777  52.227  0.00  0.00    +0.605 C 
ATOM     20  O1  <0> A   1     -29.494  -2.505  51.405  0.00  0.00    -0.518 OA
ATOM     21  N2  <0> A   1     -28.838  -2.492  53.529  0.00  0.00    -0.718 N 
ATOM     22  H10 <0> A   1     -28.131  -2.648  54.173  0.00  0.00    +0.405 HD
BRANCH  21  23
ATOM     23  C9  <0> A   1     -30.125  -1.949  53.970  0.00  0.00    +0.323 C 
BRANCH  23  24
ATOM     24  C10 <0> A   1     -30.747  -2.885  54.974  0.00  0.00    -0.081 A 
ATOM     25  C11 <0> A   1     -30.950  -2.462  56.275  0.00  0.00    +0.039 A 
ATOM     26  C12 <0> A   1     -31.519  -3.313  57.200  0.00  0.00    +0.066 A 
ATOM     27  C13 <0> A   1     -31.891  -4.603  56.819  0.00  0.00    -0.018 A 
ATOM     28  C14 <0> A   1     -31.685  -5.023  55.504  0.00  0.00    +0.065 A 
ATOM     29  C15 <0> A   1     -31.119  -4.161  54.588  0.00  0.00    +0.037 A 
BRANCH  27  30
ATOM     30  C16 <0> A   1     -32.483  -5.493  57.774  0.00  0.00    +0.248 C 
ATOM     31  N3  <0> A   1     -32.953  -6.197  58.530  0.00  0.00    -0.408 NA
ENDBRANCH  27  30
ENDBRANCH  23  24
ENDBRANCH  21  23
ENDBRANCH   5  19
BRANCH   1  33
ATOM     32  C1  <0> A   1     -25.284  -0.901  52.730  0.00  0.00    +0.046 C 
ATOM     33  C2  <0> A   1     -26.028  -1.313  51.458  0.00  0.00    +0.229 C 
ATOM     34  C3  <0> A   1     -25.208  -0.905  50.233  0.00  0.00    +0.043 C 
ENDBRANCH   1  33
BRANCH   2  35
ATOM     35  C29 <0> A   1     -23.876  -3.375  50.691  0.00  0.00    +0.116 C 
BRANCH  35  36
ATOM     36  C30 <0> A   1     -22.933  -3.526  51.886  0.00  0.00    -0.007 C 
BRANCH  36  37
ATOM     37  C31 <0> A   1     -21.776  -2.535  51.752  0.00  0.00    +0.212 C 
BRANCH  37  38
ATOM     38  O5  <0> A   1     -21.929  -1.491  52.715  0.00  0.00    -0.541 OA
ATOM     39  H35 <0> A   1     -22.795  -1.061  52.695  0.00  0.00    +0.362 HD
ENDBRANCH  37  38
BRANCH  37  40
ATOM     40  C32 <0> A   1     -20.451  -3.262  51.995  0.00  0.00    -0.051 C 
BRANCH  40  41
ATOM     41  C33 <0> A   1     -20.194  -3.364  53.501  0.00  0.00    +0.230 C 
BRANCH  41  42
ATOM     42  O4  <0> A   1     -20.698  -4.609  53.988  0.00  0.00    -0.528 OA
ATOM     43  H34 <0> A   1     -20.695  -4.684  54.952  0.00  0.00    +0.349 HD
ENDBRANCH  41  42
BRANCH  41  44
ATOM     44  C34 <0> A   1     -18.689  -3.283  53.768  0.00  0.00    -0.103 C 
BRANCH  44  45
ATOM     45  C35 <0> A   1     -18.178  -4.641  54.173  0.00  0.00    +0.490 C 
ATOM     46  O2  <0> A   1     -17.738  -4.816  55.298  0.00  0.00    -0.681 OA
ATOM     47  O3  <0> A   1     -18.203  -5.564  53.378  0.00  0.00    -0.713 OA
ENDBRANCH  44  45
ENDBRANCH  41  44
ENDBRANCH  40  41
ENDBRANCH  37  40
ENDBRANCH  36  37
ENDBRANCH  35  36
ENDBRANCH   2  35
TORSDOF 16
ENDMDL
MODEL 10
REMARK VINA RESULT:      -7.3     15.102     19.247
REMARK  Name = CHEMBL400874
REMARK  18 active torsions:
REMARK  status: ('A' for Active; 'I' for Inactive)
REMARK    1  A    between atoms: C1_1  and  C2_2
REMARK    2  A    between atoms: C2_2  and  C3_3
REMARK    3  A    between atoms: C2_2  and  N1_4
REMARK    4  A    between atoms: C4_5  and  C29_34
REMARK    5  A    between atoms: C5_6  and  C23_27
REMARK    6  A    between atoms: C6_7  and  C17_21
REMARK    7  A    between atoms: C7_8  and  C8_9
REMARK    8  A    between atoms: N2_11  and  C9_12
REMARK    9  A    between atoms: C9_12  and  C10_13
REMARK   10  A    between atoms: C13_16  and  C16_19
REMARK   11  A    between atoms: C29_34  and  C30_35
REMARK   12  A    between atoms: C30_35  and  C31_36
REMARK   13  A    between atoms: C31_36  and  C32_38
REMARK   14  A    between atoms: C31_36  and  O5_46
REMARK   15  A    between atoms: C32_38  and  C33_39
REMARK   16  A    between atoms: C33_39  and  C34_41
REMARK   17  A    between atoms: C33_39  and  O4_45
REMARK   18  A    between atoms: C34_41  and  C35_42
REMARK                            x       y       z     vdW  Elec       q    Type
REMARK                         _______ _______ _______ _____ _____    ______ ____
ROOT
ATOM      1  N1  <0> A   1     -25.156  -3.241  51.189  0.00  0.00    -0.401 N 
ATOM      2  C4  <0> A   1     -25.589  -4.524  51.153  0.00  0.00    +0.074 C 
ATOM      3  C5  <0> A   1     -26.876  -4.572  51.597  0.00  0.00    -0.121 C 
ATOM      4  C6  <0> A   1     -27.263  -3.247  51.926  0.00  0.00    -0.060 C 
ATOM      5  C7  <0> A   1     -26.164  -2.436  51.667  0.00  0.00    -0.031 C 
ENDROOT
BRANCH   3   6
ATOM      6  C23 <0> A   1     -27.720  -5.787  51.713  0.00  0.00    -0.009 A 
ATOM      7  C24 <0> A   1     -28.056  -6.287  52.969  0.00  0.00    +0.050 A 
ATOM      8  C25 <0> A   1     -28.841  -7.417  53.073  0.00  0.00    -0.016 A 
ATOM      9  C26 <0> A   1     -29.295  -8.054  51.929  0.00  0.00    +0.095 A 
ATOM     10  C27 <0> A   1     -28.964  -7.560  50.678  0.00  0.00    -0.018 A 
ATOM     11  C28 <0> A   1     -28.185  -6.427  50.565  0.00  0.00    +0.056 A 
ATOM     12  F1  <0> A   1     -30.063  -9.161  52.035  0.00  0.00    -0.142 F 
ENDBRANCH   3   6
BRANCH   4  13
ATOM     13  C17 <0> A   1     -28.579  -2.814  52.450  0.00  0.00    -0.009 A 
ATOM     14  C18 <0> A   1     -29.751  -3.178  51.787  0.00  0.00    +0.025 A 
ATOM     15  C19 <0> A   1     -30.973  -2.772  52.280  0.00  0.00    +0.003 A 
ATOM     16  C20 <0> A   1     -31.038  -2.003  53.428  0.00  0.00    -0.003 A 
ATOM     17  C21 <0> A   1     -29.880  -1.638  54.090  0.00  0.00    -0.000 A 
ATOM     18  C22 <0> A   1     -28.651  -2.044  53.611  0.00  0.00    +0.010 A 
ENDBRANCH   4  13
BRANCH   5  19
ATOM     19  C8  <0> A   1     -26.095  -0.987  51.864  0.00  0.00    +0.605 C 
ATOM     20  O1  <0> A   1     -25.520  -0.532  52.836  0.00  0.00    -0.518 OA
ATOM     21  N2  <0> A   1     -26.668  -0.156  50.970  0.00  0.00    -0.718 N 
ATOM     22  H10 <0> A   1     -27.182  -0.519  50.232  0.00  0.00    +0.405 HD
BRANCH  21  23
ATOM     23  C9  <0> A   1     -26.515   1.293  51.114  0.00  0.00    +0.323 C 
BRANCH  23  24
ATOM     24  C10 <0> A   1     -27.833   1.900  51.518  0.00  0.00    -0.081 A 
ATOM     25  C11 <0> A   1     -28.995   1.156  51.410  0.00  0.00    +0.039 A 
ATOM     26  C12 <0> A   1     -30.206   1.705  51.778  0.00  0.00    +0.066 A 
ATOM     27  C13 <0> A   1     -30.258   3.013  52.261  0.00  0.00    -0.018 A 
ATOM     28  C14 <0> A   1     -29.082   3.758  52.368  0.00  0.00    +0.065 A 
ATOM     29  C15 <0> A   1     -27.876   3.196  52.001  0.00  0.00    +0.037 A 
BRANCH  27  30
ATOM     30  C16 <0> A   1     -31.511   3.590  52.645  0.00  0.00    +0.248 C 
ATOM     31  N3  <0> A   1     -32.505   4.047  52.950  0.00  0.00    -0.408 NA
ENDBRANCH  27  30
ENDBRANCH  23  24
ENDBRANCH  21  23
ENDBRANCH   5  19
BRANCH   1  33
ATOM     32  C1  <0> A   1     -23.946  -1.481  49.997  0.00  0.00    +0.046 C 
ATOM     33  C2  <0> A   1     -23.822  -2.783  50.791  0.00  0.00    +0.229 C 
ATOM     34  C3  <0> A   1     -22.971  -2.541  52.039  0.00  0.00    +0.043 C 
ENDBRANCH   1  33
BRANCH   2  35
ATOM     35  C29 <0> A   1     -24.777  -5.708  50.694  0.00  0.00    +0.116 C 
BRANCH  35  36
ATOM     36  C30 <0> A   1     -24.313  -6.510  51.911  0.00  0.00    -0.007 C 
BRANCH  36  37
ATOM     37  C31 <0> A   1     -23.796  -7.876  51.454  0.00  0.00    +0.212 C 
BRANCH  37  38
ATOM     38  O5  <0> A   1     -23.183  -8.546  52.557  0.00  0.00    -0.541 OA
ATOM     39  H35 <0> A   1     -23.781  -8.712  53.299  0.00  0.00    +0.362 HD
ENDBRANCH  37  38
BRANCH  37  40
ATOM     40  C32 <0> A   1     -24.964  -8.715  50.932  0.00  0.00    -0.051 C 
BRANCH  40  41
ATOM     41  C33 <0> A   1     -24.434  -9.798  49.990  0.00  0.00    +0.230 C 
BRANCH  41  42
ATOM     42  O4  <0> A   1     -23.036  -9.595  49.769  0.00  0.00    -0.528 OA
ATOM     43  H34 <0> A   1     -22.524 -10.413  49.719  0.00  0.00    +0.349 HD
ENDBRANCH  41  42
BRANCH  41  44
ATOM     44  C34 <0> A   1     -24.656 -11.175  50.619  0.00  0.00    -0.103 C 
BRANCH  44  45
ATOM     45  C35 <0> A   1     -24.449 -12.243  49.577  0.00  0.00    +0.490 C 
ATOM     46  O2  <0> A   1     -25.097 -13.275  49.623  0.00  0.00    -0.681 OA
ATOM     47  O3  <0> A   1     -23.632 -12.076  48.687  0.00  0.00    -0.713 OA
ENDBRANCH  44  45
ENDBRANCH  41  44
ENDBRANCH  40  41
ENDBRANCH  37  40
ENDBRANCH  36  37
ENDBRANCH  35  36
ENDBRANCH   2  35
TORSDOF 16
ENDMDL
