REMARK VINA RESULT:      -8.5      1.200      1.773
REMARK  Name = CHEMBL154699
REMARK  6 active torsions:
REMARK  status: ('A' for Active; 'I' for Inactive)
REMARK    1  A    between atoms: C4_4  and  C7_7
REMARK    2  A    between atoms: C9_9  and  C25_30
REMARK    3  A    between atoms: C10_10  and  C18_19
REMARK    4  A    between atoms: C11_11  and  C12_13
REMARK    5  A    between atoms: C19_20  and  C20_21
REMARK    6  A    between atoms: C22_23  and  O3_29
REMARK                            x       y       z     vdW  Elec       q    Type
REMARK                         _______ _______ _______ _____ _____    ______ ____
ROOT
ATOM      1  C7  <0> A   1     -28.470  -1.832  51.931  0.00  0.00    +0.178 A 
ATOM      2  C8  <0> A   1     -29.258  -2.972  52.057  0.00  0.00    -0.015 A 
ATOM      3  C9  <0> A   1     -28.637  -4.212  52.198  0.00  0.00    +0.012 A 
ATOM      4  C10 <0> A   1     -27.226  -4.253  52.205  0.00  0.00    -0.099 A 
ATOM      5  C11 <0> A   1     -26.516  -3.060  52.072  0.00  0.00    +0.164 A 
ATOM      6  N1  <0> A   1     -27.144  -1.912  51.937  0.00  0.00    -0.467 NA
ENDROOT
BRANCH   3   7
ATOM      7  C25 <0> A   1     -29.435  -5.452  52.336  0.00  0.00    -0.066 A 
ATOM      8  C26 <0> A   1     -29.634  -6.021  53.593  0.00  0.00    +0.075 A 
ATOM      9  C27 <0> A   1     -30.378  -7.176  53.715  0.00  0.00    -0.013 A 
ATOM     10  C28 <0> A   1     -30.927  -7.771  52.591  0.00  0.00    +0.109 A 
ATOM     11  C29 <0> A   1     -30.732  -7.211  51.339  0.00  0.00    -0.013 A 
ATOM     12  C30 <0> A   1     -29.994  -6.052  51.207  0.00  0.00    +0.061 A 
ATOM     13  F1  <0> A   1     -31.655  -8.903  52.716  0.00  0.00    -0.136 F 
ENDBRANCH   3   7
BRANCH   1  17
ATOM     14  C1  <0> A   1     -30.336   1.964  51.497  0.00  0.00    +0.017 A 
ATOM     15  C2  <0> A   1     -29.002   1.809  51.162  0.00  0.00    +0.000 A 
ATOM     16  C3  <0> A   1     -28.391   0.580  51.301  0.00  0.00    +0.057 A 
ATOM     17  C4  <0> A   1     -29.121  -0.508  51.780  0.00  0.00    -0.052 A 
ATOM     18  C5  <0> A   1     -30.463  -0.346  52.116  0.00  0.00    +0.024 A 
ATOM     19  C6  <0> A   1     -31.064   0.889  51.973  0.00  0.00    +0.003 A 
ENDBRANCH   1  17
BRANCH   5  20
ATOM     20  C12 <0> A   1     -25.009  -3.087  52.079  0.00  0.00    +0.054 C 
ATOM     21  C13 <0> A   1     -24.482  -1.963  52.974  0.00  0.00    +0.026 C 
ATOM     22  C14 <0> A   1     -22.952  -1.991  52.981  0.00  0.00    +0.005 C 
ATOM     23  C15 <0> A   1     -22.433  -1.791  51.555  0.00  0.00    +0.003 C 
ATOM     24  C16 <0> A   1     -22.959  -2.914  50.659  0.00  0.00    +0.006 C 
ATOM     25  C17 <0> A   1     -24.490  -2.887  50.653  0.00  0.00    +0.025 C 
ENDBRANCH   5  20
BRANCH   4  26
ATOM     26  C18 <0> A   1     -26.514  -5.537  52.351  0.00  0.00    +0.049 C 
ATOM     27  C19 <0> A   1     -26.317  -6.310  51.291  0.00  0.00    -0.012 C 
BRANCH  27  28
ATOM     28  C20 <0> A   1     -25.590  -7.623  51.440  0.00  0.00    +0.242 C 
ATOM     29  C21 <0> A   1     -24.117  -7.437  51.068  0.00  0.00    +0.050 C 
ATOM     30  C22 <0> A   1     -23.392  -8.781  51.182  0.00  0.00    +0.186 C 
ATOM     31  C23 <0> A   1     -24.056  -9.785  50.233  0.00  0.00    +0.024 C 
ATOM     32  C24 <0> A   1     -25.544  -9.786  50.508  0.00  0.00    +0.498 C 
ATOM     33  O1  <0> A   1     -26.147 -10.820  50.666  0.00  0.00    -0.450 OA
ATOM     34  O2  <0> A   1     -26.179  -8.597  50.571  0.00  0.00    -0.369 OA
BRANCH  30  35
ATOM     35  O3  <0> A   1     -23.477  -9.259  52.526  0.00  0.00    -0.563 OA
ATOM     36  H26 <0> A   1     -23.755  -8.589  53.165  0.00  0.00    +0.387 HD
ENDBRANCH  30  35
ENDBRANCH  27  28
ENDBRANCH   4  26
TORSDOF 6
