REMARK VINA RESULT:      -7.9      4.162      8.805
REMARK  Name = CHEMBL154698
REMARK  8 active torsions:
REMARK  status: ('A' for Active; 'I' for Inactive)
REMARK    1  A    between atoms: C1_1  and  C2_2
REMARK    2  A    between atoms: C2_2  and  C3_3
REMARK    3  A    between atoms: C2_2  and  C4_4
REMARK    4  A    between atoms: C6_6  and  C22_28
REMARK    5  A    between atoms: C7_8  and  C16_21
REMARK    6  A    between atoms: C8_9  and  C9_10
REMARK    7  A    between atoms: C10_11  and  C11_12
REMARK    8  A    between atoms: C13_14  and  O3_20
REMARK                            x       y       z     vdW  Elec       q    Type
REMARK                         _______ _______ _______ _____ _____    ______ ____
ROOT
ATOM      1  C4  <0> A   1     -27.395  -4.944  52.197  0.00  0.00    -0.012 A 
ATOM      2  C5  <0> A   1     -26.681  -6.067  51.824  0.00  0.00    -0.017 A 
ATOM      3  C6  <0> A   1     -25.380  -5.923  51.341  0.00  0.00    +0.179 A 
ATOM      4  N1  <0> A   1     -24.821  -4.725  51.233  0.00  0.00    -0.469 NA
ATOM      5  C7  <0> A   1     -25.467  -3.623  51.578  0.00  0.00    +0.188 A 
ATOM      6  C8  <0> A   1     -26.784  -3.692  52.069  0.00  0.00    -0.100 A 
ENDROOT
BRANCH   5   7
ATOM      7  C16 <0> A   1     -24.802  -2.307  51.441  0.00  0.00    -0.062 A 
ATOM      8  C17 <0> A   1     -24.929  -1.578  50.258  0.00  0.00    +0.080 A 
ATOM      9  C18 <0> A   1     -24.308  -0.352  50.135  0.00  0.00    -0.020 A 
ATOM     10  C19 <0> A   1     -23.558   0.155  51.184  0.00  0.00    +0.114 A 
ATOM     11  C20 <0> A   1     -23.429  -0.565  52.361  0.00  0.00    -0.021 A 
ATOM     12  C21 <0> A   1     -24.050  -1.789  52.496  0.00  0.00    +0.088 A 
ATOM     13  F1  <0> A   1     -22.951   1.356  51.059  0.00  0.00    -0.137 F 
ENDBRANCH   5   7
BRANCH   3  14
ATOM     14  C22 <0> A   1     -24.612  -7.126  50.941  0.00  0.00    -0.052 A 
ATOM     15  C23 <0> A   1     -24.427  -7.420  49.591  0.00  0.00    +0.025 A 
ATOM     16  C24 <0> A   1     -23.711  -8.542  49.224  0.00  0.00    +0.003 A 
ATOM     17  C25 <0> A   1     -23.179  -9.374  50.192  0.00  0.00    +0.017 A 
ATOM     18  C26 <0> A   1     -23.360  -9.086  51.534  0.00  0.00    +0.001 A 
ATOM     19  C27 <0> A   1     -24.068  -7.965  51.912  0.00  0.00    +0.056 A 
ENDBRANCH   3  14
BRANCH   1  21
ATOM     20  C1  <0> A   1     -29.754  -5.373  51.565  0.00  0.00    +0.034 C 
ATOM     21  C2  <0> A   1     -28.802  -5.065  52.723  0.00  0.00    +0.028 C 
ATOM     22  C3  <0> A   1     -28.866  -6.196  53.752  0.00  0.00    +0.035 C 
ENDBRANCH   1  21
BRANCH   6  23
ATOM     23  C9  <0> A   1     -27.508  -2.463  52.448  0.00  0.00    +0.046 C 
ATOM     24  C10 <0> A   1     -28.281  -1.847  51.562  0.00  0.00    -0.008 C 
BRANCH  24  25
ATOM     25  C11 <0> A   1     -29.020  -0.593  51.950  0.00  0.00    +0.243 C 
ATOM     26  C12 <0> A   1     -28.371   0.613  51.267  0.00  0.00    +0.051 C 
ATOM     27  C13 <0> A   1     -29.099   1.892  51.695  0.00  0.00    +0.186 C 
ATOM     28  C14 <0> A   1     -29.002   2.029  53.221  0.00  0.00    +0.024 C 
ATOM     29  C15 <0> A   1     -29.471   0.733  53.844  0.00  0.00    +0.498 C 
ATOM     30  O1  <0> A   1     -30.279   0.733  54.741  0.00  0.00    -0.449 OA
ATOM     31  O2  <0> A   1     -28.958  -0.421  53.370  0.00  0.00    -0.370 OA
BRANCH  27  32
ATOM     32  O3  <0> A   1     -30.470   1.816  51.305  0.00  0.00    -0.563 OA
ATOM     33  H17 <0> A   1     -30.648   2.165  50.421  0.00  0.00    +0.387 HD
ENDBRANCH  27  32
ENDBRANCH  24  25
ENDBRANCH   6  23
TORSDOF 6
