REMARK VINA RESULT:      -7.8      3.136      9.262
REMARK  Name = CHEMBL400874
REMARK  18 active torsions:
REMARK  status: ('A' for Active; 'I' for Inactive)
REMARK    1  A    between atoms: C1_1  and  C2_2
REMARK    2  A    between atoms: C2_2  and  C3_3
REMARK    3  A    between atoms: C2_2  and  N1_4
REMARK    4  A    between atoms: C4_5  and  C29_34
REMARK    5  A    between atoms: C5_6  and  C23_27
REMARK    6  A    between atoms: C6_7  and  C17_21
REMARK    7  A    between atoms: C7_8  and  C8_9
REMARK    8  A    between atoms: N2_11  and  C9_12
REMARK    9  A    between atoms: C9_12  and  C10_13
REMARK   10  A    between atoms: C13_16  and  C16_19
REMARK   11  A    between atoms: C29_34  and  C30_35
REMARK   12  A    between atoms: C30_35  and  C31_36
REMARK   13  A    between atoms: C31_36  and  C32_38
REMARK   14  A    between atoms: C31_36  and  O5_46
REMARK   15  A    between atoms: C32_38  and  C33_39
REMARK   16  A    between atoms: C33_39  and  C34_41
REMARK   17  A    between atoms: C33_39  and  O4_45
REMARK   18  A    between atoms: C34_41  and  C35_42
REMARK                            x       y       z     vdW  Elec       q    Type
REMARK                         _______ _______ _______ _____ _____    ______ ____
ROOT
ATOM      1  N1  <0> A   1     -15.220   6.511  45.748  0.00  0.00    -0.401 N 
ATOM      2  C4  <0> A   1     -15.953   6.853  46.835  0.00  0.00    +0.074 C 
ATOM      3  C5  <0> A   1     -15.375   7.928  47.440  0.00  0.00    -0.121 C 
ATOM      4  C6  <0> A   1     -14.221   8.271  46.689  0.00  0.00    -0.060 C 
ATOM      5  C7  <0> A   1     -14.146   7.364  45.639  0.00  0.00    -0.031 C 
ENDROOT
BRANCH   3   6
ATOM      6  C23 <0> A   1     -15.863   8.615  48.662  0.00  0.00    -0.009 A 
ATOM      7  C24 <0> A   1     -15.571   8.093  49.920  0.00  0.00    +0.050 A 
ATOM      8  C25 <0> A   1     -16.027   8.736  51.054  0.00  0.00    -0.016 A 
ATOM      9  C26 <0> A   1     -16.775   9.897  50.940  0.00  0.00    +0.095 A 
ATOM     10  C27 <0> A   1     -17.067  10.419  49.691  0.00  0.00    -0.018 A 
ATOM     11  C28 <0> A   1     -16.609   9.787  48.552  0.00  0.00    +0.056 A 
ATOM     12  F1  <0> A   1     -17.220  10.522  52.053  0.00  0.00    -0.142 F 
ENDBRANCH   3   6
BRANCH   4  13
ATOM     13  C17 <0> A   1     -13.279   9.378  46.973  0.00  0.00    -0.009 A 
ATOM     14  C18 <0> A   1     -13.366  10.573  46.259  0.00  0.00    +0.025 A 
ATOM     15  C19 <0> A   1     -12.485  11.599  46.527  0.00  0.00    +0.003 A 
ATOM     16  C20 <0> A   1     -11.515  11.445  47.502  0.00  0.00    -0.003 A 
ATOM     17  C21 <0> A   1     -11.423  10.263  48.213  0.00  0.00    -0.000 A 
ATOM     18  C22 <0> A   1     -12.302   9.230  47.959  0.00  0.00    +0.010 A 
ENDBRANCH   4  13
BRANCH   5  19
ATOM     19  C8  <0> A   1     -13.111   7.326  44.603  0.00  0.00    +0.605 C 
ATOM     20  O1  <0> A   1     -11.937   7.423  44.912  0.00  0.00    -0.518 OA
ATOM     21  N2  <0> A   1     -13.458   7.184  43.309  0.00  0.00    -0.718 N 
ATOM     22  H10 <0> A   1     -14.394   7.173  43.057  0.00  0.00    +0.405 HD
BRANCH  21  23
ATOM     23  C9  <0> A   1     -12.421   7.047  42.284  0.00  0.00    +0.323 C 
BRANCH  23  24
ATOM     24  C10 <0> A   1     -12.464   8.240  41.364  0.00  0.00    -0.081 A 
ATOM     25  C11 <0> A   1     -12.593   8.052  39.999  0.00  0.00    +0.039 A 
ATOM     26  C12 <0> A   1     -12.632   9.139  39.151  0.00  0.00    +0.066 A 
ATOM     27  C13 <0> A   1     -12.542  10.431  39.672  0.00  0.00    -0.018 A 
ATOM     28  C14 <0> A   1     -12.412  10.614  41.050  0.00  0.00    +0.065 A 
ATOM     29  C15 <0> A   1     -12.379   9.518  41.888  0.00  0.00    +0.037 A 
BRANCH  27  30
ATOM     30  C16 <0> A   1     -12.583  11.565  38.797  0.00  0.00    +0.248 C 
ATOM     31  N3  <0> A   1     -12.615  12.463  38.104  0.00  0.00    -0.408 NA
ENDBRANCH  27  30
ENDBRANCH  23  24
ENDBRANCH  21  23
ENDBRANCH   5  19
BRANCH   1  33
ATOM     32  C1  <0> A   1     -15.667   4.109  45.639  0.00  0.00    +0.046 C 
ATOM     33  C2  <0> A   1     -15.518   5.403  44.836  0.00  0.00    +0.229 C 
ATOM     34  C3  <0> A   1     -16.821   5.693  44.088  0.00  0.00    +0.043 C 
ENDBRANCH   1  33
BRANCH   2  35
ATOM     35  C29 <0> A   1     -17.206   6.157  47.297  0.00  0.00    +0.116 C 
BRANCH  35  36
ATOM     36  C30 <0> A   1     -18.430   6.950  46.836  0.00  0.00    -0.007 C 
BRANCH  36  37
ATOM     37  C31 <0> A   1     -19.480   6.961  47.949  0.00  0.00    +0.212 C 
BRANCH  37  38
ATOM     38  O5  <0> A   1     -20.523   6.040  47.629  0.00  0.00    -0.541 OA
ATOM     39  H35 <0> A   1     -20.538   5.252  48.190  0.00  0.00    +0.362 HD
ENDBRANCH  37  38
BRANCH  37  40
ATOM     40  C32 <0> A   1     -18.826   6.553  49.271  0.00  0.00    -0.051 C 
BRANCH  40  41
ATOM     41  C33 <0> A   1     -19.718   6.985  50.437  0.00  0.00    +0.230 C 
BRANCH  41  42
ATOM     42  O4  <0> A   1     -20.911   7.587  49.927  0.00  0.00    -0.528 OA
ATOM     43  H34 <0> A   1     -21.275   8.279  50.495  0.00  0.00    +0.349 HD
ENDBRANCH  41  42
BRANCH  41  44
ATOM     44  C34 <0> A   1     -20.085   5.762  51.280  0.00  0.00    -0.103 C 
BRANCH  44  45
ATOM     45  C35 <0> A   1     -21.468   5.292  50.910  0.00  0.00    +0.490 C 
ATOM     46  O2  <0> A   1     -21.624   4.538  49.964  0.00  0.00    -0.681 OA
ATOM     47  O3  <0> A   1     -22.432   5.667  51.556  0.00  0.00    -0.713 OA
ENDBRANCH  44  45
ENDBRANCH  41  44
ENDBRANCH  40  41
ENDBRANCH  37  40
ENDBRANCH  36  37
ENDBRANCH  35  36
ENDBRANCH   2  35
TORSDOF 16
