REMARK VINA RESULT:      -8.2      3.484      5.893
REMARK  Name = CHEMBL398403
REMARK  17 active torsions:
REMARK  status: ('A' for Active; 'I' for Inactive)
REMARK    1  A    between atoms: C1_1  and  C2_2
REMARK    2  A    between atoms: C2_2  and  N1_3
REMARK    3  A    between atoms: C3_4  and  C23_29
REMARK    4  A    between atoms: C4_5  and  C17_22
REMARK    5  A    between atoms: C5_6  and  C16_21
REMARK    6  A    between atoms: C6_7  and  C7_8
REMARK    7  A    between atoms: N2_10  and  C8_11
REMARK    8  A    between atoms: C8_11  and  C9_12
REMARK    9  A    between atoms: C12_15  and  C15_18
REMARK   10  A    between atoms: C23_29  and  C24_30
REMARK   11  A    between atoms: C24_30  and  C25_31
REMARK   12  A    between atoms: C25_31  and  C26_33
REMARK   13  A    between atoms: C25_31  and  O7_41
REMARK   14  A    between atoms: C26_33  and  C27_34
REMARK   15  A    between atoms: C27_34  and  C28_36
REMARK   16  A    between atoms: C27_34  and  O6_40
REMARK   17  A    between atoms: C28_36  and  C29_37
REMARK                            x       y       z     vdW  Elec       q    Type
REMARK                         _______ _______ _______ _____ _____    ______ ____
ROOT
ATOM      1  N1  <0> A   1     -12.595   6.613  47.075  0.00  0.00    -0.407 N 
ATOM      2  C3  <0> A   1     -13.234   7.422  46.205  0.00  0.00    +0.073 C 
ATOM      3  C4  <0> A   1     -12.300   8.077  45.454  0.00  0.00    -0.145 C 
ATOM      4  C5  <0> A   1     -11.031   7.647  45.887  0.00  0.00    -0.090 C 
ATOM      5  C6  <0> A   1     -11.236   6.746  46.894  0.00  0.00    -0.043 C 
ATOM      6  C16 <0> A   1      -9.699   8.098  45.346  0.00  0.00    +0.108 C 
ENDROOT
BRANCH   3   7
ATOM      7  C17 <0> A   1     -12.573   9.063  44.377  0.00  0.00    -0.002 A 
ATOM      8  C18 <0> A   1     -12.488   8.678  43.040  0.00  0.00    +0.050 A 
ATOM      9  C19 <0> A   1     -12.743   9.597  42.043  0.00  0.00    -0.017 A 
ATOM     10  C20 <0> A   1     -13.081  10.901  42.369  0.00  0.00    +0.089 A 
ATOM     11  C21 <0> A   1     -13.167  11.286  43.696  0.00  0.00    -0.019 A 
ATOM     12  C22 <0> A   1     -12.920  10.372  44.700  0.00  0.00    +0.052 A 
ATOM     13  F1  <0> A   1     -13.328  11.797  41.389  0.00  0.00    -0.144 F 
ENDBRANCH   3   7
BRANCH   5  14
ATOM     14  C7  <0> A   1     -10.193   6.041  47.648  0.00  0.00    +0.594 C 
ATOM     15  O1  <0> A   1      -9.982   6.331  48.811  0.00  0.00    -0.530 OA
ATOM     16  N2  <0> A   1      -9.469   5.073  47.053  0.00  0.00    -0.713 N 
ATOM     17  H8  <0> A   1      -9.586   4.892  46.107  0.00  0.00    +0.406 HD
BRANCH  16  18
ATOM     18  C8  <0> A   1      -8.506   4.294  47.834  0.00  0.00    +0.315 C 
BRANCH  18  19
ATOM     19  C9  <0> A   1      -7.582   3.555  46.901  0.00  0.00    -0.128 A 
ATOM     20  C10 <0> A   1      -7.145   2.283  47.229  0.00  0.00    -0.003 A 
ATOM     21  C11 <0> A   1      -6.300   1.600  46.379  0.00  0.00    +0.039 A 
ATOM     22  C12 <0> A   1      -5.885   2.196  45.186  0.00  0.00    -0.122 A 
ATOM     23  C13 <0> A   1      -6.330   3.480  44.861  0.00  0.00    +0.039 A 
ATOM     24  C14 <0> A   1      -7.179   4.149  45.718  0.00  0.00    -0.001 A 
BRANCH  22  25
ATOM     25  C15 <0> A   1      -4.979   1.473  44.272  0.00  0.00    +0.518 C 
ATOM     26  O2  <0> A   1      -4.219   2.097  43.545  0.00  0.00    -0.686 OA
ATOM     27  O3  <0> A   1      -4.987   0.251  44.242  0.00  0.00    -0.686 OA
ENDBRANCH  22  25
ENDBRANCH  18  19
ENDBRANCH  16  18
ENDBRANCH   5  14
BRANCH   1  29
ATOM     28  C1  <0> A   1     -13.516   6.528  49.339  0.00  0.00    +0.038 C 
ATOM     29  C2  <0> A   1     -13.243   5.739  48.056  0.00  0.00    +0.281 C 
ENDBRANCH   1  29
BRANCH   2  30
ATOM     30  C23 <0> A   1     -14.728   7.577  46.082  0.00  0.00    +0.116 C 
BRANCH  30  31
ATOM     31  C24 <0> A   1     -15.260   6.586  45.045  0.00  0.00    -0.008 C 
BRANCH  31  32
ATOM     32  C25 <0> A   1     -16.722   6.258  45.355  0.00  0.00    +0.212 C 
BRANCH  32  33
ATOM     33  O7  <0> A   1     -17.143   5.154  44.552  0.00  0.00    -0.542 OA
ATOM     34  H31 <0> A   1     -16.554   4.959  43.810  0.00  0.00    +0.363 HD
ENDBRANCH  32  33
BRANCH  32  35
ATOM     35  C26 <0> A   1     -16.860   5.895  46.834  0.00  0.00    -0.051 C 
BRANCH  35  36
ATOM     36  C27 <0> A   1     -18.015   6.688  47.449  0.00  0.00    +0.230 C 
BRANCH  36  37
ATOM     37  O6  <0> A   1     -19.002   6.945  46.447  0.00  0.00    -0.528 OA
ATOM     38  H30 <0> A   1     -19.910   6.935  46.778  0.00  0.00    +0.349 HD
ENDBRANCH  36  37
BRANCH  36  39
ATOM     39  C28 <0> A   1     -18.643   5.879  48.586  0.00  0.00    -0.103 C 
BRANCH  39  40
ATOM     40  C29 <0> A   1     -20.120   6.170  48.654  0.00  0.00    +0.491 C 
ATOM     41  O4  <0> A   1     -20.920   5.375  48.191  0.00  0.00    -0.681 OA
ATOM     42  O5  <0> A   1     -20.515   7.200  49.173  0.00  0.00    -0.715 OA
ENDBRANCH  39  40
ENDBRANCH  36  39
ENDBRANCH  35  36
ENDBRANCH  32  35
ENDBRANCH  31  32
ENDBRANCH  30  31
ENDBRANCH   2  30
TORSDOF 15
