REMARK VINA RESULT:      -7.5     14.968     20.399
REMARK  Name = CHEMBL488297
REMARK  16 active torsions:
REMARK  status: ('A' for Active; 'I' for Inactive)
REMARK    1  A    between atoms: C1_1  and  C2_2
REMARK    2  A    between atoms: C2_2  and  C3_3
REMARK    3  A    between atoms: C2_2  and  C4_4
REMARK    4  A    between atoms: C5_5  and  C20_30
REMARK    5  A    between atoms: C6_7  and  C14_22
REMARK    6  A    between atoms: N2_8  and  C7_9
REMARK    7  A    between atoms: C7_9  and  C8_10
REMARK    8  A    between atoms: C8_10  and  C9_11
REMARK    9  A    between atoms: C9_11  and  C10_13
REMARK   10  A    between atoms: C9_11  and  O4_21
REMARK   11  A    between atoms: C10_13  and  C11_14
REMARK   12  A    between atoms: C11_14  and  C12_16
REMARK   13  A    between atoms: C11_14  and  O3_20
REMARK   14  A    between atoms: C12_16  and  C13_17
REMARK   15  A    between atoms: N3_32  and  C21_33
REMARK   16  A    between atoms: C21_33  and  C22_34
REMARK                            x       y       z     vdW  Elec       q    Type
REMARK                         _______ _______ _______ _____ _____    ______ ____
ROOT
ATOM      1  C4  <0> A   1     -26.469  -3.955  51.551  0.00  0.00    +0.096 C 
ATOM      2  C5  <0> A   1     -25.229  -3.451  51.285  0.00  0.00    -0.063 C 
ATOM      3  N1  <0> A   1     -24.429  -4.480  50.933  0.00  0.00    -0.441 NA
ATOM      4  C6  <0> A   1     -25.122  -5.592  50.972  0.00  0.00    +0.240 C 
ATOM      5  N2  <0> A   1     -26.399  -5.300  51.361  0.00  0.00    -0.433 N 
ENDROOT
BRANCH   4   6
ATOM      6  C14 <0> A   1     -24.606  -6.942  50.655  0.00  0.00    +0.011 A 
ATOM      7  C15 <0> A   1     -24.058  -7.737  51.662  0.00  0.00    +0.042 A 
ATOM      8  C16 <0> A   1     -23.578  -8.995  51.362  0.00  0.00    +0.042 A 
ATOM      9  C17 <0> A   1     -23.638  -9.470  50.062  0.00  0.00    +0.077 A 
ATOM     10  C18 <0> A   1     -24.182  -8.684  49.056  0.00  0.00    +0.073 A 
ATOM     11  C19 <0> A   1     -24.670  -7.426  49.348  0.00  0.00    +0.069 A 
ATOM     12  F1  <0> A   1     -24.238  -9.153  47.790  0.00  0.00    -0.124 F 
ATOM     13  F2  <0> A   1     -23.166 -10.703  49.774  0.00  0.00    -0.123 F 
ENDBRANCH   4   6
BRANCH   2  14
ATOM     14  C20 <0> A   1     -24.832  -2.034  51.365  0.00  0.00    +0.610 C 
ATOM     15  O5  <0> A   1     -24.227  -1.626  52.338  0.00  0.00    -0.540 OA
ATOM     16  N3  <0> A   1     -25.140  -1.190  50.360  0.00  0.00    -0.714 N 
ATOM     17  H23 <0> A   1     -25.622  -1.516  49.584  0.00  0.00    +0.410 HD
BRANCH  16  18
ATOM     18  C21 <0> A   1     -24.745   0.218  50.439  0.00  0.00    +0.318 C 
BRANCH  18  19
ATOM     19  C22 <0> A   1     -25.930   1.049  50.859  0.00  0.00    -0.109 A 
ATOM     20  C23 <0> A   1     -27.176   0.798  50.318  0.00  0.00    +0.024 A 
ATOM     21  C24 <0> A   1     -28.264   1.560  50.703  0.00  0.00    +0.001 A 
ATOM     22  C25 <0> A   1     -28.104   2.573  51.630  0.00  0.00    +0.010 A 
ATOM     23  C26 <0> A   1     -26.857   2.824  52.171  0.00  0.00    +0.002 A 
ATOM     24  C27 <0> A   1     -25.771   2.059  51.789  0.00  0.00    +0.025 A 
ENDBRANCH  18  19
ENDBRANCH  16  18
ENDBRANCH   2  14
BRANCH   1  26
ATOM     25  C1  <0> A   1     -27.258  -2.069  52.954  0.00  0.00    +0.033 C 
ATOM     26  C2  <0> A   1     -27.682  -3.171  51.981  0.00  0.00    +0.086 C 
ATOM     27  C3  <0> A   1     -28.343  -2.541  50.754  0.00  0.00    +0.035 C 
ENDBRANCH   1  26
BRANCH   5  28
ATOM     28  C7  <0> A   1     -27.494  -6.257  51.536  0.00  0.00    +0.305 C 
BRANCH  28  29
ATOM     29  C8  <0> A   1     -27.593  -6.657  53.009  0.00  0.00    -0.015 C 
BRANCH  29  30
ATOM     30  C9  <0> A   1     -29.062  -6.687  53.432  0.00  0.00    +0.219 C 
BRANCH  30  31
ATOM     31  O4  <0> A   1     -29.434  -5.409  53.953  0.00  0.00    -0.538 OA
ATOM     32  H19 <0> A   1     -28.711  -4.937  54.388  0.00  0.00    +0.367 HD
ENDBRANCH  30  31
BRANCH  30  33
ATOM     33  C10 <0> A   1     -29.936  -7.019  52.222  0.00  0.00    -0.046 C 
BRANCH  33  34
ATOM     34  C11 <0> A   1     -30.603  -8.381  52.431  0.00  0.00    +0.232 C 
BRANCH  34  35
ATOM     35  O3  <0> A   1     -29.635  -9.417  52.256  0.00  0.00    -0.528 OA
ATOM     36  H18 <0> A   1     -28.805  -9.116  51.859  0.00  0.00    +0.351 HD
ENDBRANCH  34  35
BRANCH  34  37
ATOM     37  C12 <0> A   1     -31.178  -8.454  53.847  0.00  0.00    -0.102 C 
BRANCH  37  38
ATOM     38  C13 <0> A   1     -30.859  -9.798  54.449  0.00  0.00    +0.490 C 
ATOM     39  O1  <0> A   1     -29.936  -9.911  55.236  0.00  0.00    -0.681 OA
ATOM     40  O2  <0> A   1     -31.526 -10.774  54.147  0.00  0.00    -0.712 OA
ENDBRANCH  37  38
ENDBRANCH  34  37
ENDBRANCH  33  34
ENDBRANCH  30  33
ENDBRANCH  29  30
ENDBRANCH  28  29
ENDBRANCH   5  28
TORSDOF 14
