REMARK VINA RESULT:      -7.7      3.586      6.489
REMARK  Name = CHEMBL471744
REMARK  17 active torsions:
REMARK  status: ('A' for Active; 'I' for Inactive)
REMARK    1  A    between atoms: C1_1  and  C2_2
REMARK    2  A    between atoms: C2_2  and  C3_3
REMARK    3  A    between atoms: C4_4  and  C23_31
REMARK    4  A    between atoms: C5_5  and  C20_28
REMARK    5  A    between atoms: C6_6  and  C14_21
REMARK    6  A    between atoms: N1_7  and  C7_8
REMARK    7  A    between atoms: C7_8  and  C8_9
REMARK    8  A    between atoms: C8_9  and  C9_10
REMARK    9  A    between atoms: C9_10  and  C10_12
REMARK   10  A    between atoms: C9_10  and  O4_20
REMARK   11  A    between atoms: C10_12  and  C11_13
REMARK   12  A    between atoms: C11_13  and  C12_15
REMARK   13  A    between atoms: C11_13  and  O3_19
REMARK   14  A    between atoms: C12_15  and  C13_16
REMARK   15  A    between atoms: C20_28  and  C21_29
REMARK   16  A    between atoms: C20_28  and  C22_30
REMARK   17  A    between atoms: N2_33  and  C24_34
REMARK                            x       y       z     vdW  Elec       q    Type
REMARK                         _______ _______ _______ _____ _____    ______ ____
ROOT
ATOM      1  C3  <0> A   1     -12.444   9.800  46.377  0.00  0.00    +0.089 C 
ATOM      2  C4  <0> A   1     -12.698   9.528  47.704  0.00  0.00    -0.221 C 
ATOM      3  C5  <0> A   1     -13.446   8.322  47.744  0.00  0.00    -0.086 C 
ATOM      4  C6  <0> A   1     -13.613   7.916  46.459  0.00  0.00    +0.043 C 
ATOM      5  N1  <0> A   1     -13.003   8.826  45.631  0.00  0.00    -0.413 N 
ENDROOT
BRANCH   4   6
ATOM      6  C14 <0> A   1     -14.335   6.700  46.023  0.00  0.00    -0.023 A 
ATOM      7  C15 <0> A   1     -15.701   6.761  45.742  0.00  0.00    +0.065 A 
ATOM      8  C16 <0> A   1     -16.370   5.625  45.336  0.00  0.00    -0.009 A 
ATOM      9  C17 <0> A   1     -15.688   4.425  45.209  0.00  0.00    +0.102 A 
ATOM     10  C18 <0> A   1     -14.333   4.359  45.488  0.00  0.00    -0.006 A 
ATOM     11  C19 <0> A   1     -13.653   5.491  45.888  0.00  0.00    +0.046 A 
ATOM     12  F1  <0> A   1     -16.348   3.315  44.811  0.00  0.00    -0.138 F 
ENDBRANCH   4   6
BRANCH   2  13
ATOM     13  C23 <0> A   1     -12.276  10.335  48.861  0.00  0.00    +0.606 C 
ATOM     14  O5  <0> A   1     -12.955  11.275  49.228  0.00  0.00    -0.512 OA
ATOM     15  N2  <0> A   1     -11.137  10.031  49.514  0.00  0.00    -0.671 N 
ATOM     16  H29 <0> A   1     -10.635   9.237  49.272  0.00  0.00    +0.411 HD
BRANCH  15  17
ATOM     17  C24 <0> A   1     -10.677  10.861  50.543  0.00  0.00    +0.151 A 
ATOM     18  C25 <0> A   1     -11.129  10.675  51.843  0.00  0.00    -0.024 A 
ATOM     19  C26 <0> A   1     -10.673  11.496  52.855  0.00  0.00    +0.024 A 
ATOM     20  C27 <0> A   1      -9.768  12.503  52.575  0.00  0.00    -0.018 A 
ATOM     21  C28 <0> A   1      -9.316  12.691  51.281  0.00  0.00    +0.024 A 
ATOM     22  C29 <0> A   1      -9.762  11.870  50.266  0.00  0.00    +0.011 A 
ENDBRANCH  15  17
ENDBRANCH   2  13
BRANCH   3  23
ATOM     23  C20 <0> A   1     -13.957   7.625  48.976  0.00  0.00    +0.048 C 
ATOM     24  C21 <0> A   1     -12.774   7.109  49.798  0.00  0.00    +0.021 C 
ATOM     25  C22 <0> A   1     -14.772   8.609  49.819  0.00  0.00    +0.024 C 
ENDBRANCH   3  23
BRANCH   1  27
ATOM     26  C1  <0> A   1     -12.630  12.170  45.670  0.00  0.00    +0.035 C 
ATOM     27  C2  <0> A   1     -11.677  10.986  45.851  0.00  0.00    +0.099 C 
ENDBRANCH   1  27
BRANCH   5  28
ATOM     28  C7  <0> A   1     -12.964   8.749  44.169  0.00  0.00    +0.293 C 
BRANCH  28  29
ATOM     29  C8  <0> A   1     -11.710   7.990  43.732  0.00  0.00    -0.014 C 
BRANCH  29  30
ATOM     30  C9  <0> A   1     -11.807   7.659  42.241  0.00  0.00    +0.217 C 
BRANCH  30  31
ATOM     31  O4  <0> A   1     -11.832   6.241  42.069  0.00  0.00    -0.541 OA
ATOM     32  H17 <0> A   1     -11.648   5.743  42.877  0.00  0.00    +0.366 HD
ENDBRANCH  30  31
BRANCH  30  33
ATOM     33  C10 <0> A   1     -13.088   8.265  41.666  0.00  0.00    -0.048 C 
BRANCH  33  34
ATOM     34  C11 <0> A   1     -12.728   9.272  40.571  0.00  0.00    +0.231 C 
BRANCH  34  35
ATOM     35  O3  <0> A   1     -13.336   8.874  39.340  0.00  0.00    -0.528 OA
ATOM     36  H16 <0> A   1     -12.704   8.605  38.658  0.00  0.00    +0.350 HD
ENDBRANCH  34  35
BRANCH  34  37
ATOM     37  C12 <0> A   1     -13.240  10.659  40.966  0.00  0.00    -0.102 C 
BRANCH  37  38
ATOM     38  C13 <0> A   1     -13.961  11.280  39.797  0.00  0.00    +0.490 C 
ATOM     39  O1  <0> A   1     -13.330  11.854  38.926  0.00  0.00    -0.681 OA
ATOM     40  O2  <0> A   1     -15.175  11.206  39.722  0.00  0.00    -0.712 OA
ENDBRANCH  37  38
ENDBRANCH  34  37
ENDBRANCH  33  34
ENDBRANCH  30  33
ENDBRANCH  29  30
ENDBRANCH  28  29
ENDBRANCH   5  28
TORSDOF 14
