REMARK VINA RESULT:      -7.9      4.248      8.775
REMARK  Name = CHEMBL157882
REMARK  8 active torsions:
REMARK  status: ('A' for Active; 'I' for Inactive)
REMARK    1  A    between atoms: C1_1  and  C2_2
REMARK    2  A    between atoms: C2_2  and  C3_3
REMARK    3  A    between atoms: C2_2  and  C4_4
REMARK    4  A    between atoms: C5_5  and  C21_23
REMARK    5  A    between atoms: C6_6  and  C15_16
REMARK    6  A    between atoms: C8_8  and  C9_10
REMARK    7  A    between atoms: C22_24  and  C23_25
REMARK    8  A    between atoms: C25_27  and  O3_33
REMARK                            x       y       z     vdW  Elec       q    Type
REMARK                         _______ _______ _______ _____ _____    ______ ____
ROOT
ATOM      1  C4  <0> A   1     -27.246  -4.994  51.800  0.00  0.00    +0.161 A 
ATOM      2  C5  <0> A   1     -26.837  -3.661  51.820  0.00  0.00    -0.103 A 
ATOM      3  C6  <0> A   1     -25.496  -3.358  51.508  0.00  0.00    +0.010 A 
ATOM      4  C7  <0> A   1     -24.641  -4.417  51.192  0.00  0.00    -0.023 A 
ATOM      5  C8  <0> A   1     -25.135  -5.705  51.197  0.00  0.00    +0.146 A 
ATOM      6  N1  <0> A   1     -26.395  -5.953  51.500  0.00  0.00    -0.473 NA
ENDROOT
BRANCH   3   7
ATOM      7  C15 <0> A   1     -25.010  -1.959  51.514  0.00  0.00    -0.064 A 
ATOM      8  C16 <0> A   1     -24.628  -1.356  52.712  0.00  0.00    +0.074 A 
ATOM      9  C17 <0> A   1     -24.175  -0.053  52.711  0.00  0.00    -0.013 A 
ATOM     10  C18 <0> A   1     -24.100   0.657  51.524  0.00  0.00    +0.108 A 
ATOM     11  C19 <0> A   1     -24.479   0.062  50.331  0.00  0.00    -0.014 A 
ATOM     12  C20 <0> A   1     -24.927  -1.243  50.320  0.00  0.00    +0.060 A 
ATOM     13  F1  <0> A   1     -23.659   1.933  51.528  0.00  0.00    -0.137 F 
ENDBRANCH   3   7
BRANCH   5  14
ATOM     14  C9  <0> A   1     -24.216  -6.851  50.858  0.00  0.00    +0.054 C 
ATOM     15  C10 <0> A   1     -24.284  -7.904  51.966  0.00  0.00    +0.017 C 
ATOM     16  C11 <0> A   1     -23.351  -9.066  51.622  0.00  0.00    +0.009 C 
ATOM     17  C12 <0> A   1     -23.784  -9.693  50.295  0.00  0.00    +0.003 C 
ATOM     18  C13 <0> A   1     -23.717  -8.640  49.186  0.00  0.00    +0.009 C 
ATOM     19  C14 <0> A   1     -24.650  -7.477  49.532  0.00  0.00    +0.022 C 
ENDBRANCH   5  14
BRANCH   1  21
ATOM     20  C1  <0> A   1     -29.247  -6.244  51.036  0.00  0.00    +0.037 C 
ATOM     21  C2  <0> A   1     -28.675  -5.341  52.130  0.00  0.00    +0.041 C 
ATOM     22  C3  <0> A   1     -28.724  -6.073  53.474  0.00  0.00    +0.037 C 
ENDBRANCH   1  21
BRANCH   2  23
ATOM     23  C21 <0> A   1     -27.791  -2.587  52.161  0.00  0.00    +0.049 C 
ATOM     24  C22 <0> A   1     -28.457  -1.962  51.199  0.00  0.00    -0.014 C 
BRANCH  24  25
ATOM     25  C23 <0> A   1     -29.431  -0.866  51.546  0.00  0.00    +0.242 C 
ATOM     26  C24 <0> A   1     -28.766   0.125  52.507  0.00  0.00    +0.050 C 
ATOM     27  C25 <0> A   1     -29.772   1.214  52.891  0.00  0.00    +0.186 C 
ATOM     28  C26 <0> A   1     -30.985   0.556  53.561  0.00  0.00    +0.024 C 
ATOM     29  C27 <0> A   1     -31.484  -0.551  52.659  0.00  0.00    +0.498 C 
ATOM     30  O1  <0> A   1     -32.655  -0.641  52.377  0.00  0.00    -0.450 OA
ATOM     31  O2  <0> A   1     -30.585  -1.433  52.177  0.00  0.00    -0.369 OA
BRANCH  27  32
ATOM     32  O3  <0> A   1     -30.192   1.913  51.716  0.00  0.00    -0.564 OA
ATOM     33  H32 <0> A   1     -30.842   2.608  51.885  0.00  0.00    +0.387 HD
ENDBRANCH  27  32
ENDBRANCH  24  25
ENDBRANCH   2  23
TORSDOF 6
