REMARK VINA RESULT:      -7.2     16.888     20.140
REMARK  Name = CHEMBL445123
REMARK  15 active torsions:
REMARK  status: ('A' for Active; 'I' for Inactive)
REMARK    1  A    between atoms: C1_1  and  C2_2
REMARK    2  A    between atoms: C2_2  and  C3_3
REMARK    3  A    between atoms: C2_2  and  C4_4
REMARK    4  A    between atoms: C6_6  and  C22_30
REMARK    5  A    between atoms: C7_7  and  C16_23
REMARK    6  A    between atoms: N1_8  and  C8_9
REMARK    7  A    between atoms: C9_10  and  C10_11
REMARK    8  A    between atoms: C10_11  and  C11_13
REMARK    9  A    between atoms: C10_11  and  O4_22
REMARK   10  A    between atoms: C11_13  and  C12_14
REMARK   11  A    between atoms: C12_14  and  C13_16
REMARK   12  A    between atoms: C12_14  and  O3_21
REMARK   13  A    between atoms: C13_16  and  C14_17
REMARK   14  A    between atoms: C14_17  and  O2_19
REMARK   15  A    between atoms: O2_19  and  C15_20
REMARK                            x       y       z     vdW  Elec       q    Type
REMARK                         _______ _______ _______ _____ _____    ______ ____
ROOT
ATOM      1  C4  <0> A   1     -25.885  -2.977  51.051  0.00  0.00    +0.082 C 
ATOM      2  C5  <0> A   1     -27.105  -3.539  50.937  0.00  0.00    -0.144 C 
ATOM      3  C6  <0> A   1     -26.923  -4.936  50.795  0.00  0.00    -0.077 C 
ATOM      4  C7  <0> A   1     -25.559  -5.171  50.831  0.00  0.00    +0.073 C 
ATOM      5  N1  <0> A   1     -24.935  -3.957  50.984  0.00  0.00    -0.383 N 
ATOM      6 Br1  <0> A   1     -28.760  -2.626  50.961  0.00  0.00    -0.015 Br
ENDROOT
BRANCH   4   7
ATOM      7  C16 <0> A   1     -24.897  -6.484  50.719  0.00  0.00    -0.035 A 
ATOM      8  C17 <0> A   1     -24.684  -7.059  49.463  0.00  0.00    +0.063 A 
ATOM      9  C18 <0> A   1     -24.065  -8.287  49.366  0.00  0.00    -0.011 A 
ATOM     10  C19 <0> A   1     -23.652  -8.952  50.510  0.00  0.00    +0.109 A 
ATOM     11  C20 <0> A   1     -23.860  -8.387  51.759  0.00  0.00    -0.010 A 
ATOM     12  C21 <0> A   1     -24.472  -7.157  51.869  0.00  0.00    +0.069 A 
ATOM     13  F1  <0> A   1     -23.045 -10.154  50.408  0.00  0.00    -0.136 F 
ENDBRANCH   4   7
BRANCH   3  14
ATOM     14  C22 <0> A   1     -27.990  -5.953  50.639  0.00  0.00    -0.021 A 
ATOM     15  C23 <0> A   1     -28.538  -6.204  49.381  0.00  0.00    +0.054 A 
ATOM     16  C24 <0> A   1     -29.530  -7.153  49.242  0.00  0.00    -0.015 A 
ATOM     17  C25 <0> A   1     -29.983  -7.853  50.348  0.00  0.00    +0.101 A 
ATOM     18  C26 <0> A   1     -29.443  -7.605  51.599  0.00  0.00    -0.014 A 
ATOM     19  C27 <0> A   1     -28.445  -6.664  51.748  0.00  0.00    +0.065 A 
ATOM     20  F2  <0> A   1     -30.957  -8.780  50.206  0.00  0.00    -0.139 F 
ENDBRANCH   3  14
BRANCH   1  22
ATOM     21  C1  <0> A   1     -26.203  -0.738  50.035  0.00  0.00    +0.040 C 
ATOM     22  C2  <0> A   1     -25.612  -1.504  51.220  0.00  0.00    +0.051 C 
ATOM     23  C3  <0> A   1     -26.257  -1.012  52.518  0.00  0.00    +0.040 C 
ENDBRANCH   1  22
BRANCH   5  24
ATOM     24  C8  <0> A   1     -23.557  -3.758  51.060  0.00  0.00    +0.201 C 
ATOM     25  C9  <0> A   1     -22.962  -3.706  52.236  0.00  0.00    -0.048 C 
BRANCH  25  26
ATOM     26  C10 <0> A   1     -21.473  -3.491  52.319  0.00  0.00    +0.268 C 
BRANCH  26  27
ATOM     27  O4  <0> A   1     -20.968  -3.155  51.025  0.00  0.00    -0.538 OA
ATOM     28  H20 <0> A   1     -20.602  -3.906  50.539  0.00  0.00    +0.371 HD
ENDBRANCH  26  27
BRANCH  26  29
ATOM     29  C11 <0> A   1     -21.176  -2.351  53.294  0.00  0.00    -0.014 C 
BRANCH  29  30
ATOM     30  C12 <0> A   1     -20.203  -2.839  54.368  0.00  0.00    +0.233 C 
BRANCH  30  31
ATOM     31  O3  <0> A   1     -20.701  -4.046  54.949  0.00  0.00    -0.530 OA
ATOM     32  H19 <0> A   1     -20.106  -4.444  55.599  0.00  0.00    +0.366 HD
ENDBRANCH  30  31
BRANCH  30  33
ATOM     33  C13 <0> A   1     -18.836  -3.105  53.735  0.00  0.00    +0.073 C 
BRANCH  33  34
ATOM     34  C14 <0> A   1     -18.378  -4.497  54.091  0.00  0.00    +0.456 C 
ATOM     35  O1  <0> A   1     -18.528  -5.401  53.305  0.00  0.00    -0.486 OA
BRANCH  34  36
ATOM     36  O2  <0> A   1     -17.806  -4.730  55.282  0.00  0.00    -0.359 OA
ATOM     37  C15 <0> A   1     -16.740  -3.861  55.671  0.00  0.00    +0.258 C 
ENDBRANCH  34  36
ENDBRANCH  33  34
ENDBRANCH  30  33
ENDBRANCH  29  30
ENDBRANCH  26  29
ENDBRANCH  25  26
ENDBRANCH   5  24
TORSDOF 12
