REMARK VINA RESULT:      -7.8      1.834      4.259
REMARK  Name = CHEMBL348225
REMARK  13 active torsions:
REMARK  status: ('A' for Active; 'I' for Inactive)
REMARK    1  A    between atoms: C1_1  and  C2_2
REMARK    2  A    between atoms: C2_2  and  C3_3
REMARK    3  A    between atoms: C2_2  and  C4_4
REMARK    4  A    between atoms: C5_5  and  C19_20
REMARK    5  A    between atoms: C6_6  and  C14_15
REMARK    6  A    between atoms: C7_7  and  C8_9
REMARK    7  A    between atoms: C20_21  and  C21_22
REMARK    8  A    between atoms: C21_22  and  C22_24
REMARK    9  A    between atoms: C21_22  and  O4_32
REMARK   10  A    between atoms: C22_24  and  C23_25
REMARK   11  A    between atoms: C23_25  and  C24_27
REMARK   12  A    between atoms: C23_25  and  O3_31
REMARK   13  A    between atoms: C24_27  and  C25_28
REMARK                            x       y       z     vdW  Elec       q    Type
REMARK                         _______ _______ _______ _____ _____    ______ ____
ROOT
ATOM      1  C4  <0> A   1     -13.515  10.028  45.504  0.00  0.00    -0.118 C 
ATOM      2  C5  <0> A   1     -13.500   8.738  45.039  0.00  0.00    -0.085 C 
ATOM      3  C6  <0> A   1     -14.378   7.820  45.601  0.00  0.00    -0.073 C 
ATOM      4  C7  <0> A   1     -15.221   8.238  46.590  0.00  0.00    -0.128 C 
ATOM      5  S1  <0> A   1     -14.781   9.960  46.759  0.00  0.00    +0.045 S 
ENDROOT
BRANCH   4   6
ATOM      6  C8  <0> A   1     -16.235   7.461  47.336  0.00  0.00    +0.002 A 
ATOM      7  C9  <0> A   1     -15.895   6.833  48.534  0.00  0.00    +0.019 A 
ATOM      8  C10 <0> A   1     -16.845   6.111  49.225  0.00  0.00    +0.007 A 
ATOM      9  C11 <0> A   1     -18.133   6.008  48.732  0.00  0.00    +0.007 A 
ATOM     10  C12 <0> A   1     -18.478   6.628  47.543  0.00  0.00    +0.009 A 
ATOM     11  C13 <0> A   1     -17.538   7.359  46.847  0.00  0.00    +0.029 A 
ENDBRANCH   4   6
BRANCH   3  12
ATOM     12  C14 <0> A   1     -14.400   6.390  45.127  0.00  0.00    +0.041 C 
ATOM     13  C15 <0> A   1     -15.855   5.934  44.892  0.00  0.00    +0.017 C 
ATOM     14  C16 <0> A   1     -15.871   4.458  45.357  0.00  0.00    +0.010 C 
ATOM     15  C17 <0> A   1     -14.943   4.481  46.597  0.00  0.00    +0.005 C 
ATOM     16  C18 <0> A   1     -13.820   5.465  46.211  0.00  0.00    +0.016 C 
ENDBRANCH   3  12
BRANCH   1  18
ATOM     17  C1  <0> A   1     -13.419  11.989  43.989  0.00  0.00    +0.034 C 
ATOM     18  C2  <0> A   1     -12.675  11.201  45.069  0.00  0.00    +0.084 C 
ATOM     19  C3  <0> A   1     -12.408  12.110  46.270  0.00  0.00    +0.033 C 
ENDBRANCH   1  18
BRANCH   2  20
ATOM     20  C19 <0> A   1     -12.568   8.333  43.966  0.00  0.00    +0.037 C 
ATOM     21  C20 <0> A   1     -13.034   8.038  42.761  0.00  0.00    -0.066 C 
BRANCH  21  22
ATOM     22  C21 <0> A   1     -12.077   7.758  41.631  0.00  0.00    +0.251 C 
BRANCH  22  23
ATOM     23  O4  <0> A   1     -11.594   6.418  41.736  0.00  0.00    -0.539 OA
ATOM     24  H31 <0> A   1     -11.312   6.171  42.628  0.00  0.00    +0.363 HD
ENDBRANCH  22  23
BRANCH  22  25
ATOM     25  C22 <0> A   1     -12.801   7.935  40.293  0.00  0.00    -0.043 C 
BRANCH  25  26
ATOM     26  C23 <0> A   1     -12.400   9.274  39.670  0.00  0.00    +0.231 C 
BRANCH  26  27
ATOM     27  O3  <0> A   1     -12.832   9.314  38.308  0.00  0.00    -0.528 OA
ATOM     28  H30 <0> A   1     -12.217   9.766  37.714  0.00  0.00    +0.349 HD
ENDBRANCH  26  27
BRANCH  26  29
ATOM     29  C24 <0> A   1     -13.059  10.416  40.449  0.00  0.00    -0.102 C 
BRANCH  29  30
ATOM     30  C25 <0> A   1     -13.862  11.270  39.503  0.00  0.00    +0.490 C 
ATOM     31  O1  <0> A   1     -15.079  11.195  39.498  0.00  0.00    -0.681 OA
ATOM     32  O2  <0> A   1     -13.295  12.034  38.741  0.00  0.00    -0.713 OA
ENDBRANCH  29  30
ENDBRANCH  26  29
ENDBRANCH  25  26
ENDBRANCH  22  25
ENDBRANCH  21  22
ENDBRANCH   2  20
TORSDOF 11
