REMARK VINA RESULT:      -7.1     16.546     19.190
REMARK  Name = CHEMBL142436
REMARK  13 active torsions:
REMARK  status: ('A' for Active; 'I' for Inactive)
REMARK    1  A    between atoms: C1_1  and  C2_2
REMARK    2  A    between atoms: C4_4  and  C17_24
REMARK    3  A    between atoms: C5_5  and  C10_12
REMARK    4  A    between atoms: C6_6  and  C7_9
REMARK    5  A    between atoms: C7_9  and  C8_10
REMARK    6  A    between atoms: C7_9  and  C9_11
REMARK    7  A    between atoms: C11_13  and  C12_14
REMARK    8  A    between atoms: C12_14  and  C13_15
REMARK    9  A    between atoms: C12_14  and  O5_23
REMARK   10  A    between atoms: C13_15  and  C14_16
REMARK   11  A    between atoms: C14_16  and  C15_18
REMARK   12  A    between atoms: C14_16  and  O4_22
REMARK   13  A    between atoms: C15_18  and  C16_19
REMARK                            x       y       z     vdW  Elec       q    Type
REMARK                         _______ _______ _______ _____ _____    ______ ____
ROOT
ATOM      1  C1  <0> A   1     -29.211  -3.446  50.683  0.00  0.00    +0.156 C 
ATOM      2  C2  <0> A   1     -27.714  -3.557  50.822  0.00  0.00    +0.101 A 
ATOM      3  C3  <0> A   1     -27.114  -4.796  50.722  0.00  0.00    +0.042 A 
ATOM      4  C4  <0> A   1     -25.727  -4.893  50.850  0.00  0.00    +0.005 A 
ATOM      5  C5  <0> A   1     -24.997  -3.708  51.079  0.00  0.00    -0.041 A 
ATOM      6  C6  <0> A   1     -25.688  -2.501  51.166  0.00  0.00    +0.125 A 
ATOM      7  N1  <0> A   1     -26.999  -2.466  51.032  0.00  0.00    -0.114 N 
ATOM      8  O1  <0> A   1     -27.663  -1.219  51.121  0.00  0.00    -0.533 OA
ENDROOT
BRANCH   4   9
ATOM      9  C17 <0> A   1     -25.043  -6.203  50.750  0.00  0.00    -0.073 A 
ATOM     10  C18 <0> A   1     -24.633  -6.869  51.905  0.00  0.00    +0.083 A 
ATOM     11  C19 <0> A   1     -23.996  -8.088  51.806  0.00  0.00    -0.008 A 
ATOM     12  C20 <0> A   1     -23.766  -8.653  50.562  0.00  0.00    +0.114 A 
ATOM     13  C21 <0> A   1     -24.172  -7.996  49.412  0.00  0.00    -0.014 A 
ATOM     14  C22 <0> A   1     -24.814  -6.779  49.501  0.00  0.00    +0.064 A 
ATOM     15  F1  <0> A   1     -23.142  -9.849  50.471  0.00  0.00    -0.135 F 
ENDBRANCH   4   9
BRANCH   6  16
ATOM     16  C7  <0> A   1     -24.928  -1.222  51.410  0.00  0.00    +0.055 C 
ATOM     17  C8  <0> A   1     -25.179  -0.252  50.254  0.00  0.00    +0.044 C 
ATOM     18  C9  <0> A   1     -25.403  -0.590  52.719  0.00  0.00    +0.044 C 
ENDBRANCH   6  16
BRANCH   5  19
ATOM     19  C10 <0> A   1     -23.529  -3.746  51.224  0.00  0.00    +0.002 C 
ATOM     20  C11 <0> A   1     -22.974  -3.534  52.412  0.00  0.00    -0.015 C 
BRANCH  20  21
ATOM     21  C12 <0> A   1     -21.475  -3.572  52.560  0.00  0.00    +0.253 C 
BRANCH  21  22
ATOM     22  O5  <0> A   1     -20.865  -3.365  51.285  0.00  0.00    -0.536 OA
ATOM     23  H21 <0> A   1     -21.064  -2.505  50.888  0.00  0.00    +0.367 HD
ENDBRANCH  21  22
BRANCH  21  24
ATOM     24  C13 <0> A   1     -21.029  -2.471  53.524  0.00  0.00    -0.040 C 
BRANCH  24  25
ATOM     25  C14 <0> A   1     -20.050  -3.052  54.546  0.00  0.00    +0.232 C 
BRANCH  25  26
ATOM     26  O4  <0> A   1     -20.525  -4.324  54.989  0.00  0.00    -0.528 OA
ATOM     27  H20 <0> A   1     -21.287  -4.275  55.582  0.00  0.00    +0.351 HD
ENDBRANCH  25  26
BRANCH  25  28
ATOM     28  C15 <0> A   1     -18.675  -3.217  53.897  0.00  0.00    -0.101 C 
BRANCH  28  29
ATOM     29  C16 <0> A   1     -18.155  -4.606  54.170  0.00  0.00    +0.491 C 
ATOM     30  O2  <0> A   1     -18.371  -5.505  53.375  0.00  0.00    -0.681 OA
ATOM     31  O3  <0> A   1     -17.519  -4.830  55.186  0.00  0.00    -0.712 OA
ENDBRANCH  28  29
ENDBRANCH  25  28
ENDBRANCH  24  25
ENDBRANCH  21  24
ENDBRANCH  20  21
ENDBRANCH   5  19
TORSDOF 10
