REMARK VINA RESULT:      -7.6      2.726      4.974
REMARK  Name = CHEMBL63204
REMARK  12 active torsions:
REMARK  status: ('A' for Active; 'I' for Inactive)
REMARK    1  A    between atoms: C1_1  and  C2_2
REMARK    2  A    between atoms: C2_2  and  C3_3
REMARK    3  A    between atoms: C2_2  and  C4_4
REMARK    4  A    between atoms: C5_5  and  C18_22
REMARK    5  A    between atoms: C6_6  and  C12_15
REMARK    6  A    between atoms: C19_23  and  C20_24
REMARK    7  A    between atoms: C20_24  and  C21_25
REMARK    8  A    between atoms: C20_24  and  O4_33
REMARK    9  A    between atoms: C21_25  and  C22_26
REMARK   10  A    between atoms: C22_26  and  C23_28
REMARK   11  A    between atoms: C22_26  and  O3_32
REMARK   12  A    between atoms: C23_28  and  C24_29
REMARK                            x       y       z     vdW  Elec       q    Type
REMARK                         _______ _______ _______ _____ _____    ______ ____
ROOT
ATOM      1  C4  <0> A   1     -15.554  10.722  47.350  0.00  0.00    +0.116 C 
ATOM      2  C5  <0> A   1     -14.948   9.746  46.535  0.00  0.00    -0.169 C 
ATOM      3  C6  <0> A   1     -15.400   8.506  46.973  0.00  0.00    +0.148 C 
ATOM      4  N1  <0> A   1     -16.250   8.740  48.017  0.00  0.00    -0.321 N 
ATOM      5  N2  <0> A   1     -16.316  10.122  48.223  0.00  0.00    -0.275 NA
ATOM      6  C7  <0> A   1     -16.931   7.767  48.753  0.00  0.00    +0.368 A 
ATOM      7  C8  <0> A   1     -17.334   8.045  50.054  0.00  0.00    -0.015 A 
ATOM      8  C9  <0> A   1     -18.007   7.072  50.772  0.00  0.00    +0.089 A 
ATOM      9  C10 <0> A   1     -18.256   5.851  50.162  0.00  0.00    -0.041 A 
ATOM     10  C11 <0> A   1     -17.827   5.644  48.865  0.00  0.00    +0.295 A 
ATOM     11  N3  <0> A   1     -17.192   6.591  48.203  0.00  0.00    -0.490 NA
ENDROOT
BRANCH   3  12
ATOM     12  C12 <0> A   1     -15.033   7.188  46.416  0.00  0.00    -0.033 A 
ATOM     13  C13 <0> A   1     -13.943   6.486  46.936  0.00  0.00    +0.088 A 
ATOM     14  C14 <0> A   1     -13.605   5.257  46.413  0.00  0.00    -0.011 A 
ATOM     15  C15 <0> A   1     -14.344   4.717  45.372  0.00  0.00    +0.112 A 
ATOM     16  C16 <0> A   1     -15.427   5.409  44.851  0.00  0.00    -0.021 A 
ATOM     17  C17 <0> A   1     -15.777   6.637  45.371  0.00  0.00    +0.074 A 
ATOM     18  F1  <0> A   1     -14.008   3.512  44.862  0.00  0.00    -0.138 F 
ENDBRANCH   3  12
BRANCH   1  20
ATOM     19  C1  <0> A   1     -16.620  12.935  47.691  0.00  0.00    +0.037 C 
ATOM     20  C2  <0> A   1     -15.352  12.212  47.235  0.00  0.00    +0.081 C 
ATOM     21  C3  <0> A   1     -14.176  12.636  48.119  0.00  0.00    +0.038 C 
ENDBRANCH   1  20
BRANCH   2  22
ATOM     22  C18 <0> A   1     -14.008   9.992  45.424  0.00  0.00    +0.040 C 
ATOM     23  C19 <0> A   1     -14.301  10.889  44.492  0.00  0.00    -0.054 C 
BRANCH  23  24
ATOM     24  C20 <0> A   1     -13.341  11.140  43.358  0.00  0.00    +0.251 C 
BRANCH  24  25
ATOM     25  O4  <0> A   1     -12.006  10.889  43.801  0.00  0.00    -0.538 OA
ATOM     26  H25 <0> A   1     -11.953  10.422  44.647  0.00  0.00    +0.366 HD
ENDBRANCH  24  25
BRANCH  24  27
ATOM     27  C21 <0> A   1     -13.676  10.210  42.191  0.00  0.00    -0.042 C 
BRANCH  27  28
ATOM     28  C22 <0> A   1     -12.443  10.046  41.299  0.00  0.00    +0.230 C 
BRANCH  28  29
ATOM     29  O3  <0> A   1     -11.736   8.863  41.677  0.00  0.00    -0.528 OA
ATOM     30  H24 <0> A   1     -11.808   8.141  41.037  0.00  0.00    +0.350 HD
ENDBRANCH  28  29
BRANCH  28  31
ATOM     31  C23 <0> A   1     -12.882   9.932  39.838  0.00  0.00    -0.102 C 
BRANCH  31  32
ATOM     32  C24 <0> A   1     -13.047  11.312  39.254  0.00  0.00    +0.491 C 
ATOM     33  O1  <0> A   1     -14.162  11.748  39.025  0.00  0.00    -0.681 OA
ATOM     34  O2  <0> A   1     -12.065  11.991  39.011  0.00  0.00    -0.714 OA
ENDBRANCH  31  32
ENDBRANCH  28  31
ENDBRANCH  27  28
ENDBRANCH  24  27
ENDBRANCH  23  24
ENDBRANCH   2  22
TORSDOF 10
