REMARK VINA RESULT:      -7.6      3.014      5.656
REMARK  Name = CHEMBL437783
REMARK  16 active torsions:
REMARK  status: ('A' for Active; 'I' for Inactive)
REMARK    1  A    between atoms: C1_1  and  C2_2
REMARK    2  A    between atoms: C2_2  and  C3_3
REMARK    3  A    between atoms: C2_2  and  C4_4
REMARK    4  A    between atoms: C5_5  and  S1_35
REMARK    5  A    between atoms: C6_6  and  C21_29
REMARK    6  A    between atoms: C7_7  and  C15_22
REMARK    7  A    between atoms: N1_8  and  C8_9
REMARK    8  A    between atoms: C8_9  and  C9_10
REMARK    9  A    between atoms: C9_10  and  C10_11
REMARK   10  A    between atoms: C10_11  and  C11_13
REMARK   11  A    between atoms: C10_11  and  O4_21
REMARK   12  A    between atoms: C11_13  and  C12_14
REMARK   13  A    between atoms: C12_14  and  C13_16
REMARK   14  A    between atoms: C12_14  and  O3_20
REMARK   15  A    between atoms: C13_16  and  C14_17
REMARK   16  A    between atoms: S1_35  and  N2_38
REMARK                            x       y       z     vdW  Elec       q    Type
REMARK                         _______ _______ _______ _____ _____    ______ ____
ROOT
ATOM      1  C4  <0> A   1     -13.445  10.123  46.341  0.00  0.00    +0.173 C 
ATOM      2  C5  <0> A   1     -13.892   9.909  47.593  0.00  0.00    -0.733 C 
ATOM      3  C6  <0> A   1     -14.522   8.642  47.613  0.00  0.00    -0.021 C 
ATOM      4  C7  <0> A   1     -14.426   8.127  46.331  0.00  0.00    +0.059 C 
ATOM      5  N1  <0> A   1     -13.768   9.051  45.563  0.00  0.00    -0.412 N 
ENDROOT
BRANCH   4   6
ATOM      6  C15 <0> A   1     -14.944   6.822  45.874  0.00  0.00    -0.027 A 
ATOM      7  C16 <0> A   1     -14.189   5.662  46.064  0.00  0.00    +0.045 A 
ATOM      8  C17 <0> A   1     -14.678   4.446  45.634  0.00  0.00    -0.008 A 
ATOM      9  C18 <0> A   1     -15.915   4.374  45.013  0.00  0.00    +0.105 A 
ATOM     10  C19 <0> A   1     -16.669   5.522  44.821  0.00  0.00    -0.008 A 
ATOM     11  C20 <0> A   1     -16.192   6.742  45.253  0.00  0.00    +0.075 A 
ATOM     12  F1  <0> A   1     -16.388   3.180  44.594  0.00  0.00    -0.137 F 
ENDBRANCH   4   6
BRANCH   3  13
ATOM     13  C21 <0> A   1     -15.161   7.991  48.780  0.00  0.00    -0.035 A 
ATOM     14  C22 <0> A   1     -14.400   7.210  49.650  0.00  0.00    +0.061 A 
ATOM     15  C23 <0> A   1     -15.000   6.608  50.736  0.00  0.00    -0.000 A 
ATOM     16  C24 <0> A   1     -16.355   6.775  50.963  0.00  0.00    +0.003 A 
ATOM     17  C25 <0> A   1     -17.115   7.547  50.104  0.00  0.00    -0.009 A 
ATOM     18  C26 <0> A   1     -16.524   8.160  49.018  0.00  0.00    +0.018 A 
ENDBRANCH   3  13
BRANCH   1  20
ATOM     19  C1  <0> A   1     -11.226  11.028  45.700  0.00  0.00    +0.040 C 
ATOM     20  C2  <0> A   1     -12.711  11.354  45.872  0.00  0.00    +0.059 C 
ATOM     21  C3  <0> A   1     -13.291  11.816  44.534  0.00  0.00    +0.038 C 
ENDBRANCH   1  20
BRANCH   2  22
ATOM     22  S1  <0> A   1     -13.723  11.007  48.960  0.00  0.00    +2.710 S 
ATOM     23  O5  <0> A   1     -14.184  12.278  48.520  0.00  0.00    -0.950 OA
ATOM     24  O6  <0> A   1     -14.281  10.343  50.086  0.00  0.00    -0.965 OA
BRANCH  22  25
ATOM     25  N2  <0> A   1     -12.104  11.171  49.261  0.00  0.00    -0.996 NA
ATOM     26  C27 <0> A   1     -11.465  12.494  49.225  0.00  0.00    +0.281 C 
ATOM     27  C28 <0> A   1     -10.720  12.717  50.544  0.00  0.00    +0.006 C 
ATOM     28  C29 <0> A   1      -9.748  11.557  50.780  0.00  0.00    +0.010 C 
ATOM     29  C30 <0> A   1     -10.533  10.247  50.883  0.00  0.00    +0.006 C 
ATOM     30  C31 <0> A   1     -11.278   9.997  49.574  0.00  0.00    +0.285 C 
ENDBRANCH  22  25
ENDBRANCH   2  22
BRANCH   5  31
ATOM     31  C8  <0> A   1     -13.459   8.909  44.138  0.00  0.00    +0.294 C 
BRANCH  31  32
ATOM     32  C9  <0> A   1     -12.266   7.966  43.967  0.00  0.00    -0.015 C 
BRANCH  32  33
ATOM     33  C10 <0> A   1     -11.986   7.764  42.475  0.00  0.00    +0.218 C 
BRANCH  33  34
ATOM     34  O4  <0> A   1     -11.768   6.375  42.216  0.00  0.00    -0.540 OA
ATOM     35  H19 <0> A   1     -11.786   5.820  43.008  0.00  0.00    +0.366 HD
ENDBRANCH  33  34
BRANCH  33  36
ATOM     36  C11 <0> A   1     -13.186   8.252  41.661  0.00  0.00    -0.047 C 
BRANCH  36  37
ATOM     37  C12 <0> A   1     -12.712   9.252  40.604  0.00  0.00    +0.232 C 
BRANCH  37  38
ATOM     38  O3  <0> A   1     -13.229   8.875  39.326  0.00  0.00    -0.528 OA
ATOM     39  H18 <0> A   1     -12.992   9.482  38.612  0.00  0.00    +0.350 HD
ENDBRANCH  37  38
BRANCH  37  40
ATOM     40  C13 <0> A   1     -13.212  10.652  40.965  0.00  0.00    -0.102 C 
BRANCH  40  41
ATOM     41  C14 <0> A   1     -13.933  11.247  39.783  0.00  0.00    +0.491 C 
ATOM     42  O1  <0> A   1     -15.145  11.146  39.693  0.00  0.00    -0.681 OA
ATOM     43  O2  <0> A   1     -13.304  11.831  38.916  0.00  0.00    -0.712 OA
ENDBRANCH  40  41
ENDBRANCH  37  40
ENDBRANCH  36  37
ENDBRANCH  33  36
ENDBRANCH  32  33
ENDBRANCH  31  32
ENDBRANCH   5  31
TORSDOF 14
