REMARK VINA RESULT:      -8.0      3.056      5.359
REMARK  Name = CHEMBL157882
REMARK  8 active torsions:
REMARK  status: ('A' for Active; 'I' for Inactive)
REMARK    1  A    between atoms: C1_1  and  C2_2
REMARK    2  A    between atoms: C2_2  and  C3_3
REMARK    3  A    between atoms: C2_2  and  C4_4
REMARK    4  A    between atoms: C5_5  and  C21_23
REMARK    5  A    between atoms: C6_6  and  C15_16
REMARK    6  A    between atoms: C8_8  and  C9_10
REMARK    7  A    between atoms: C22_24  and  C23_25
REMARK    8  A    between atoms: C25_27  and  O3_33
REMARK                            x       y       z     vdW  Elec       q    Type
REMARK                         _______ _______ _______ _____ _____    ______ ____
ROOT
ATOM      1  C4  <0> A   1     -26.428  -3.142  51.930  0.00  0.00    +0.161 A 
ATOM      2  C5  <0> A   1     -26.181  -4.487  51.653  0.00  0.00    -0.103 A 
ATOM      3  C6  <0> A   1     -24.863  -4.886  51.351  0.00  0.00    +0.010 A 
ATOM      4  C7  <0> A   1     -23.865  -3.908  51.347  0.00  0.00    -0.023 A 
ATOM      5  C8  <0> A   1     -24.204  -2.601  51.634  0.00  0.00    +0.146 A 
ATOM      6  N1  <0> A   1     -25.449  -2.261  51.907  0.00  0.00    -0.473 NA
ENDROOT
BRANCH   3   7
ATOM      7  C15 <0> A   1     -24.546  -6.301  51.050  0.00  0.00    -0.064 A 
ATOM      8  C16 <0> A   1     -24.107  -7.151  52.064  0.00  0.00    +0.074 A 
ATOM      9  C17 <0> A   1     -23.813  -8.468  51.778  0.00  0.00    -0.013 A 
ATOM     10  C18 <0> A   1     -23.952  -8.946  50.485  0.00  0.00    +0.108 A 
ATOM     11  C19 <0> A   1     -24.387  -8.105  49.473  0.00  0.00    -0.014 A 
ATOM     12  C20 <0> A   1     -24.690  -6.788  49.751  0.00  0.00    +0.060 A 
ATOM     13  F1  <0> A   1     -23.661 -10.236  50.209  0.00  0.00    -0.137 F 
ENDBRANCH   3   7
BRANCH   5  14
ATOM     14  C9  <0> A   1     -23.131  -1.542  51.630  0.00  0.00    +0.054 C 
ATOM     15  C10 <0> A   1     -23.763  -0.179  51.340  0.00  0.00    +0.017 C 
ATOM     16  C11 <0> A   1     -22.675   0.896  51.335  0.00  0.00    +0.009 C 
ATOM     17  C12 <0> A   1     -21.987   0.933  52.701  0.00  0.00    +0.003 C 
ATOM     18  C13 <0> A   1     -21.356  -0.431  52.992  0.00  0.00    +0.009 C 
ATOM     19  C14 <0> A   1     -22.445  -1.505  52.997  0.00  0.00    +0.022 C 
ENDBRANCH   5  14
BRANCH   1  21
ATOM     20  C1  <0> A   1     -27.782  -1.635  53.359  0.00  0.00    +0.037 C 
ATOM     21  C2  <0> A   1     -27.829  -2.693  52.255  0.00  0.00    +0.041 C 
ATOM     22  C3  <0> A   1     -28.475  -2.095  51.003  0.00  0.00    +0.037 C 
ENDBRANCH   1  21
BRANCH   2  23
ATOM     23  C21 <0> A   1     -27.279  -5.472  51.675  0.00  0.00    +0.049 C 
ATOM     24  C22 <0> A   1     -27.606  -6.076  52.811  0.00  0.00    -0.014 C 
BRANCH  24  25
ATOM     25  C23 <0> A   1     -28.727  -7.082  52.834  0.00  0.00    +0.242 C 
ATOM     26  C24 <0> A   1     -29.889  -6.575  51.974  0.00  0.00    +0.050 C 
ATOM     27  C25 <0> A   1     -31.042  -7.580  52.034  0.00  0.00    +0.186 C 
ATOM     28  C26 <0> A   1     -31.489  -7.737  53.494  0.00  0.00    +0.024 C 
ATOM     29  C27 <0> A   1     -30.269  -8.043  54.334  0.00  0.00    +0.498 C 
ATOM     30  O1  <0> A   1     -30.271  -8.961  55.119  0.00  0.00    -0.450 OA
ATOM     31  O2  <0> A   1     -29.180  -7.263  54.180  0.00  0.00    -0.369 OA
BRANCH  27  32
ATOM     32  O3  <0> A   1     -30.603  -8.843  51.528  0.00  0.00    -0.564 OA
ATOM     33  H32 <0> A   1     -29.650  -8.896  51.379  0.00  0.00    +0.387 HD
ENDBRANCH  27  32
ENDBRANCH  24  25
ENDBRANCH   2  23
TORSDOF 6
