REMARK VINA RESULT:      -8.2      2.512      4.563
REMARK  Name = CHEMBL340848
REMARK  10 active torsions:
REMARK  status: ('A' for Active; 'I' for Inactive)
REMARK    1  A    between atoms: C1_1  and  C2_2
REMARK    2  A    between atoms: C2_2  and  C3_3
REMARK    3  A    between atoms: C2_2  and  C4_4
REMARK    4  A    between atoms: C5_5  and  C20_23
REMARK    5  A    between atoms: C6_6  and  C14_16
REMARK    6  A    between atoms: N1_7  and  C7_9
REMARK    7  A    between atoms: C7_9  and  C8_10
REMARK    8  A    between atoms: C20_23  and  C21_24
REMARK    9  A    between atoms: C21_24  and  C22_25
REMARK   10  A    between atoms: C24_28  and  O3_34
REMARK                            x       y       z     vdW  Elec       q    Type
REMARK                         _______ _______ _______ _____ _____    ______ ____
ROOT
ATOM      1  C4  <0> A   1     -15.822  10.100  47.448  0.00  0.00    +0.088 C 
ATOM      2  C5  <0> A   1     -15.994   8.763  47.090  0.00  0.00    -0.208 C 
ATOM      3  C6  <0> A   1     -14.933   8.398  46.311  0.00  0.00    +0.125 C 
ATOM      4  N1  <0> A   1     -14.123   9.488  46.193  0.00  0.00    -0.359 N 
ATOM      5  N2  <0> A   1     -14.711  10.536  46.911  0.00  0.00    -0.275 NA
ENDROOT
BRANCH   3   6
ATOM      6  C14 <0> A   1     -14.704   7.067  45.708  0.00  0.00    -0.040 A 
ATOM      7  C15 <0> A   1     -15.205   6.778  44.438  0.00  0.00    +0.082 A 
ATOM      8  C16 <0> A   1     -14.988   5.535  43.880  0.00  0.00    -0.005 A 
ATOM      9  C17 <0> A   1     -14.276   4.573  44.580  0.00  0.00    +0.109 A 
ATOM     10  C18 <0> A   1     -13.777   4.856  45.841  0.00  0.00    -0.011 A 
ATOM     11  C19 <0> A   1     -13.983   6.097  46.406  0.00  0.00    +0.053 A 
ATOM     12  F1  <0> A   1     -14.068   3.357  44.029  0.00  0.00    -0.136 F 
ENDBRANCH   3   6
BRANCH   1  14
ATOM     13  C1  <0> A   1     -16.295  10.857  49.762  0.00  0.00    +0.032 C 
ATOM     14  C2  <0> A   1     -16.762  10.909  48.306  0.00  0.00    +0.073 C 
ATOM     15  C3  <0> A   1     -16.769  12.360  47.824  0.00  0.00    +0.033 C 
ENDBRANCH   1  14
BRANCH   4  16
ATOM     16  C7  <0> A   1     -12.866   9.553  45.442  0.00  0.00    +0.377 C 
BRANCH  16  17
ATOM     17  C8  <0> A   1     -13.157   9.919  44.009  0.00  0.00    -0.117 A 
ATOM     18  C9  <0> A   1     -13.747  11.133  43.711  0.00  0.00    +0.037 A 
ATOM     19  C10 <0> A   1     -14.013  11.467  42.397  0.00  0.00    +0.002 A 
ATOM     20  C11 <0> A   1     -13.689  10.590  41.380  0.00  0.00    +0.016 A 
ATOM     21  C12 <0> A   1     -13.098   9.376  41.678  0.00  0.00    +0.002 A 
ATOM     22  C13 <0> A   1     -12.828   9.042  42.992  0.00  0.00    +0.023 A 
ENDBRANCH  16  17
ENDBRANCH   4  16
BRANCH   2  23
ATOM     23  C20 <0> A   1     -17.147   7.878  47.491  0.00  0.00    +0.107 C 
BRANCH  23  24
ATOM     24  C21 <0> A   1     -16.738   7.021  48.690  0.00  0.00    +0.054 C 
BRANCH  24  25
ATOM     25  C22 <0> A   1     -17.749   5.886  48.873  0.00  0.00    +0.196 C 
ATOM     26  C23 <0> A   1     -17.614   5.306  50.283  0.00  0.00    +0.039 C 
ATOM     27  C24 <0> A   1     -18.656   4.199  50.479  0.00  0.00    +0.183 C 
ATOM     28  C25 <0> A   1     -20.056   4.795  50.279  0.00  0.00    +0.019 C 
ATOM     29  C26 <0> A   1     -20.076   5.528  48.957  0.00  0.00    +0.496 C 
ATOM     30  O1  <0> A   1     -20.963   5.344  48.157  0.00  0.00    -0.454 OA
ATOM     31  O2  <0> A   1     -19.075   6.396  48.695  0.00  0.00    -0.365 OA
BRANCH  27  32
ATOM     32  O3  <0> A   1     -18.435   3.161  49.522  0.00  0.00    -0.563 OA
ATOM     33  H29 <0> A   1     -18.593   2.270  49.865  0.00  0.00    +0.386 HD
ENDBRANCH  27  32
ENDBRANCH  24  25
ENDBRANCH  23  24
ENDBRANCH   2  23
TORSDOF 8
