REMARK VINA RESULT:      -8.1      4.112      9.129
REMARK  Name = CHEMBL157724
REMARK  8 active torsions:
REMARK  status: ('A' for Active; 'I' for Inactive)
REMARK    1  A    between atoms: C1_1  and  C2_2
REMARK    2  A    between atoms: C2_2  and  C3_3
REMARK    3  A    between atoms: C2_2  and  C4_4
REMARK    4  A    between atoms: C5_5  and  C21_24
REMARK    5  A    between atoms: C6_6  and  C15_17
REMARK    6  A    between atoms: C8_8  and  C9_10
REMARK    7  A    between atoms: C22_25  and  C23_26
REMARK    8  A    between atoms: C25_28  and  O3_34
REMARK                            x       y       z     vdW  Elec       q    Type
REMARK                         _______ _______ _______ _____ _____    ______ ____
ROOT
ATOM      1  C4  <0> A   1     -27.511  -5.165  52.019  0.00  0.00    +0.166 A 
ATOM      2  C5  <0> A   1     -27.014  -3.863  51.990  0.00  0.00    -0.097 A 
ATOM      3  C6  <0> A   1     -25.702  -3.644  51.517  0.00  0.00    +0.013 A 
ATOM      4  C7  <0> A   1     -24.961  -4.747  51.099  0.00  0.00    -0.014 A 
ATOM      5  C8  <0> A   1     -25.537  -6.012  51.162  0.00  0.00    +0.177 A 
ATOM      6  N1  <0> A   1     -26.773  -6.178  51.618  0.00  0.00    -0.468 NA
ENDROOT
BRANCH   5   7
ATOM      7  C9  <0> A   1     -24.758  -7.193  50.719  0.00  0.00    -0.061 A 
ATOM      8  C10 <0> A   1     -24.600  -7.455  49.358  0.00  0.00    +0.065 A 
ATOM      9  C11 <0> A   1     -23.874  -8.554  48.950  0.00  0.00    -0.016 A 
ATOM     10  C12 <0> A   1     -23.303  -9.398  49.889  0.00  0.00    +0.111 A 
ATOM     11  C13 <0> A   1     -23.456  -9.141  51.242  0.00  0.00    -0.018 A 
ATOM     12  C14 <0> A   1     -24.175  -8.040  51.660  0.00  0.00    +0.097 A 
ATOM     13  F1  <0> A   1     -22.593 -10.474  49.484  0.00  0.00    -0.136 F 
ENDBRANCH   5   7
BRANCH   3  14
ATOM     14  C15 <0> A   1     -25.129  -2.278  51.467  0.00  0.00    -0.067 A 
ATOM     15  C16 <0> A   1     -24.500  -1.741  52.590  0.00  0.00    +0.076 A 
ATOM     16  C17 <0> A   1     -23.968  -0.470  52.539  0.00  0.00    -0.013 A 
ATOM     17  C18 <0> A   1     -24.058   0.274  51.373  0.00  0.00    +0.109 A 
ATOM     18  C19 <0> A   1     -24.681  -0.255  50.255  0.00  0.00    -0.013 A 
ATOM     19  C20 <0> A   1     -25.212  -1.527  50.295  0.00  0.00    +0.061 A 
ATOM     20  F2  <0> A   1     -23.536   1.520  51.327  0.00  0.00    -0.136 F 
ENDBRANCH   3  14
BRANCH   1  22
ATOM     21  C1  <0> A   1     -29.736  -6.080  51.416  0.00  0.00    +0.038 C 
ATOM     22  C2  <0> A   1     -28.910  -5.416  52.520  0.00  0.00    +0.043 C 
ATOM     23  C3  <0> A   1     -28.856  -6.337  53.741  0.00  0.00    +0.039 C 
ENDBRANCH   1  22
BRANCH   2  24
ATOM     24  C21 <0> A   1     -27.844  -2.732  52.445  0.00  0.00    +0.047 C 
ATOM     25  C22 <0> A   1     -28.655  -2.117  51.593  0.00  0.00    -0.010 C 
BRANCH  25  26
ATOM     26  C23 <0> A   1     -29.502  -0.961  52.060  0.00  0.00    +0.242 C 
ATOM     27  C24 <0> A   1     -29.022  -0.501  53.439  0.00  0.00    +0.050 C 
ATOM     28  C25 <0> A   1     -29.911   0.647  53.928  0.00  0.00    +0.186 C 
ATOM     29  C26 <0> A   1     -31.361   0.154  54.006  0.00  0.00    +0.024 C 
ATOM     30  C27 <0> A   1     -31.722  -0.472  52.678  0.00  0.00    +0.498 C 
ATOM     31  O1  <0> A   1     -32.744  -0.174  52.107  0.00  0.00    -0.450 OA
ATOM     32  O2  <0> A   1     -30.869  -1.374  52.148  0.00  0.00    -0.369 OA
BRANCH  28  33
ATOM     33  O3  <0> A   1     -29.823   1.742  53.014  0.00  0.00    -0.564 OA
ATOM     34  H25 <0> A   1     -30.066   2.596  53.399  0.00  0.00    +0.387 HD
ENDBRANCH  28  33
ENDBRANCH  25  26
ENDBRANCH   2  24
TORSDOF 6
