REMARK VINA RESULT:      -8.4      2.552      5.503
REMARK  Name = CHEMBL154699
REMARK  6 active torsions:
REMARK  status: ('A' for Active; 'I' for Inactive)
REMARK    1  A    between atoms: C4_4  and  C7_7
REMARK    2  A    between atoms: C9_9  and  C25_30
REMARK    3  A    between atoms: C10_10  and  C18_19
REMARK    4  A    between atoms: C11_11  and  C12_13
REMARK    5  A    between atoms: C19_20  and  C20_21
REMARK    6  A    between atoms: C22_23  and  O3_29
REMARK                            x       y       z     vdW  Elec       q    Type
REMARK                         _______ _______ _______ _____ _____    ______ ____
ROOT
ATOM      1  C7  <0> A   1     -28.604  -0.757  51.925  0.00  0.00    +0.178 A 
ATOM      2  C8  <0> A   1     -27.234  -0.586  52.106  0.00  0.00    -0.015 A 
ATOM      3  C9  <0> A   1     -26.399  -1.700  52.043  0.00  0.00    +0.012 A 
ATOM      4  C10 <0> A   1     -26.987  -2.960  51.798  0.00  0.00    -0.099 A 
ATOM      5  C11 <0> A   1     -28.370  -3.038  51.629  0.00  0.00    +0.164 A 
ATOM      6  N1  <0> A   1     -29.119  -1.960  51.701  0.00  0.00    -0.467 NA
ENDROOT
BRANCH   3   7
ATOM      7  C25 <0> A   1     -24.936  -1.566  52.230  0.00  0.00    -0.066 A 
ATOM      8  C26 <0> A   1     -24.388  -1.596  53.512  0.00  0.00    +0.075 A 
ATOM      9  C27 <0> A   1     -23.025  -1.471  53.679  0.00  0.00    -0.013 A 
ATOM     10  C28 <0> A   1     -22.200  -1.316  52.577  0.00  0.00    +0.109 A 
ATOM     11  C29 <0> A   1     -22.739  -1.286  51.301  0.00  0.00    -0.013 A 
ATOM     12  C30 <0> A   1     -24.101  -1.416  51.123  0.00  0.00    +0.061 A 
ATOM     13  F1  <0> A   1     -20.865  -1.194  52.747  0.00  0.00    -0.136 F 
ENDBRANCH   3   7
BRANCH   1  17
ATOM     14  C1  <0> A   1     -31.177   2.623  52.110  0.00  0.00    +0.017 A 
ATOM     15  C2  <0> A   1     -29.810   2.802  51.989  0.00  0.00    +0.000 A 
ATOM     16  C3  <0> A   1     -28.971   1.710  51.929  0.00  0.00    +0.057 A 
ATOM     17  C4  <0> A   1     -29.502   0.422  51.990  0.00  0.00    -0.052 A 
ATOM     18  C5  <0> A   1     -30.879   0.247  52.111  0.00  0.00    +0.024 A 
ATOM     19  C6  <0> A   1     -31.709   1.347  52.170  0.00  0.00    +0.003 A 
ENDBRANCH   1  17
BRANCH   5  20
ATOM     20  C12 <0> A   1     -29.012  -4.376  51.366  0.00  0.00    +0.054 C 
ATOM     21  C13 <0> A   1     -29.580  -4.399  49.946  0.00  0.00    +0.026 C 
ATOM     22  C14 <0> A   1     -30.232  -5.757  49.678  0.00  0.00    +0.005 C 
ATOM     23  C15 <0> A   1     -31.363  -5.985  50.683  0.00  0.00    +0.003 C 
ATOM     24  C16 <0> A   1     -30.796  -5.962  52.104  0.00  0.00    +0.006 C 
ATOM     25  C17 <0> A   1     -30.143  -4.604  52.371  0.00  0.00    +0.025 C 
ENDBRANCH   5  20
BRANCH   4  26
ATOM     26  C18 <0> A   1     -26.152  -4.174  51.722  0.00  0.00    +0.049 C 
ATOM     27  C19 <0> A   1     -25.736  -4.619  50.543  0.00  0.00    -0.012 C 
BRANCH  27  28
ATOM     28  C20 <0> A   1     -24.883  -5.860  50.464  0.00  0.00    +0.242 C 
ATOM     29  C21 <0> A   1     -25.541  -6.874  49.525  0.00  0.00    +0.050 C 
ATOM     30  C22 <0> A   1     -24.694  -8.149  49.481  0.00  0.00    +0.186 C 
ATOM     31  C23 <0> A   1     -24.590  -8.726  50.897  0.00  0.00    +0.024 C 
ATOM     32  C24 <0> A   1     -24.123  -7.627  51.825  0.00  0.00    +0.498 C 
ATOM     33  O1  <0> A   1     -23.210  -7.808  52.595  0.00  0.00    -0.450 OA
ATOM     34  O2  <0> A   1     -24.757  -6.436  51.769  0.00  0.00    -0.369 OA
BRANCH  30  35
ATOM     35  O3  <0> A   1     -23.387  -7.838  48.991  0.00  0.00    -0.563 OA
ATOM     36  H26 <0> A   1     -22.909  -8.600  48.636  0.00  0.00    +0.387 HD
ENDBRANCH  30  35
ENDBRANCH  27  28
ENDBRANCH   4  26
TORSDOF 6
