REMARK VINA RESULT:      -8.0      3.736      7.639
REMARK  Name = CHEMBL322643
REMARK  13 active torsions:
REMARK  status: ('A' for Active; 'I' for Inactive)
REMARK    1  A    between atoms: C1_1  and  C2_2
REMARK    2  A    between atoms: C2_2  and  C3_3
REMARK    3  A    between atoms: C2_2  and  C4_4
REMARK    4  A    between atoms: C6_6  and  C22_29
REMARK    5  A    between atoms: C7_8  and  C16_22
REMARK    6  A    between atoms: C8_9  and  C9_10
REMARK    7  A    between atoms: C10_11  and  C11_12
REMARK    8  A    between atoms: C11_12  and  C12_13
REMARK    9  A    between atoms: C11_12  and  O4_21
REMARK   10  A    between atoms: C12_13  and  C13_14
REMARK   11  A    between atoms: C13_14  and  C14_16
REMARK   12  A    between atoms: C13_14  and  O3_20
REMARK   13  A    between atoms: C14_16  and  C15_17
REMARK                            x       y       z     vdW  Elec       q    Type
REMARK                         _______ _______ _______ _____ _____    ______ ____
ROOT
ATOM      1  C4  <0> A   1     -14.475   7.059  44.596  0.00  0.00    -0.018 A 
ATOM      2  C5  <0> A   1     -14.141   7.274  43.273  0.00  0.00    -0.019 A 
ATOM      3  C6  <0> A   1     -13.539   8.477  42.905  0.00  0.00    +0.167 A 
ATOM      4  N1  <0> A   1     -13.286   9.417  43.806  0.00  0.00    -0.469 NA
ATOM      5  C7  <0> A   1     -13.589   9.255  45.084  0.00  0.00    +0.184 A 
ATOM      6  C8  <0> A   1     -14.202   8.068  45.526  0.00  0.00    -0.083 A 
ENDROOT
BRANCH   5   7
ATOM      7  C16 <0> A   1     -13.287  10.332  46.054  0.00  0.00    -0.062 A 
ATOM      8  C17 <0> A   1     -12.094  10.310  46.776  0.00  0.00    +0.087 A 
ATOM      9  C18 <0> A   1     -11.816  11.316  47.678  0.00  0.00    -0.017 A 
ATOM     10  C19 <0> A   1     -12.721  12.347  47.869  0.00  0.00    +0.113 A 
ATOM     11  C20 <0> A   1     -13.908  12.374  47.154  0.00  0.00    -0.026 A 
ATOM     12  C21 <0> A   1     -14.192  11.376  46.246  0.00  0.00    +0.082 A 
ATOM     13  F1  <0> A   1     -12.445  13.330  48.753  0.00  0.00    -0.137 F 
ENDBRANCH   5   7
BRANCH   3  14
ATOM     14  C22 <0> A   1     -13.179   8.710  41.486  0.00  0.00    -0.046 A 
ATOM     15  C23 <0> A   1     -13.300   9.984  40.934  0.00  0.00    +0.023 A 
ATOM     16  C24 <0> A   1     -12.963  10.195  39.612  0.00  0.00    +0.002 A 
ATOM     17  C25 <0> A   1     -12.508   9.144  38.835  0.00  0.00    +0.011 A 
ATOM     18  C26 <0> A   1     -12.385   7.878  39.378  0.00  0.00    -0.001 A 
ATOM     19  C27 <0> A   1     -12.713   7.657  40.700  0.00  0.00    +0.054 A 
ENDBRANCH   3  14
BRANCH   1  21
ATOM     20  C1  <0> A   1     -16.443   5.585  44.269  0.00  0.00    +0.033 C 
ATOM     21  C2  <0> A   1     -15.127   5.770  45.028  0.00  0.00    +0.030 C 
ATOM     22  C3  <0> A   1     -14.191   4.599  44.720  0.00  0.00    +0.033 C 
ENDBRANCH   1  21
BRANCH   6  23
ATOM     23  C9  <0> A   1     -14.546   7.889  46.950  0.00  0.00    -0.001 C 
ATOM     24  C10 <0> A   1     -15.726   8.294  47.404  0.00  0.00    -0.031 C 
BRANCH  24  25
ATOM     25  C11 <0> A   1     -16.077   8.110  48.858  0.00  0.00    +0.252 C 
BRANCH  25  26
ATOM     26  O4  <0> A   1     -16.742   9.279  49.339  0.00  0.00    -0.537 OA
ATOM     27  H18 <0> A   1     -17.696   9.284  49.177  0.00  0.00    +0.366 HD
ENDBRANCH  25  26
BRANCH  25  28
ATOM     28  C12 <0> A   1     -16.999   6.899  49.010  0.00  0.00    -0.041 C 
BRANCH  28  29
ATOM     29  C13 <0> A   1     -18.314   7.163  48.272  0.00  0.00    +0.232 C 
BRANCH  29  30
ATOM     30  O3  <0> A   1     -18.396   6.310  47.128  0.00  0.00    -0.528 OA
ATOM     31  H17 <0> A   1     -17.571   5.850  46.920  0.00  0.00    +0.350 HD
ENDBRANCH  29  30
BRANCH  29  32
ATOM     32  C14 <0> A   1     -19.490   6.878  49.207  0.00  0.00    -0.102 C 
BRANCH  32  33
ATOM     33  C15 <0> A   1     -20.063   5.519  48.893  0.00  0.00    +0.491 C 
ATOM     34  O1  <0> A   1     -20.999   5.417  48.116  0.00  0.00    -0.681 OA
ATOM     35  O2  <0> A   1     -19.593   4.524  49.415  0.00  0.00    -0.713 OA
ENDBRANCH  32  33
ENDBRANCH  29  32
ENDBRANCH  28  29
ENDBRANCH  25  28
ENDBRANCH  24  25
ENDBRANCH   6  23
TORSDOF 11
