REMARK VINA RESULT:      -7.5     16.475     19.383
REMARK  Name = CHEMBL143347
REMARK  12 active torsions:
REMARK  status: ('A' for Active; 'I' for Inactive)
REMARK    1  A    between atoms: C1_1  and  C2_2
REMARK    2  A    between atoms: C2_2  and  C3_3
REMARK    3  A    between atoms: C2_2  and  C4_4
REMARK    4  A    between atoms: C5_5  and  C19_22
REMARK    5  A    between atoms: C6_6  and  C13_15
REMARK    6  A    between atoms: C20_23  and  C21_24
REMARK    7  A    between atoms: C21_24  and  C22_25
REMARK    8  A    between atoms: C21_24  and  O4_33
REMARK    9  A    between atoms: C22_25  and  C23_26
REMARK   10  A    between atoms: C23_26  and  C24_28
REMARK   11  A    between atoms: C23_26  and  O3_32
REMARK   12  A    between atoms: C24_28  and  C25_29
REMARK                            x       y       z     vdW  Elec       q    Type
REMARK                         _______ _______ _______ _____ _____    ______ ____
ROOT
ATOM      1  C4  <0> A   1     -24.890  -1.292  52.692  0.00  0.00    +0.189 A 
ATOM      2  C5  <0> A   1     -25.765  -2.240  52.139  0.00  0.00    -0.076 A 
ATOM      3  C6  <0> A   1     -27.055  -1.844  51.760  0.00  0.00    +0.019 A 
ATOM      4  C7  <0> A   1     -27.413  -0.487  51.956  0.00  0.00    -0.082 A 
ATOM      5  C8  <0> A   1     -28.683  -0.011  51.603  0.00  0.00    +0.058 A 
ATOM      6  C9  <0> A   1     -28.992   1.301  51.808  0.00  0.00    -0.033 A 
ATOM      7  C10 <0> A   1     -28.059   2.175  52.363  0.00  0.00    +0.042 A 
ATOM      8  C11 <0> A   1     -26.818   1.745  52.715  0.00  0.00    +0.070 A 
ATOM      9  C12 <0> A   1     -26.463   0.399  52.522  0.00  0.00    +0.134 A 
ATOM     10  N1  <0> A   1     -25.249  -0.046  52.868  0.00  0.00    -0.465 NA
ATOM     11 Cl1  <0> A   1     -30.566   1.889  51.370  0.00  0.00    -0.066 Cl
ENDROOT
BRANCH   3  12
ATOM     12  C13 <0> A   1     -28.010  -2.809  51.173  0.00  0.00    -0.064 A 
ATOM     13  C14 <0> A   1     -28.898  -3.503  51.996  0.00  0.00    +0.073 A 
ATOM     14  C15 <0> A   1     -29.786  -4.401  51.444  0.00  0.00    -0.006 A 
ATOM     15  C16 <0> A   1     -29.798  -4.616  50.074  0.00  0.00    +0.110 A 
ATOM     16  C17 <0> A   1     -28.917  -3.930  49.253  0.00  0.00    -0.011 A 
ATOM     17  C18 <0> A   1     -28.028  -3.025  49.794  0.00  0.00    +0.062 A 
ATOM     18  F1  <0> A   1     -30.670  -5.498  49.539  0.00  0.00    -0.136 F 
ENDBRANCH   3  12
BRANCH   1  20
ATOM     19  C1  <0> A   1     -22.487  -1.190  52.087  0.00  0.00    +0.041 C 
ATOM     20  C2  <0> A   1     -23.504  -1.722  53.099  0.00  0.00    +0.039 C 
ATOM     21  C3  <0> A   1     -23.184  -1.162  54.487  0.00  0.00    +0.040 C 
ENDBRANCH   1  20
BRANCH   2  22
ATOM     22  C19 <0> A   1     -25.332  -3.639  51.960  0.00  0.00    +0.010 C 
ATOM     23  C20 <0> A   1     -24.723  -4.007  50.839  0.00  0.00    -0.037 C 
BRANCH  23  24
ATOM     24  C21 <0> A   1     -24.280  -5.436  50.656  0.00  0.00    +0.252 C 
BRANCH  24  25
ATOM     25  O4  <0> A   1     -23.587  -5.874  51.827  0.00  0.00    -0.536 OA
ATOM     26  H24 <0> A   1     -24.162  -6.258  52.503  0.00  0.00    +0.366 HD
ENDBRANCH  24  25
BRANCH  24  27
ATOM     27  C22 <0> A   1     -25.506  -6.324  50.428  0.00  0.00    -0.041 C 
BRANCH  27  28
ATOM     28  C23 <0> A   1     -25.131  -7.479  49.498  0.00  0.00    +0.232 C 
BRANCH  28  29
ATOM     29  O3  <0> A   1     -23.835  -7.242  48.942  0.00  0.00    -0.527 OA
ATOM     30  H23 <0> A   1     -23.794  -6.475  48.356  0.00  0.00    +0.350 HD
ENDBRANCH  28  29
BRANCH  28  31
ATOM     31  C24 <0> A   1     -25.113  -8.788  50.291  0.00  0.00    -0.102 C 
BRANCH  31  32
ATOM     32  C25 <0> A   1     -23.687  -9.205  50.539  0.00  0.00    +0.490 C 
ATOM     33  O1  <0> A   1     -23.142  -9.991  49.782  0.00  0.00    -0.681 OA
ATOM     34  O2  <0> A   1     -23.079  -8.757  51.496  0.00  0.00    -0.713 OA
ENDBRANCH  31  32
ENDBRANCH  28  31
ENDBRANCH  27  28
ENDBRANCH  24  27
ENDBRANCH  23  24
ENDBRANCH   2  22
TORSDOF 10
