REMARK VINA RESULT:      -8.1      4.180      9.316
REMARK  Name = CHEMBL157724
REMARK  8 active torsions:
REMARK  status: ('A' for Active; 'I' for Inactive)
REMARK    1  A    between atoms: C1_1  and  C2_2
REMARK    2  A    between atoms: C2_2  and  C3_3
REMARK    3  A    between atoms: C2_2  and  C4_4
REMARK    4  A    between atoms: C5_5  and  C21_24
REMARK    5  A    between atoms: C6_6  and  C15_17
REMARK    6  A    between atoms: C8_8  and  C9_10
REMARK    7  A    between atoms: C22_25  and  C23_26
REMARK    8  A    between atoms: C25_28  and  O3_34
REMARK                            x       y       z     vdW  Elec       q    Type
REMARK                         _______ _______ _______ _____ _____    ______ ____
ROOT
ATOM      1  C4  <0> A   1     -27.034  -4.052  51.034  0.00  0.00    +0.166 A 
ATOM      2  C5  <0> A   1     -26.268  -2.957  51.434  0.00  0.00    -0.097 A 
ATOM      3  C6  <0> A   1     -24.873  -3.117  51.576  0.00  0.00    +0.013 A 
ATOM      4  C7  <0> A   1     -24.323  -4.368  51.307  0.00  0.00    -0.014 A 
ATOM      5  C8  <0> A   1     -25.163  -5.406  50.913  0.00  0.00    +0.177 A 
ATOM      6  N1  <0> A   1     -26.473  -5.218  50.796  0.00  0.00    -0.468 NA
ENDROOT
BRANCH   5   7
ATOM      7  C9  <0> A   1     -24.589  -6.742  50.624  0.00  0.00    -0.061 A 
ATOM      8  C10 <0> A   1     -24.110  -7.537  51.665  0.00  0.00    +0.065 A 
ATOM      9  C11 <0> A   1     -23.578  -8.779  51.391  0.00  0.00    -0.016 A 
ATOM     10  C12 <0> A   1     -23.518  -9.237  50.085  0.00  0.00    +0.111 A 
ATOM     11  C13 <0> A   1     -23.993  -8.451  49.048  0.00  0.00    -0.018 A 
ATOM     12  C14 <0> A   1     -24.533  -7.209  49.312  0.00  0.00    +0.097 A 
ATOM     13  F1  <0> A   1     -22.994 -10.455  49.821  0.00  0.00    -0.136 F 
ENDBRANCH   5   7
BRANCH   3  14
ATOM     14  C15 <0> A   1     -24.016  -1.984  51.998  0.00  0.00    -0.067 A 
ATOM     15  C16 <0> A   1     -23.868  -1.685  53.352  0.00  0.00    +0.076 A 
ATOM     16  C17 <0> A   1     -23.069  -0.630  53.741  0.00  0.00    -0.013 A 
ATOM     17  C18 <0> A   1     -22.414   0.134  52.787  0.00  0.00    +0.109 A 
ATOM     18  C19 <0> A   1     -22.559  -0.159  51.440  0.00  0.00    -0.013 A 
ATOM     19  C20 <0> A   1     -23.351  -1.216  51.043  0.00  0.00    +0.061 A 
ATOM     20  F2  <0> A   1     -21.634   1.167  53.172  0.00  0.00    -0.136 F 
ENDBRANCH   3  14
BRANCH   1  22
ATOM     21  C1  <0> A   1     -28.905  -4.082  49.406  0.00  0.00    +0.038 C 
ATOM     22  C2  <0> A   1     -28.525  -3.898  50.877  0.00  0.00    +0.043 C 
ATOM     23  C3  <0> A   1     -29.239  -4.954  51.725  0.00  0.00    +0.039 C 
ENDBRANCH   1  22
BRANCH   2  24
ATOM     24  C21 <0> A   1     -26.904  -1.654  51.704  0.00  0.00    +0.047 C 
ATOM     25  C22 <0> A   1     -27.028  -0.760  50.731  0.00  0.00    -0.010 C 
BRANCH  25  26
ATOM     26  C23 <0> A   1     -27.677   0.572  51.009  0.00  0.00    +0.242 C 
ATOM     27  C24 <0> A   1     -26.892   1.304  52.101  0.00  0.00    +0.050 C 
ATOM     28  C25 <0> A   1     -27.577   2.638  52.410  0.00  0.00    +0.186 C 
ATOM     29  C26 <0> A   1     -29.011   2.362  52.879  0.00  0.00    +0.024 C 
ATOM     30  C27 <0> A   1     -29.682   1.469  51.860  0.00  0.00    +0.498 C 
ATOM     31  O1  <0> A   1     -30.776   1.736  51.423  0.00  0.00    -0.450 OA
ATOM     32  O2  <0> A   1     -29.022   0.365  51.452  0.00  0.00    -0.369 OA
BRANCH  28  33
ATOM     33  O3  <0> A   1     -27.603   3.447  51.232  0.00  0.00    -0.564 OA
ATOM     34  H25 <0> A   1     -27.749   4.388  51.404  0.00  0.00    +0.387 HD
ENDBRANCH  28  33
ENDBRANCH  25  26
ENDBRANCH   2  24
TORSDOF 6
