REMARK  Name = CHEMBL253357
REMARK  15 active torsions:
REMARK  status: ('A' for Active; 'I' for Inactive)
REMARK    1  A    between atoms: C1_1  and  C2_2
REMARK    2  A    between atoms: C2_2  and  C3_3
REMARK    3  A    between atoms: C2_2  and  C4_4
REMARK    4  A    between atoms: C5_5  and  C25_30
REMARK    5  A    between atoms: N1_6  and  C19_23
REMARK    6  A    between atoms: C6_8  and  C7_9
REMARK    7  A    between atoms: C11_15  and  C13_17
REMARK    8  A    between atoms: C25_30  and  C26_31
REMARK    9  A    between atoms: C26_31  and  C27_32
REMARK   10  A    between atoms: C27_32  and  C28_34
REMARK   11  A    between atoms: C27_32  and  O5_42
REMARK   12  A    between atoms: C28_34  and  C29_35
REMARK   13  A    between atoms: C29_35  and  C30_37
REMARK   14  A    between atoms: C29_35  and  O4_41
REMARK   15  A    between atoms: C30_37  and  C31_38
REMARK                            x       y       z     vdW  Elec       q    Type
REMARK                         _______ _______ _______ _____ _____    ______ ____
ROOT
ATOM      1  C4  <0> A   1      -1.115  -0.552  -0.260  0.00  0.00    -0.148 C 
ATOM      2  C5  <0> A   1      -1.758  -1.394  -1.102  0.00  0.00    +0.037 C 
ATOM      3  N1  <0> A   1      -2.973  -1.657  -0.554  0.00  0.00    -0.241 N 
ATOM      4  N2  <0> A   1      -3.100  -1.030   0.560  0.00  0.00    -0.258 NA
ATOM      5  C6  <0> A   1      -2.008  -0.336   0.817  0.00  0.00    +0.011 C 
ENDROOT
BRANCH   5   6
ATOM      6  C7  <0> A   1      -1.764   0.509   2.002  0.00  0.00    +0.618 C 
ATOM      7  O1  <0> A   1      -1.821   1.720   1.907  0.00  0.00    -0.519 OA
ATOM      8  N3  <0> A   1      -1.479  -0.061   3.190  0.00  0.00    -0.602 N 
ATOM      9  C8  <0> A   1      -1.290  -1.514   3.296  0.00  0.00    +0.267 C 
ATOM     10  C9  <0> A   1      -2.221  -2.054   4.387  0.00  0.00    +0.014 C 
ATOM     11  C10 <0> A   1      -1.971  -1.290   5.689  0.00  0.00    +0.027 C 
ATOM     12  C11 <0> A   1      -2.281   0.194   5.480  0.00  0.00    +0.022 C 
ATOM     13  C12 <0> A   1      -1.345   0.760   4.401  0.00  0.00    +0.292 C 
BRANCH  12  14
ATOM     14  C13 <0> A   1      -2.065   0.940   6.772  0.00  0.00    -0.075 A 
ATOM     15  C14 <0> A   1      -0.817   0.945   7.367  0.00  0.00    +0.008 A 
ATOM     16  C15 <0> A   1      -0.619   1.629   8.552  0.00  0.00    +0.004 A 
ATOM     17  C16 <0> A   1      -1.669   2.308   9.141  0.00  0.00    -0.003 A 
ATOM     18  C17 <0> A   1      -2.917   2.303   8.546  0.00  0.00    +0.003 A 
ATOM     19  C18 <0> A   1      -3.114   1.623   7.359  0.00  0.00    +0.008 A 
ENDBRANCH  12  14
ENDBRANCH   5   6
BRANCH   3  20
ATOM     20  C19 <0> A   1      -3.946  -2.491  -1.121  0.00  0.00    +0.121 A 
ATOM     21  C20 <0> A   1      -3.583  -3.722  -1.652  0.00  0.00    +0.067 A 
ATOM     22  C21 <0> A   1      -4.543  -4.543  -2.211  0.00  0.00    +0.020 A 
ATOM     23  C22 <0> A   1      -5.867  -4.138  -2.242  0.00  0.00    +0.111 A 
ATOM     24  C23 <0> A   1      -6.231  -2.911  -1.713  0.00  0.00    +0.008 A 
ATOM     25  C24 <0> A   1      -5.275  -2.091  -1.148  0.00  0.00    +0.071 A 
ATOM     26  F1  <0> A   1      -6.805  -4.942  -2.788  0.00  0.00    -0.131 F 
ENDBRANCH   3  20
BRANCH   1  28
ATOM     27  C1  <0> A   1       0.164   1.545  -0.600  0.00  0.00    +0.030 C 
ATOM     28  C2  <0> A   1       0.266   0.028  -0.429  0.00  0.00    +0.062 C 
ATOM     29  C3  <0> A   1       1.108  -0.290   0.807  0.00  0.00    +0.024 C 
ENDBRANCH   1  28
BRANCH   2  30
ATOM     30  C25 <0> A   1      -1.227  -1.936  -2.404  0.00  0.00    +0.128 C 
BRANCH  30  31
ATOM     31  C26 <0> A   1      -1.717  -1.061  -3.559  0.00  0.00    -0.008 C 
BRANCH  31  32
ATOM     32  C27 <0> A   1      -1.269  -1.672  -4.888  0.00  0.00    +0.215 C 
BRANCH  32  33
ATOM     33  O5  <0> A   1      -1.910  -2.935  -5.073  0.00  0.00    -0.540 OA
ATOM     34  H37 <0> A   1      -2.876  -2.887  -5.092  0.00  0.00    +0.363 HD
ENDBRANCH  32  33
BRANCH  32  35
ATOM     35  C28 <0> A   1      -1.650  -0.734  -6.035  0.00  0.00    -0.052 C 
BRANCH  35  36
ATOM     36  C29 <0> A   1      -1.093  -1.283  -7.350  0.00  0.00    +0.231 C 
BRANCH  36  37
ATOM     37  O4  <0> A   1      -1.726  -2.528  -7.653  0.00  0.00    -0.528 OA
ATOM     38  H36 <0> A   1      -2.686  -2.466  -7.753  0.00  0.00    +0.350 HD
ENDBRANCH  36  37
BRANCH  36  39
ATOM     39  C30 <0> A   1      -1.366  -0.284  -8.477  0.00  0.00    -0.103 C 
BRANCH  39  40
ATOM     40  C31 <0> A   1      -0.711  -0.766  -9.745  0.00  0.00    +0.491 C 
ATOM     41  O2  <0> A   1      -0.084  -1.812  -9.748  0.00  0.00    -0.681 OA
ATOM     42  O3  <0> A   1      -0.808  -0.111 -10.769  0.00  0.00    -0.713 OA
ENDBRANCH  39  40
ENDBRANCH  36  39
ENDBRANCH  35  36
ENDBRANCH  32  35
ENDBRANCH  31  32
ENDBRANCH  30  31
ENDBRANCH   2  30
TORSDOF 13
