REMARK VINA RESULT:      -7.5      0.000      0.000
REMARK  Name = CHEMBL101774
REMARK  17 active torsions:
REMARK  status: ('A' for Active; 'I' for Inactive)
REMARK    1  A    between atoms: C1_1  and  C2_2
REMARK    2  A    between atoms: C4_4  and  C25_32
REMARK    3  A    between atoms: C5_5  and  O1_20
REMARK    4  A    between atoms: C6_6  and  C8_8
REMARK    5  A    between atoms: C8_8  and  C9_9
REMARK    6  A    between atoms: C8_8  and  C13_13
REMARK    7  A    between atoms: C9_9  and  C10_10
REMARK    8  A    between atoms: C10_10  and  C11_11
REMARK    9  A    between atoms: C10_10  and  C12_12
REMARK   10  A    between atoms: O1_20  and  C19_21
REMARK   11  A    between atoms: C19_21  and  C20_22
REMARK   12  A    between atoms: C20_22  and  C21_23
REMARK   13  A    between atoms: C20_22  and  O5_31
REMARK   14  A    between atoms: C21_23  and  C22_24
REMARK   15  A    between atoms: C22_24  and  C23_26
REMARK   16  A    between atoms: C22_24  and  O4_30
REMARK   17  A    between atoms: C23_26  and  C24_27
REMARK                            x       y       z     vdW  Elec       q    Type
REMARK                         _______ _______ _______ _____ _____    ______ ____
ROOT
ATOM      1  C1  <0> A   1     -17.387   7.799  47.968  0.00  0.00    +0.087 C 
ATOM      2  C2  <0> A   1     -16.388   7.394  46.915  0.00  0.00    -0.087 A 
ATOM      3  C3  <0> A   1     -16.717   6.422  45.988  0.00  0.00    +0.008 A 
ATOM      4  C4  <0> A   1     -15.804   6.048  45.023  0.00  0.00    -0.094 A 
ATOM      5  C5  <0> A   1     -14.554   6.651  44.982  0.00  0.00    +0.096 A 
ATOM      6  C6  <0> A   1     -14.226   7.627  45.912  0.00  0.00    -0.076 A 
ATOM      7  C7  <0> A   1     -15.146   7.999  46.874  0.00  0.00    +0.012 A 
ATOM      8  C25 <0> A   1     -16.163   4.988  44.013  0.00  0.00    +0.096 C 
ENDROOT
BRANCH   6   9
ATOM      9  C8  <0> A   1     -12.870   8.282  45.871  0.00  0.00    +0.088 C 
BRANCH   9  10
ATOM     10  C13 <0> A   1     -13.014   9.705  45.394  0.00  0.00    -0.080 A 
ATOM     11  C14 <0> A   1     -12.432  10.735  46.109  0.00  0.00    +0.044 A 
ATOM     12  C15 <0> A   1     -12.563  12.040  45.674  0.00  0.00    -0.018 A 
ATOM     13  C16 <0> A   1     -13.277  12.315  44.519  0.00  0.00    +0.093 A 
ATOM     14  C17 <0> A   1     -13.860  11.282  43.804  0.00  0.00    -0.009 A 
ATOM     15  C18 <0> A   1     -13.723   9.978  44.239  0.00  0.00    +0.046 A 
ATOM     16  F1  <0> A   1     -13.406  13.590  44.091  0.00  0.00    -0.141 F 
ENDBRANCH   9  10
BRANCH   9  17
ATOM     17  C9  <0> A   1     -12.257   8.273  47.273  0.00  0.00    +0.032 C 
BRANCH  17  18
ATOM     18  C10 <0> A   1     -11.054   7.329  47.297  0.00  0.00    -0.023 C 
ATOM     19  C11 <0> A   1     -11.534   5.897  47.544  0.00  0.00    +0.018 C 
ATOM     20  C12 <0> A   1     -10.325   7.397  45.954  0.00  0.00    +0.011 C 
ENDBRANCH  17  18
ENDBRANCH   9  17
ENDBRANCH   6   9
BRANCH   5  21
ATOM     21  O1  <0> A   1     -13.652   6.285  44.033  0.00  0.00    -0.317 OA
BRANCH  21  22
ATOM     22  C19 <0> A   1     -13.836   6.823  42.722  0.00  0.00    +0.144 C 
BRANCH  22  23
ATOM     23  C20 <0> A   1     -12.486   7.273  42.161  0.00  0.00    +0.224 C 
BRANCH  23  24
ATOM     24  O5  <0> A   1     -11.574   6.173  42.176  0.00  0.00    -0.531 OA
ATOM     25  H29 <0> A   1     -11.651   5.610  42.959  0.00  0.00    +0.363 HD
ENDBRANCH  23  24
BRANCH  23  26
ATOM     26  C21 <0> A   1     -12.669   7.764  40.723  0.00  0.00    -0.044 C 
BRANCH  26  27
ATOM     27  C22 <0> A   1     -12.867   9.281  40.724  0.00  0.00    +0.235 C 
BRANCH  27  28
ATOM     28  O4  <0> A   1     -11.799   9.900  41.445  0.00  0.00    -0.527 OA
ATOM     29  H28 <0> A   1     -11.995  10.798  41.746  0.00  0.00    +0.350 HD
ENDBRANCH  27  28
BRANCH  27  30
ATOM     30  C23 <0> A   1     -12.874   9.795  39.284  0.00  0.00    -0.101 C 
BRANCH  30  31
ATOM     31  C24 <0> A   1     -13.051  11.292  39.285  0.00  0.00    +0.491 C 
ATOM     32  O2  <0> A   1     -13.943  11.800  39.943  0.00  0.00    -0.680 OA
ATOM     33  O3  <0> A   1     -12.302  11.995  38.628  0.00  0.00    -0.713 OA
ENDBRANCH  30  31
ENDBRANCH  27  30
ENDBRANCH  26  27
ENDBRANCH  23  26
ENDBRANCH  22  23
ENDBRANCH  21  22
ENDBRANCH   5  21
TORSDOF 13
