REMARK VINA RESULT:      -6.5     19.654     22.558
REMARK  Name = CHEMBL101633
REMARK  11 active torsions:
REMARK  status: ('A' for Active; 'I' for Inactive)
REMARK    1  A    between atoms: C5_5  and  O1_14
REMARK    2  A    between atoms: C6_6  and  C7_7
REMARK    3  A    between atoms: C7_7  and  C8_8
REMARK    4  A    between atoms: O1_14  and  C14_15
REMARK    5  A    between atoms: C14_15  and  C15_16
REMARK    6  A    between atoms: C15_16  and  C16_17
REMARK    7  A    between atoms: C15_16  and  O5_25
REMARK    8  A    between atoms: C16_17  and  C17_18
REMARK    9  A    between atoms: C17_18  and  C18_20
REMARK   10  A    between atoms: C17_18  and  O4_24
REMARK   11  A    between atoms: C18_20  and  C19_21
REMARK                            x       y       z     vdW  Elec       q    Type
REMARK                         _______ _______ _______ _____ _____    ______ ____
ROOT
ATOM      1  C1  <0> A   1     -24.084   0.364  50.689  0.00  0.00    +0.051 A 
ATOM      2  C2  <0> A   1     -22.827   0.302  51.261  0.00  0.00    -0.030 A 
ATOM      3  C3  <0> A   1     -22.302  -0.917  51.652  0.00  0.00    +0.047 A 
ATOM      4  C4  <0> A   1     -23.034  -2.076  51.469  0.00  0.00    -0.047 A 
ATOM      5  C5  <0> A   1     -24.295  -2.015  50.894  0.00  0.00    +0.117 A 
ATOM      6  C6  <0> A   1     -24.819  -0.791  50.504  0.00  0.00    -0.069 A 
ATOM      7 Cl1  <0> A   1     -22.373  -3.605  51.958  0.00  0.00    -0.041 Cl
ATOM      8 Cl2  <0> A   1     -21.906   1.755  51.492  0.00  0.00    -0.058 Cl
ENDROOT
BRANCH   6   9
ATOM      9  C7  <0> A   1     -26.189  -0.722  49.880  0.00  0.00    +0.085 C 
BRANCH   9  10
ATOM     10  C8  <0> A   1     -27.158  -0.049  50.855  0.00  0.00    +0.002 C 
ATOM     11  C9  <0> A   1     -28.322  -0.997  51.154  0.00  0.00    +0.006 C 
ATOM     12  C10 <0> A   1     -29.291  -0.324  52.128  0.00  0.00    +0.000 C 
ATOM     13  C11 <0> A   1     -29.830   0.965  51.503  0.00  0.00    -0.001 C 
ATOM     14  C12 <0> A   1     -28.666   1.912  51.205  0.00  0.00    +0.005 C 
ATOM     15  C13 <0> A   1     -27.696   1.239  50.231  0.00  0.00    +0.013 C 
ENDBRANCH   9  10
ENDBRANCH   6   9
BRANCH   5  16
ATOM     16  O1  <0> A   1     -25.017  -3.153  50.714  0.00  0.00    -0.307 OA
BRANCH  16  17
ATOM     17  C14 <0> A   1     -25.806  -3.603  51.816  0.00  0.00    +0.152 C 
BRANCH  17  18
ATOM     18  C15 <0> A   1     -26.665  -4.790  51.377  0.00  0.00    +0.227 C 
BRANCH  18  19
ATOM     19  O5  <0> A   1     -26.887  -4.723  49.967  0.00  0.00    -0.529 OA
ATOM     20  H25 <0> A   1     -27.814  -4.818  49.710  0.00  0.00    +0.364 HD
ENDBRANCH  18  19
BRANCH  18  21
ATOM     21  C16 <0> A   1     -25.944  -6.095  51.718  0.00  0.00    -0.043 C 
BRANCH  21  22
ATOM     22  C17 <0> A   1     -25.452  -6.758  50.430  0.00  0.00    +0.235 C 
BRANCH  22  23
ATOM     23  O4  <0> A   1     -24.216  -6.163  50.030  0.00  0.00    -0.527 OA
ATOM     24  H24 <0> A   1     -24.271  -5.658  49.207  0.00  0.00    +0.351 HD
ENDBRANCH  22  23
BRANCH  22  25
ATOM     25  C18 <0> A   1     -25.244  -8.254  50.673  0.00  0.00    -0.101 C 
BRANCH  25  26
ATOM     26  C19 <0> A   1     -23.774  -8.532  50.857  0.00  0.00    +0.490 C 
ATOM     27  O2  <0> A   1     -23.245  -8.330  51.937  0.00  0.00    -0.680 OA
ATOM     28  O3  <0> A   1     -23.112  -8.959  49.926  0.00  0.00    -0.713 OA
ENDBRANCH  25  26
ENDBRANCH  22  25
ENDBRANCH  21  22
ENDBRANCH  18  21
ENDBRANCH  17  18
ENDBRANCH  16  17
ENDBRANCH   5  16
TORSDOF 11
