REMARK VINA RESULT:      -6.7     16.087     18.276
REMARK  Name = CHEMBL39312
REMARK  12 active torsions:
REMARK  status: ('A' for Active; 'I' for Inactive)
REMARK    1  A    between atoms: C4_4  and  C7_7
REMARK    2  A    between atoms: C7_7  and  O1_8
REMARK    3  A    between atoms: O1_8  and  C8_9
REMARK    4  A    between atoms: C13_14  and  C14_15
REMARK    5  A    between atoms: C14_15  and  C15_16
REMARK    6  A    between atoms: C15_16  and  C16_17
REMARK    7  A    between atoms: C16_17  and  C17_19
REMARK    8  A    between atoms: C16_17  and  O5_27
REMARK    9  A    between atoms: C17_19  and  C18_20
REMARK   10  A    between atoms: C18_20  and  C19_22
REMARK   11  A    between atoms: C18_20  and  O4_26
REMARK   12  A    between atoms: C19_22  and  C20_23
REMARK                            x       y       z     vdW  Elec       q    Type
REMARK                         _______ _______ _______ _____ _____    ______ ____
ROOT
ATOM      1  C8  <0> A   1     -24.686  -3.785  50.932  0.00  0.00    +0.159 A 
ATOM      2  C9  <0> A   1     -26.066  -3.804  50.797  0.00  0.00    -0.056 A 
ATOM      3  C10 <0> A   1     -26.746  -2.642  50.481  0.00  0.00    +0.009 A 
ATOM      4  C11 <0> A   1     -26.049  -1.460  50.300  0.00  0.00    +0.006 A 
ATOM      5  C12 <0> A   1     -24.672  -1.438  50.434  0.00  0.00    +0.011 A 
ATOM      6  C13 <0> A   1     -23.989  -2.598  50.755  0.00  0.00    -0.094 A 
ATOM      7 Cl1  <0> A   1     -23.801   0.045  50.205  0.00  0.00    -0.040 Cl
ATOM      8 Cl2  <0> A   1     -28.472  -2.666  50.311  0.00  0.00    -0.057 Cl
ENDROOT
BRANCH   1   9
ATOM      9  O1  <0> A   1     -24.016  -4.926  51.242  0.00  0.00    -0.289 OA
BRANCH   9  10
ATOM     10  C7  <0> A   1     -24.795  -6.027  51.717  0.00  0.00    +0.246 C 
BRANCH  10  14
ATOM     11  C1  <0> A   1     -23.478  -9.623  49.825  0.00  0.00    +0.019 A 
ATOM     12  C2  <0> A   1     -23.522  -9.544  51.205  0.00  0.00    +0.003 A 
ATOM     13  C3  <0> A   1     -23.947  -8.380  51.817  0.00  0.00    +0.030 A 
ATOM     14  C4  <0> A   1     -24.329  -7.295  51.050  0.00  0.00    -0.099 A 
ATOM     15  C5  <0> A   1     -24.286  -7.375  49.670  0.00  0.00    +0.031 A 
ATOM     16  C6  <0> A   1     -23.861  -8.539  49.058  0.00  0.00    +0.005 A 
ENDBRANCH  10  14
ENDBRANCH   9  10
ENDBRANCH   1   9
BRANCH   6  17
ATOM     17  C14 <0> A   1     -22.491  -2.573  50.909  0.00  0.00    +0.097 C 
BRANCH  17  18
ATOM     18  C15 <0> A   1     -22.126  -1.941  52.254  0.00  0.00    -0.007 C 
BRANCH  18  19
ATOM     19  C16 <0> A   1     -21.561  -3.016  53.185  0.00  0.00    +0.211 C 
BRANCH  19  20
ATOM     20  O5  <0> A   1     -21.647  -4.292  52.547  0.00  0.00    -0.540 OA
ATOM     21  H21 <0> A   1     -22.479  -4.758  52.709  0.00  0.00    +0.364 HD
ENDBRANCH  19  20
BRANCH  19  22
ATOM     22  C17 <0> A   1     -20.097  -2.700  53.499  0.00  0.00    -0.053 C 
BRANCH  22  23
ATOM     23  C18 <0> A   1     -19.805  -3.037  54.962  0.00  0.00    +0.230 C 
BRANCH  23  24
ATOM     24  O4  <0> A   1     -20.937  -3.696  55.534  0.00  0.00    -0.528 OA
ATOM     25  H20 <0> A   1     -21.719  -3.696  54.966  0.00  0.00    +0.349 HD
ENDBRANCH  23  24
BRANCH  23  26
ATOM     26  C19 <0> A   1     -18.585  -3.957  55.040  0.00  0.00    -0.103 C 
BRANCH  26  27
ATOM     27  C20 <0> A   1     -18.852  -5.214  54.254  0.00  0.00    +0.490 C 
ATOM     28  O2  <0> A   1     -19.800  -5.924  54.543  0.00  0.00    -0.681 OA
ATOM     29  O3  <0> A   1     -18.121  -5.522  53.330  0.00  0.00    -0.714 OA
ENDBRANCH  26  27
ENDBRANCH  23  26
ENDBRANCH  22  23
ENDBRANCH  19  22
ENDBRANCH  18  19
ENDBRANCH  17  18
ENDBRANCH   6  17
TORSDOF 12
