REMARK VINA RESULT:      -7.0      1.371      2.131
REMARK  Name = CHEMBL333904
REMARK  15 active torsions:
REMARK  status: ('A' for Active; 'I' for Inactive)
REMARK    1  A    between atoms: C1_1  and  C2_2
REMARK    2  A    between atoms: C2_2  and  C3_3
REMARK    3  A    between atoms: C2_2  and  C4_4
REMARK    4  A    between atoms: C6_6  and  C22_30
REMARK    5  A    between atoms: C7_7  and  C16_23
REMARK    6  A    between atoms: N1_8  and  C8_9
REMARK    7  A    between atoms: C9_10  and  C10_11
REMARK    8  A    between atoms: C10_11  and  C11_13
REMARK    9  A    between atoms: C10_11  and  O4_22
REMARK   10  A    between atoms: C11_13  and  C12_14
REMARK   11  A    between atoms: C12_14  and  C13_16
REMARK   12  A    between atoms: C12_14  and  O3_21
REMARK   13  A    between atoms: C13_16  and  C14_17
REMARK   14  A    between atoms: C14_17  and  O2_19
REMARK   15  A    between atoms: O2_19  and  C15_20
REMARK                            x       y       z     vdW  Elec       q    Type
REMARK                         _______ _______ _______ _____ _____    ______ ____
ROOT
ATOM      1  C4  <0> A   1     -15.267   6.116  46.293  0.00  0.00    +0.043 C 
ATOM      2  C5  <0> A   1     -15.811   6.549  47.446  0.00  0.00    -0.020 C 
ATOM      3  C6  <0> A   1     -15.328   7.859  47.684  0.00  0.00    -0.112 C 
ATOM      4  C7  <0> A   1     -14.484   8.173  46.630  0.00  0.00    +0.072 C 
ATOM      5  N1  <0> A   1     -14.453   7.091  45.789  0.00  0.00    -0.389 N 
ENDROOT
BRANCH   4   6
ATOM      6  C16 <0> A   1     -13.748   9.440  46.449  0.00  0.00    -0.034 A 
ATOM      7  C17 <0> A   1     -14.422  10.589  46.028  0.00  0.00    +0.056 A 
ATOM      8  C18 <0> A   1     -13.730  11.770  45.863  0.00  0.00    -0.011 A 
ATOM      9  C19 <0> A   1     -12.367  11.818  46.113  0.00  0.00    +0.106 A 
ATOM     10  C20 <0> A   1     -11.693  10.682  46.531  0.00  0.00    -0.010 A 
ATOM     11  C21 <0> A   1     -12.376   9.497  46.705  0.00  0.00    +0.069 A 
ATOM     12  F1  <0> A   1     -11.694  12.978  45.949  0.00  0.00    -0.136 F 
ENDBRANCH   4   6
BRANCH   3  13
ATOM     13  C22 <0> A   1     -15.660   8.726  48.836  0.00  0.00    +0.041 A 
ATOM     14  C23 <0> A   1     -16.856   9.453  48.867  0.00  0.00    -0.031 A 
ATOM     15  C24 <0> A   1     -17.125  10.249  49.960  0.00  0.00    +0.255 A 
ATOM     16  N2  <0> A   1     -16.274  10.331  50.966  0.00  0.00    -0.490 NA
ATOM     17  C25 <0> A   1     -15.136   9.663  50.976  0.00  0.00    +0.255 A 
ATOM     18  C26 <0> A   1     -14.790   8.838  49.926  0.00  0.00    -0.031 A 
ENDBRANCH   3  13
BRANCH   1  20
ATOM     19  C1  <0> A   1     -16.290   4.947  44.359  0.00  0.00    +0.041 C 
ATOM     20  C2  <0> A   1     -15.511   4.768  45.664  0.00  0.00    +0.050 C 
ATOM     21  C3  <0> A   1     -14.169   4.093  45.368  0.00  0.00    +0.033 C 
ENDBRANCH   1  20
BRANCH   5  22
ATOM     22  C8  <0> A   1     -13.717   7.002  44.608  0.00  0.00    +0.201 C 
ATOM     23  C9  <0> A   1     -14.040   7.748  43.570  0.00  0.00    -0.056 C 
BRANCH  23  24
ATOM     24  C10 <0> A   1     -13.243   7.653  42.295  0.00  0.00    +0.268 C 
BRANCH  24  25
ATOM     25  O4  <0> A   1     -13.804   6.640  41.458  0.00  0.00    -0.538 OA
ATOM     26  H21 <0> A   1     -13.954   5.796  41.905  0.00  0.00    +0.370 HD
ENDBRANCH  24  25
BRANCH  24  27
ATOM     27  C11 <0> A   1     -13.285   8.997  41.566  0.00  0.00    -0.015 C 
BRANCH  27  28
ATOM     28  C12 <0> A   1     -13.312  10.133  42.591  0.00  0.00    +0.233 C 
BRANCH  28  29
ATOM     29  O3  <0> A   1     -12.022  10.742  42.661  0.00  0.00    -0.530 OA
ATOM     30  H20 <0> A   1     -11.604  10.876  41.799  0.00  0.00    +0.366 HD
ENDBRANCH  28  29
BRANCH  28  31
ATOM     31  C13 <0> A   1     -14.347  11.177  42.169  0.00  0.00    +0.073 C 
BRANCH  31  32
ATOM     32  C14 <0> A   1     -14.191  11.475  40.700  0.00  0.00    +0.456 C 
ATOM     33  O1  <0> A   1     -15.141  11.379  39.960  0.00  0.00    -0.486 OA
BRANCH  32  34
ATOM     34  O2  <0> A   1     -12.997  11.849  40.215  0.00  0.00    -0.359 OA
ATOM     35  C15 <0> A   1     -12.608  11.298  38.954  0.00  0.00    +0.258 C 
ENDBRANCH  32  34
ENDBRANCH  31  32
ENDBRANCH  28  31
ENDBRANCH  27  28
ENDBRANCH  24  27
ENDBRANCH  23  24
ENDBRANCH   5  22
TORSDOF 12
