REMARK VINA RESULT:      -7.6     17.151     21.938
REMARK  Name = CHEMBL329307
REMARK  14 active torsions:
REMARK  status: ('A' for Active; 'I' for Inactive)
REMARK    1  A    between atoms: C1_1  and  C2_2
REMARK    2  A    between atoms: C2_2  and  C3_3
REMARK    3  A    between atoms: C2_2  and  C4_4
REMARK    4  A    between atoms: C6_6  and  C22_29
REMARK    5  A    between atoms: C8_8  and  C16_22
REMARK    6  A    between atoms: C9_9  and  O1_10
REMARK    7  A    between atoms: O1_10  and  C10_11
REMARK    8  A    between atoms: C10_11  and  C11_12
REMARK    9  A    between atoms: C11_12  and  C12_13
REMARK   10  A    between atoms: C11_12  and  O5_21
REMARK   11  A    between atoms: C12_13  and  C13_14
REMARK   12  A    between atoms: C13_14  and  C14_16
REMARK   13  A    between atoms: C13_14  and  O4_20
REMARK   14  A    between atoms: C14_16  and  C15_17
REMARK                            x       y       z     vdW  Elec       q    Type
REMARK                         _______ _______ _______ _____ _____    ______ ____
ROOT
ATOM      1  C4  <0> A   1     -27.249  -5.141  51.956  0.00  0.00    -0.085 A 
ATOM      2  C5  <0> A   1     -26.530  -3.965  51.891  0.00  0.00    +0.040 A 
ATOM      3  C6  <0> A   1     -25.230  -3.966  51.389  0.00  0.00    -0.052 A 
ATOM      4  C7  <0> A   1     -24.653  -5.155  50.951  0.00  0.00    +0.043 A 
ATOM      5  C8  <0> A   1     -25.380  -6.339  51.017  0.00  0.00    -0.059 A 
ATOM      6  C9  <0> A   1     -26.682  -6.330  51.528  0.00  0.00    +0.119 A 
ENDROOT
BRANCH   5   7
ATOM      7  C16 <0> A   1     -24.772  -7.611  50.551  0.00  0.00    -0.061 A 
ATOM      8  C17 <0> A   1     -24.182  -8.480  51.467  0.00  0.00    +0.083 A 
ATOM      9  C18 <0> A   1     -23.618  -9.661  51.030  0.00  0.00    -0.013 A 
ATOM     10  C19 <0> A   1     -23.638  -9.983  49.682  0.00  0.00    +0.104 A 
ATOM     11  C20 <0> A   1     -24.222  -9.121  48.769  0.00  0.00    -0.020 A 
ATOM     12  C21 <0> A   1     -24.794  -7.941  49.198  0.00  0.00    +0.052 A 
ATOM     13  F1  <0> A   1     -23.083 -11.140  49.259  0.00  0.00    -0.138 F 
ENDBRANCH   5   7
BRANCH   3  14
ATOM     14  C22 <0> A   1     -24.460  -2.700  51.320  0.00  0.00    -0.047 A 
ATOM     15  C23 <0> A   1     -23.312  -2.536  52.092  0.00  0.00    +0.053 A 
ATOM     16  C24 <0> A   1     -22.599  -1.356  52.024  0.00  0.00    -0.011 A 
ATOM     17  C25 <0> A   1     -23.023  -0.336  51.189  0.00  0.00    +0.096 A 
ATOM     18  C26 <0> A   1     -24.164  -0.494  50.419  0.00  0.00    -0.011 A 
ATOM     19  C27 <0> A   1     -24.880  -1.672  50.477  0.00  0.00    +0.053 A 
ATOM     20  F2  <0> A   1     -22.322   0.818  51.125  0.00  0.00    -0.140 F 
ENDBRANCH   3  14
BRANCH   1  22
ATOM     21  C1  <0> A   1     -28.694  -5.903  53.822  0.00  0.00    +0.030 C 
ATOM     22  C2  <0> A   1     -28.655  -5.132  52.501  0.00  0.00    +0.033 C 
ATOM     23  C3  <0> A   1     -29.100  -3.688  52.739  0.00  0.00    +0.025 C 
ENDBRANCH   1  22
BRANCH   6  24
ATOM     24  O1  <0> A   1     -27.392  -7.486  51.599  0.00  0.00    -0.316 OA
BRANCH  24  25
ATOM     25  C10 <0> A   1     -28.196  -7.824  50.467  0.00  0.00    +0.151 C 
BRANCH  25  26
ATOM     26  C11 <0> A   1     -28.706  -9.259  50.615  0.00  0.00    +0.225 C 
BRANCH  26  27
ATOM     27  O5  <0> A   1     -27.594 -10.154  50.699  0.00  0.00    -0.531 OA
ATOM     28  H19 <0> A   1     -27.840 -11.069  50.888  0.00  0.00    +0.363 HD
ENDBRANCH  26  27
BRANCH  26  29
ATOM     29  C12 <0> A   1     -29.550  -9.373  51.885  0.00  0.00    -0.043 C 
BRANCH  29  30
ATOM     30  C13 <0> A   1     -30.564 -10.507  51.724  0.00  0.00    +0.235 C 
BRANCH  30  31
ATOM     31  O4  <0> A   1     -30.356 -11.157  50.468  0.00  0.00    -0.526 OA
ATOM     32  H18 <0> A   1     -31.066 -11.762  50.217  0.00  0.00    +0.350 HD
ENDBRANCH  30  31
BRANCH  30  33
ATOM     33  C14 <0> A   1     -30.382 -11.518  52.859  0.00  0.00    -0.101 C 
BRANCH  33  34
ATOM     34  C15 <0> A   1     -29.627 -12.718  52.346  0.00  0.00    +0.491 C 
ATOM     35  O2  <0> A   1     -30.216 -13.765  52.139  0.00  0.00    -0.680 OA
ATOM     36  O3  <0> A   1     -28.428 -12.641  52.140  0.00  0.00    -0.713 OA
ENDBRANCH  33  34
ENDBRANCH  30  33
ENDBRANCH  29  30
ENDBRANCH  26  29
ENDBRANCH  25  26
ENDBRANCH  24  25
ENDBRANCH   6  24
TORSDOF 12
