REMARK VINA RESULT:      -7.5      2.990      6.425
REMARK  Name = CHEMBL300495
REMARK  6 active torsions:
REMARK  status: ('A' for Active; 'I' for Inactive)
REMARK    1  A    between atoms: C4_4  and  C7_7
REMARK    2  A    between atoms: C7_7  and  C8_8
REMARK    3  A    between atoms: C13_13  and  C14_14
REMARK    4  A    between atoms: C14_14  and  C15_15
REMARK    5  A    between atoms: C15_15  and  C16_16
REMARK    6  A    between atoms: C18_18  and  O3_24
REMARK                            x       y       z     vdW  Elec       q    Type
REMARK                         _______ _______ _______ _____ _____    ______ ____
ROOT
ATOM      1  C8  <0> A   1     -28.817  23.843  36.149  0.00  0.00    -0.048 A 
ATOM      2  C9  <0> A   1     -28.425  25.021  36.757  0.00  0.00    +0.045 A 
ATOM      3  C10 <0> A   1     -29.376  25.929  37.184  0.00  0.00    -0.024 A 
ATOM      4  C11 <0> A   1     -30.722  25.659  37.003  0.00  0.00    +0.039 A 
ATOM      5  C12 <0> A   1     -31.113  24.480  36.394  0.00  0.00    -0.021 A 
ATOM      6  C13 <0> A   1     -30.161  23.575  35.962  0.00  0.00    -0.068 A 
ATOM      7 Cl1  <0> A   1     -32.800  24.140  36.166  0.00  0.00    -0.053 Cl
ATOM      8 Cl2  <0> A   1     -28.884  27.408  37.949  0.00  0.00    -0.057 Cl
ENDROOT
BRANCH   1   9
ATOM      9  C7  <0> A   1     -27.780  22.854  35.684  0.00  0.00    +0.148 C 
BRANCH   9  13
ATOM     10  C1  <0> A   1     -25.823  24.376  32.205  0.00  0.00    +0.002 A 
ATOM     11  C2  <0> A   1     -27.037  23.725  32.086  0.00  0.00    +0.005 A 
ATOM     12  C3  <0> A   1     -27.670  23.234  33.212  0.00  0.00    +0.008 A 
ATOM     13  C4  <0> A   1     -27.089  23.390  34.456  0.00  0.00    -0.086 A 
ATOM     14  C5  <0> A   1     -25.875  24.040  34.576  0.00  0.00    +0.008 A 
ATOM     15  C6  <0> A   1     -25.243  24.534  33.450  0.00  0.00    +0.006 A 
ENDBRANCH   9  13
ENDBRANCH   1   9
BRANCH   6  16
ATOM     16  C14 <0> A   1     -30.587  22.294  35.293  0.00  0.00    +0.086 C 
BRANCH  16  17
ATOM     17  C15 <0> A   1     -31.033  22.590  33.859  0.00  0.00    +0.062 C 
BRANCH  17  18
ATOM     18  C16 <0> A   1     -31.743  21.365  33.282  0.00  0.00    +0.199 C 
ATOM     19  C17 <0> A   1     -33.057  21.136  34.033  0.00  0.00    +0.042 C 
ATOM     20  C18 <0> A   1     -33.747  19.884  33.480  0.00  0.00    +0.184 C 
ATOM     21  C19 <0> A   1     -32.813  18.681  33.665  0.00  0.00    +0.021 C 
ATOM     22  C20 <0> A   1     -31.462  19.034  33.080  0.00  0.00    +0.496 C 
ATOM     23  O1  <0> A   1     -30.899  18.283  32.320  0.00  0.00    -0.452 OA
ATOM     24  O2  <0> A   1     -30.906  20.213  33.431  0.00  0.00    -0.368 OA
BRANCH  20  25
ATOM     25  O3  <0> A   1     -34.028  20.067  32.091  0.00  0.00    -0.564 OA
ATOM     26  H20 <0> A   1     -33.248  20.268  31.556  0.00  0.00    +0.387 HD
ENDBRANCH  20  25
ENDBRANCH  17  18
ENDBRANCH  16  17
ENDBRANCH   6  16
TORSDOF 6
