REMARK VINA RESULT:      -7.7     14.510     17.916
REMARK  Name = CHEMBL329307
REMARK  14 active torsions:
REMARK  status: ('A' for Active; 'I' for Inactive)
REMARK    1  A    between atoms: C1_1  and  C2_2
REMARK    2  A    between atoms: C2_2  and  C3_3
REMARK    3  A    between atoms: C2_2  and  C4_4
REMARK    4  A    between atoms: C6_6  and  C22_29
REMARK    5  A    between atoms: C8_8  and  C16_22
REMARK    6  A    between atoms: C9_9  and  O1_10
REMARK    7  A    between atoms: O1_10  and  C10_11
REMARK    8  A    between atoms: C10_11  and  C11_12
REMARK    9  A    between atoms: C11_12  and  C12_13
REMARK   10  A    between atoms: C11_12  and  O5_21
REMARK   11  A    between atoms: C12_13  and  C13_14
REMARK   12  A    between atoms: C13_14  and  C14_16
REMARK   13  A    between atoms: C13_14  and  O4_20
REMARK   14  A    between atoms: C14_16  and  C15_17
REMARK                            x       y       z     vdW  Elec       q    Type
REMARK                         _______ _______ _______ _____ _____    ______ ____
ROOT
ATOM      1  C4  <0> A   1     -27.168  -4.294  50.286  0.00  0.00    -0.085 A 
ATOM      2  C5  <0> A   1     -26.612  -5.543  50.095  0.00  0.00    +0.040 A 
ATOM      3  C6  <0> A   1     -25.273  -5.769  50.412  0.00  0.00    -0.052 A 
ATOM      4  C7  <0> A   1     -24.494  -4.735  50.923  0.00  0.00    +0.043 A 
ATOM      5  C8  <0> A   1     -25.056  -3.478  51.116  0.00  0.00    -0.059 A 
ATOM      6  C9  <0> A   1     -26.398  -3.257  50.789  0.00  0.00    +0.119 A 
ENDROOT
BRANCH   5   7
ATOM      7  C16 <0> A   1     -24.232  -2.370  51.660  0.00  0.00    -0.061 A 
ATOM      8  C17 <0> A   1     -24.259  -2.085  53.024  0.00  0.00    +0.083 A 
ATOM      9  C18 <0> A   1     -23.491  -1.054  53.527  0.00  0.00    -0.013 A 
ATOM     10  C19 <0> A   1     -22.694  -0.304  52.677  0.00  0.00    +0.104 A 
ATOM     11  C20 <0> A   1     -22.666  -0.583  51.321  0.00  0.00    -0.020 A 
ATOM     12  C21 <0> A   1     -23.425  -1.616  50.811  0.00  0.00    +0.052 A 
ATOM     13  F1  <0> A   1     -21.945   0.705  53.173  0.00  0.00    -0.138 F 
ENDBRANCH   5   7
BRANCH   3  14
ATOM     14  C22 <0> A   1     -24.679  -7.113  50.206  0.00  0.00    -0.047 A 
ATOM     15  C23 <0> A   1     -24.728  -7.714  48.950  0.00  0.00    +0.053 A 
ATOM     16  C24 <0> A   1     -24.173  -8.964  48.762  0.00  0.00    -0.011 A 
ATOM     17  C25 <0> A   1     -23.569  -9.621  49.821  0.00  0.00    +0.096 A 
ATOM     18  C26 <0> A   1     -23.519  -9.027  51.073  0.00  0.00    -0.011 A 
ATOM     19  C27 <0> A   1     -24.065  -7.776  51.267  0.00  0.00    +0.053 A 
ATOM     20  F2  <0> A   1     -23.028 -10.844  49.634  0.00  0.00    -0.140 F 
ENDBRANCH   3  14
BRANCH   1  22
ATOM     21  C1  <0> A   1     -28.815  -4.226  48.433  0.00  0.00    +0.030 C 
ATOM     22  C2  <0> A   1     -28.616  -4.056  49.941  0.00  0.00    +0.033 C 
ATOM     23  C3  <0> A   1     -29.491  -5.065  50.688  0.00  0.00    +0.025 C 
ENDBRANCH   1  22
BRANCH   6  24
ATOM     24  O1  <0> A   1     -26.949  -2.029  50.970  0.00  0.00    -0.316 OA
BRANCH  24  25
ATOM     25  C10 <0> A   1     -26.829  -1.098  49.893  0.00  0.00    +0.151 C 
BRANCH  25  26
ATOM     26  C11 <0> A   1     -26.652   0.314  50.455  0.00  0.00    +0.225 C 
BRANCH  26  27
ATOM     27  O5  <0> A   1     -27.620   1.186  49.866  0.00  0.00    -0.531 OA
ATOM     28  H19 <0> A   1     -28.534   0.897  49.988  0.00  0.00    +0.363 HD
ENDBRANCH  26  27
BRANCH  26  29
ATOM     29  C12 <0> A   1     -26.845   0.287  51.972  0.00  0.00    -0.043 C 
BRANCH  29  30
ATOM     30  C13 <0> A   1     -26.059   1.435  52.607  0.00  0.00    +0.235 C 
BRANCH  30  31
ATOM     31  O4  <0> A   1     -25.361   2.154  51.588  0.00  0.00    -0.526 OA
ATOM     32  H18 <0> A   1     -25.011   1.595  50.882  0.00  0.00    +0.350 HD
ENDBRANCH  30  31
BRANCH  30  33
ATOM     33  C14 <0> A   1     -27.026   2.378  53.327  0.00  0.00    -0.101 C 
BRANCH  33  34
ATOM     34  C15 <0> A   1     -27.289   3.583  52.462  0.00  0.00    +0.491 C 
ATOM     35  O2  <0> A   1     -28.073   3.506  51.531  0.00  0.00    -0.680 OA
ATOM     36  O3  <0> A   1     -26.718   4.636  52.692  0.00  0.00    -0.713 OA
ENDBRANCH  33  34
ENDBRANCH  30  33
ENDBRANCH  29  30
ENDBRANCH  26  29
ENDBRANCH  25  26
ENDBRANCH  24  25
ENDBRANCH   6  24
TORSDOF 12
