REMARK VINA RESULT:      -8.2     22.167     25.867
REMARK  Name = CHEMBL352558
REMARK  9 active torsions:
REMARK  status: ('A' for Active; 'I' for Inactive)
REMARK    1  A    between atoms: C1_1  and  C2_2
REMARK    2  A    between atoms: C4_5  and  O4_28
REMARK    3  A    between atoms: C6_8  and  C13_17
REMARK    4  A    between atoms: C7_10  and  C12_16
REMARK    5  A    between atoms: C13_17  and  C14_18
REMARK    6  A    between atoms: C14_18  and  C15_19
REMARK    7  A    between atoms: C17_21  and  O3_27
REMARK    8  A    between atoms: O4_28  and  C20_29
REMARK    9  A    between atoms: C20_29  and  C21_31
REMARK                            x       y       z     vdW  Elec       q    Type
REMARK                         _______ _______ _______ _____ _____    ______ ____
ROOT
ATOM      1  C1  <0> A   1     -29.985  -0.843  52.005  0.00  0.00    +0.032 C 
ATOM      2  C2  <0> A   1     -28.748  -1.245  51.200  0.00  0.00    +0.024 C 
ATOM      3  C3  <0> A   1     -28.663  -2.775  51.107  0.00  0.00    +0.018 C 
ATOM      4  C4  <0> A   1     -27.433  -3.140  50.277  0.00  0.00    +0.173 C 
ATOM      5  C5  <0> A   1     -26.162  -2.594  50.883  0.00  0.00    +0.044 C 
ATOM      6  C6  <0> A   1     -25.409  -3.656  51.686  0.00  0.00    +0.011 C 
ATOM      7  C7  <0> A   1     -24.035  -3.101  52.066  0.00  0.00    +0.022 C 
ATOM      8  C8  <0> A   1     -24.139  -1.741  52.685  0.00  0.00    -0.033 C 
ATOM      9  C9  <0> A   1     -25.185  -0.944  52.551  0.00  0.00    -0.006 C 
ATOM     10  C10 <0> A   1     -26.355  -1.393  51.761  0.00  0.00    -0.087 C 
ATOM     11  C11 <0> A   1     -27.504  -0.756  51.895  0.00  0.00    -0.023 C 
ATOM     12  C12 <0> A   1     -23.168  -3.011  50.808  0.00  0.00    +0.030 C 
ENDROOT
BRANCH   6  13
ATOM     13  C13 <0> A   1     -25.239  -4.918  50.837  0.00  0.00    +0.063 C 
BRANCH  13  14
ATOM     14  C14 <0> A   1     -25.087  -6.133  51.754  0.00  0.00    +0.035 C 
BRANCH  14  15
ATOM     15  C15 <0> A   1     -24.906  -7.393  50.905  0.00  0.00    +0.195 C 
ATOM     16  C16 <0> A   1     -24.119  -8.436  51.701  0.00  0.00    +0.036 C 
ATOM     17  C17 <0> A   1     -23.904  -9.681  50.833  0.00  0.00    +0.182 C 
ATOM     18  C18 <0> A   1     -23.130  -9.278  49.571  0.00  0.00    +0.015 C 
ATOM     19  C19 <0> A   1     -23.845  -8.110  48.928  0.00  0.00    +0.495 C 
ATOM     20  O1  <0> A   1     -24.102  -8.112  47.747  0.00  0.00    -0.449 OA
ATOM     21  O2  <0> A   1     -24.188  -7.066  49.711  0.00  0.00    -0.364 OA
BRANCH  17  22
ATOM     22  O3  <0> A   1     -25.171 -10.232  50.465  0.00  0.00    -0.559 OA
ATOM     23  H27 <0> A   1     -25.624  -9.744  49.764  0.00  0.00    +0.385 HD
ENDBRANCH  17  22
ENDBRANCH  14  15
ENDBRANCH  13  14
ENDBRANCH   6  13
BRANCH   4  24
ATOM     24  O4  <0> A   1     -27.332  -4.562  50.195  0.00  0.00    -0.319 OA
BRANCH  24  25
ATOM     25  C20 <0> A   1     -28.165  -5.184  49.344  0.00  0.00    +0.457 C 
ATOM     26  O5  <0> A   1     -28.424  -4.681  48.276  0.00  0.00    -0.502 OA
BRANCH  25  27
ATOM     27  C21 <0> A   1     -28.777  -6.508  49.721  0.00  0.00    -0.041 C 
ATOM     28  C22 <0> A   1     -27.983  -7.641  49.067  0.00  0.00    +0.045 C 
ATOM     29  C23 <0> A   1     -28.605  -8.986  49.450  0.00  0.00    -0.003 C 
ATOM     30  C24 <0> A   1     -30.056  -9.034  48.966  0.00  0.00    +0.016 C 
ATOM     31  C25 <0> A   1     -30.849  -7.901  49.620  0.00  0.00    -0.009 C 
ATOM     32  C26 <0> A   1     -30.227  -6.556  49.237  0.00  0.00    +0.047 C 
ATOM     33  C27 <0> A   1     -30.813  -8.065  51.141  0.00  0.00    +0.016 C 
ATOM     34  C28 <0> A   1     -29.361  -8.017  51.625  0.00  0.00    -0.009 C 
ATOM     35  C29 <0> A   1     -28.568  -9.150  50.969  0.00  0.00    +0.026 C 
ATOM     36  C30 <0> A   1     -28.741  -6.673  51.241  0.00  0.00    +0.038 C 
ENDBRANCH  25  27
ENDBRANCH  24  25
ENDBRANCH   4  24
TORSDOF 7
