REMARK  Name = CHEMBL107753
REMARK  6 active torsions:
REMARK  status: ('A' for Active; 'I' for Inactive)
REMARK    1  A    between atoms: C1_1  and  C2_2
REMARK    2  A    between atoms: C5_5  and  C13_19
REMARK    3  A    between atoms: N1_6  and  C6_7
REMARK    4  A    between atoms: C6_7  and  C7_8
REMARK    5  A    between atoms: C7_8  and  C8_9
REMARK    6  A    between atoms: C10_12  and  O3_18
REMARK                            x       y       z     vdW  Elec       q    Type
REMARK                         _______ _______ _______ _____ _____    ______ ____
ROOT
ATOM      1  C1  <0> A   1      -0.018   1.503   0.010  0.00  0.00    +0.123 C 
ATOM      2  C2  <0> A   1       0.002  -0.004   0.002  0.00  0.00    +0.015 C 
ATOM      3  C3  <0> A   1       0.008  -0.789  -1.095  0.00  0.00    -0.066 C 
ATOM      4  C4  <0> A   1       0.028  -2.127  -0.656  0.00  0.00    -0.059 C 
ATOM      5  C5  <0> A   1       0.034  -2.110   0.693  0.00  0.00    +0.021 C 
ATOM      6  N1  <0> A   1       0.024  -0.809   1.102  0.00  0.00    -0.440 N 
ENDROOT
BRANCH   5   7
ATOM      7  C13 <0> A   1       0.053  -3.319   1.592  0.00  0.00    +0.056 C 
ATOM      8  C14 <0> A   1       1.497  -3.784   1.790  0.00  0.00    +0.016 C 
ATOM      9  C15 <0> A   1       1.517  -5.011   2.703  0.00  0.00    +0.004 C 
ATOM     10  C16 <0> A   1       0.703  -6.137   2.062  0.00  0.00    +0.003 C 
ATOM     11  C17 <0> A   1      -0.742  -5.672   1.864  0.00  0.00    +0.005 C 
ATOM     12  C18 <0> A   1      -0.761  -4.444   0.951  0.00  0.00    +0.027 C 
ENDBRANCH   5   7
BRANCH   6  13
ATOM     13  C6  <0> A   1       0.030  -0.352   2.494  0.00  0.00    +0.288 C 
BRANCH  13  14
ATOM     14  C7  <0> A   1      -1.409  -0.214   2.993  0.00  0.00    +0.049 C 
BRANCH  14  15
ATOM     15  C8  <0> A   1      -1.402   0.263   4.446  0.00  0.00    +0.202 C 
ATOM     16  C9  <0> A   1      -2.835   0.285   4.984  0.00  0.00    +0.045 C 
ATOM     17  C10 <0> A   1      -2.829   0.802   6.426  0.00  0.00    +0.186 C 
ATOM     18  C11 <0> A   1      -2.233   2.216   6.443  0.00  0.00    +0.024 C 
ATOM     19  C12 <0> A   1      -0.903   2.179   5.723  0.00  0.00    +0.497 C 
ATOM     20  O1  <0> A   1       0.085   2.670   6.216  0.00  0.00    -0.450 OA
ATOM     21  O2  <0> A   1      -0.851   1.583   4.514  0.00  0.00    -0.370 OA
BRANCH  17  22
ATOM     22  O3  <0> A   1      -2.036  -0.063   7.242  0.00  0.00    -0.564 OA
ATOM     23  H16 <0> A   1      -1.988   0.205   8.169  0.00  0.00    +0.388 HD
ENDBRANCH  17  22
ENDBRANCH  14  15
ENDBRANCH  13  14
ENDBRANCH   6  13
TORSDOF 5
