REMARK VINA RESULT:      -7.0     15.680     19.206
REMARK  Name = CHEMBL358623
REMARK  15 active torsions:
REMARK  status: ('A' for Active; 'I' for Inactive)
REMARK    1  A    between atoms: C1_1  and  C2_2
REMARK    2  A    between atoms: C2_2  and  C3_3
REMARK    3  A    between atoms: C2_2  and  C4_4
REMARK    4  A    between atoms: C5_5  and  C18_20
REMARK    5  A    between atoms: C6_6  and  C12_13
REMARK    6  A    between atoms: C7_7  and  C8_9
REMARK    7  A    between atoms: C9_10  and  C10_11
REMARK    8  A    between atoms: C9_10  and  C11_12
REMARK    9  A    between atoms: C19_21  and  C20_22
REMARK   10  A    between atoms: C20_22  and  C21_24
REMARK   11  A    between atoms: C20_22  and  O4_32
REMARK   12  A    between atoms: C21_24  and  C22_25
REMARK   13  A    between atoms: C22_25  and  C23_27
REMARK   14  A    between atoms: C22_25  and  O3_31
REMARK   15  A    between atoms: C23_27  and  C24_28
REMARK                            x       y       z     vdW  Elec       q    Type
REMARK                         _______ _______ _______ _____ _____    ______ ____
ROOT
ATOM      1  C4  <0> A   1     -26.720  -2.838  50.510  0.00  0.00    -0.153 C 
ATOM      2  C5  <0> A   1     -25.516  -3.132  51.085  0.00  0.00    -0.071 C 
ATOM      3  C6  <0> A   1     -24.529  -2.085  51.156  0.00  0.00    -0.072 C 
ATOM      4  C7  <0> A   1     -24.878  -0.847  50.632  0.00  0.00    -0.108 C 
ATOM      5  S1  <0> A   1     -26.539  -1.127  50.044  0.00  0.00    +0.076 S 
ENDROOT
BRANCH   3   6
ATOM      6  C12 <0> A   1     -23.198  -2.318  51.762  0.00  0.00    -0.030 A 
ATOM      7  C13 <0> A   1     -22.988  -2.051  53.115  0.00  0.00    +0.064 A 
ATOM      8  C14 <0> A   1     -21.747  -2.270  53.674  0.00  0.00    -0.013 A 
ATOM      9  C15 <0> A   1     -20.709  -2.754  52.895  0.00  0.00    +0.099 A 
ATOM     10  C16 <0> A   1     -20.911  -3.021  51.551  0.00  0.00    -0.016 A 
ATOM     11  C17 <0> A   1     -22.151  -2.811  50.982  0.00  0.00    +0.049 A 
ATOM     12  F1  <0> A   1     -19.494  -2.967  53.448  0.00  0.00    -0.140 F 
ENDBRANCH   3   6
BRANCH   4  13
ATOM     13  C8  <0> A   1     -24.080   0.383  50.570  0.00  0.00    +0.043 C 
ATOM     14  C9  <0> A   1     -24.150   1.273  51.558  0.00  0.00    -0.109 C 
ATOM     15  C10 <0> A   1     -25.050   1.017  52.739  0.00  0.00    +0.096 C 
ATOM     16  C11 <0> A   1     -23.330   2.535  51.495  0.00  0.00    +0.090 C 
ENDBRANCH   4  13
BRANCH   1  18
ATOM     17  C1  <0> A   1     -29.072  -3.251  51.181  0.00  0.00    +0.032 C 
ATOM     18  C2  <0> A   1     -27.910  -3.741  50.313  0.00  0.00    +0.081 C 
ATOM     19  C3  <0> A   1     -28.328  -3.720  48.841  0.00  0.00    +0.033 C 
ENDBRANCH   1  18
BRANCH   2  20
ATOM     20  C18 <0> A   1     -25.235  -4.482  51.616  0.00  0.00    +0.014 C 
ATOM     21  C19 <0> A   1     -24.698  -5.405  50.829  0.00  0.00    -0.046 C 
BRANCH  21  22
ATOM     22  C20 <0> A   1     -24.411  -6.782  51.371  0.00  0.00    +0.249 C 
BRANCH  22  23
ATOM     23  O4  <0> A   1     -25.433  -7.151  52.300  0.00  0.00    -0.538 OA
ATOM     24  H28 <0> A   1     -26.134  -6.492  52.394  0.00  0.00    +0.364 HD
ENDBRANCH  22  23
BRANCH  22  25
ATOM     25  C21 <0> A   1     -24.381  -7.788  50.218  0.00  0.00    -0.042 C 
BRANCH  25  26
ATOM     26  C22 <0> A   1     -23.501  -8.978  50.603  0.00  0.00    +0.230 C 
BRANCH  26  27
ATOM     27  O3  <0> A   1     -23.625  -9.228  52.004  0.00  0.00    -0.528 OA
ATOM     28  H27 <0> A   1     -24.038 -10.077  52.217  0.00  0.00    +0.350 HD
ENDBRANCH  26  27
BRANCH  26  29
ATOM     29  C23 <0> A   1     -23.949 -10.217  49.823  0.00  0.00    -0.102 C 
BRANCH  29  30
ATOM     30  C24 <0> A   1     -24.796 -11.091  50.711  0.00  0.00    +0.491 C 
ATOM     31  O1  <0> A   1     -24.282 -11.999  51.342  0.00  0.00    -0.681 OA
ATOM     32  O2  <0> A   1     -25.995 -10.890  50.799  0.00  0.00    -0.713 OA
ENDBRANCH  29  30
ENDBRANCH  26  29
ENDBRANCH  25  26
ENDBRANCH  22  25
ENDBRANCH  21  22
ENDBRANCH   2  20
TORSDOF 11
