REMARK VINA RESULT:      -7.6      2.210      4.203
REMARK  Name = CHEMBL488821
REMARK  16 active torsions:
REMARK  status: ('A' for Active; 'I' for Inactive)
REMARK    1  A    between atoms: C1_1  and  C2_2
REMARK    2  A    between atoms: C4_5  and  C6_8
REMARK    3  A    between atoms: C6_8  and  N3_9
REMARK    4  A    between atoms: C7_10  and  C8_12
REMARK    5  A    between atoms: C9_13  and  C26_38
REMARK    6  A    between atoms: C10_14  and  C20_31
REMARK    7  A    between atoms: C11_15  and  C13_18
REMARK    8  A    between atoms: N4_16  and  C12_17
REMARK    9  A    between atoms: C13_18  and  C14_19
REMARK   10  A    between atoms: C14_19  and  C15_20
REMARK   11  A    between atoms: C15_20  and  C16_22
REMARK   12  A    between atoms: C15_20  and  O5_30
REMARK   13  A    between atoms: C16_22  and  C17_23
REMARK   14  A    between atoms: C17_23  and  C18_25
REMARK   15  A    between atoms: C17_23  and  O4_29
REMARK   16  A    between atoms: C18_25  and  C19_26
REMARK                            x       y       z     vdW  Elec       q    Type
REMARK                         _______ _______ _______ _____ _____    ______ ____
ROOT
ATOM      1  C8  <0> A   1     -16.121   8.329  47.220  0.00  0.00    -0.035 C 
ATOM      2  C9  <0> A   1     -15.297   7.672  46.315  0.00  0.00    -0.055 C 
ATOM      3  C10 <0> A   1     -14.212   8.545  46.045  0.00  0.00    -0.121 C 
ATOM      4  C11 <0> A   1     -14.406   9.678  46.777  0.00  0.00    +0.073 C 
ATOM      5  N4  <0> A   1     -15.556   9.557  47.482  0.00  0.00    -0.411 N 
ATOM      6  C12 <0> A   1     -16.110  10.570  48.384  0.00  0.00    +0.326 C 
ENDROOT
BRANCH   3   7
ATOM      7  C20 <0> A   1     -13.074   8.274  45.132  0.00  0.00    -0.011 A 
ATOM      8  C21 <0> A   1     -11.779   8.183  45.638  0.00  0.00    +0.053 A 
ATOM      9  C22 <0> A   1     -10.724   7.931  44.785  0.00  0.00    -0.013 A 
ATOM     10  C23 <0> A   1     -10.951   7.768  43.428  0.00  0.00    +0.096 A 
ATOM     11  C24 <0> A   1     -12.237   7.856  42.921  0.00  0.00    -0.020 A 
ATOM     12  C25 <0> A   1     -13.299   8.103  43.767  0.00  0.00    +0.055 A 
ATOM     13  F1  <0> A   1      -9.915   7.521  42.597  0.00  0.00    -0.142 F 
ENDBRANCH   3   7
BRANCH   2  14
ATOM     14  C26 <0> A   1     -15.511   6.323  45.744  0.00  0.00    -0.011 A 
ATOM     15  C27 <0> A   1     -16.374   6.149  44.662  0.00  0.00    +0.028 A 
ATOM     16  C28 <0> A   1     -16.569   4.890  44.134  0.00  0.00    +0.004 A 
ATOM     17  C29 <0> A   1     -15.910   3.800  44.674  0.00  0.00    -0.001 A 
ATOM     18  C30 <0> A   1     -15.053   3.965  45.747  0.00  0.00    -0.000 A 
ATOM     19  C31 <0> A   1     -14.845   5.220  46.281  0.00  0.00    +0.007 A 
ENDBRANCH   2  14
BRANCH   1  21
ATOM     20  N3  <0> A   1     -17.476   7.629  49.120  0.00  0.00    -0.716 N 
ATOM     21  C7  <0> A   1     -17.367   7.812  47.789  0.00  0.00    +0.602 C 
ATOM     22  O1  <0> A   1     -18.306   7.550  47.060  0.00  0.00    -0.514 OA
ATOM     23  H10 <0> A   1     -16.705   7.764  49.693  0.00  0.00    +0.404 HD
BRANCH  20  24
ATOM     24  C6  <0> A   1     -18.758   7.223  49.702  0.00  0.00    +0.363 C 
BRANCH  24  29
ATOM     25  C1  <0> A   1     -18.182   2.126  52.160  0.00  0.00    +0.146 C 
ATOM     26  C2  <0> A   1     -18.336   3.470  51.496  0.00  0.00    +0.088 A 
ATOM     27  C3  <0> A   1     -18.377   4.621  52.263  0.00  0.00    +0.226 A 
ATOM     28  N1  <0> A   1     -18.510   5.800  51.681  0.00  0.00    -0.418 NA
ATOM     29  C4  <0> A   1     -18.605   5.879  50.366  0.00  0.00    +0.046 A 
ATOM     30  C5  <0> A   1     -18.563   4.730  49.598  0.00  0.00    +0.252 A 
ATOM     31  N2  <0> A   1     -18.425   3.551  50.180  0.00  0.00    -0.438 NA
ENDBRANCH  24  29
ENDBRANCH  20  24
ENDBRANCH   1  21
BRANCH   4  32
ATOM     32  C13 <0> A   1     -13.492  10.875  46.795  0.00  0.00    +0.120 C 
BRANCH  32  33
ATOM     33  C14 <0> A   1     -14.094  11.989  45.936  0.00  0.00    -0.009 C 
BRANCH  33  34
ATOM     34  C15 <0> A   1     -13.319  12.095  44.621  0.00  0.00    +0.213 C 
BRANCH  34  35
ATOM     35  O5  <0> A   1     -12.040  11.475  44.771  0.00  0.00    -0.542 OA
ATOM     36  H23 <0> A   1     -11.803  11.279  45.687  0.00  0.00    +0.363 HD
ENDBRANCH  34  35
BRANCH  34  37
ATOM     37  C16 <0> A   1     -14.101  11.392  43.511  0.00  0.00    -0.051 C 
BRANCH  37  38
ATOM     38  C17 <0> A   1     -13.554  11.826  42.148  0.00  0.00    +0.230 C 
BRANCH  38  39
ATOM     39  O4  <0> A   1     -12.322  11.149  41.892  0.00  0.00    -0.528 OA
ATOM     40  H22 <0> A   1     -11.909  11.388  41.050  0.00  0.00    +0.349 HD
ENDBRANCH  38  39
BRANCH  38  41
ATOM     41  C18 <0> A   1     -14.567  11.474  41.056  0.00  0.00    -0.103 C 
BRANCH  41  42
ATOM     42  C19 <0> A   1     -13.835  11.031  39.816  0.00  0.00    +0.490 C 
ATOM     43  O2  <0> A   1     -13.546  11.845  38.955  0.00  0.00    -0.681 OA
ATOM     44  O3  <0> A   1     -13.532   9.859  39.674  0.00  0.00    -0.713 OA
ENDBRANCH  41  42
ENDBRANCH  38  41
ENDBRANCH  37  38
ENDBRANCH  34  37
ENDBRANCH  33  34
ENDBRANCH  32  33
ENDBRANCH   4  32
TORSDOF 14
