REMARK VINA RESULT:      -8.3      0.000      0.000
REMARK  Name = CHEMBL350895
REMARK  8 active torsions:
REMARK  status: ('A' for Active; 'I' for Inactive)
REMARK    1  A    between atoms: C1_1  and  C2_2
REMARK    2  A    between atoms: C2_2  and  C3_3
REMARK    3  A    between atoms: C4_4  and  C20_22
REMARK    4  A    between atoms: C5_5  and  C14_15
REMARK    5  A    between atoms: C7_7  and  C8_9
REMARK    6  A    between atoms: C20_22  and  C21_23
REMARK    7  A    between atoms: C21_23  and  C22_24
REMARK    8  A    between atoms: C24_26  and  O3_32
REMARK                            x       y       z     vdW  Elec       q    Type
REMARK                         _______ _______ _______ _____ _____    ______ ____
ROOT
ATOM      1  C3  <0> A   1     -15.002   6.767  45.705  0.00  0.00    +0.150 A 
ATOM      2  C4  <0> A   1     -14.522   8.023  46.015  0.00  0.00    -0.120 A 
ATOM      3  C5  <0> A   1     -15.131   8.753  47.041  0.00  0.00    +0.004 A 
ATOM      4  C6  <0> A   1     -16.210   8.175  47.713  0.00  0.00    -0.015 A 
ATOM      5  C7  <0> A   1     -16.632   6.904  47.339  0.00  0.00    +0.174 A 
ATOM      6  N1  <0> A   1     -16.026   6.251  46.355  0.00  0.00    -0.472 NA
ENDROOT
BRANCH   3   7
ATOM      7  C14 <0> A   1     -14.644  10.106  47.405  0.00  0.00    -0.061 A 
ATOM      8  C15 <0> A   1     -13.473  10.250  48.146  0.00  0.00    +0.065 A 
ATOM      9  C16 <0> A   1     -13.024  11.511  48.483  0.00  0.00    -0.010 A 
ATOM     10  C17 <0> A   1     -13.735  12.632  48.085  0.00  0.00    +0.107 A 
ATOM     11  C18 <0> A   1     -14.899  12.493  47.348  0.00  0.00    -0.011 A 
ATOM     12  C19 <0> A   1     -15.353  11.236  47.002  0.00  0.00    +0.062 A 
ATOM     13  F1  <0> A   1     -13.292  13.863  48.419  0.00  0.00    -0.136 F 
ENDBRANCH   3   7
BRANCH   5  14
ATOM     14  C8  <0> A   1     -17.777   6.275  48.042  0.00  0.00    -0.051 A 
ATOM     15  C9  <0> A   1     -17.567   5.185  48.885  0.00  0.00    +0.024 A 
ATOM     16  C10 <0> A   1     -18.635   4.603  49.536  0.00  0.00    +0.003 A 
ATOM     17  C11 <0> A   1     -19.914   5.098  49.352  0.00  0.00    +0.016 A 
ATOM     18  C12 <0> A   1     -20.129   6.179  48.516  0.00  0.00    +0.001 A 
ATOM     19  C13 <0> A   1     -19.067   6.772  47.865  0.00  0.00    +0.056 A 
ENDBRANCH   5  14
BRANCH   1  21
ATOM     20  C1  <0> A   1     -15.381   5.675  43.511  0.00  0.00    +0.034 C 
ATOM     21  C2  <0> A   1     -14.350   5.975  44.601  0.00  0.00    +0.090 C 
ENDBRANCH   1  21
BRANCH   2  22
ATOM     22  C20 <0> A   1     -13.354   8.601  45.259  0.00  0.00    +0.086 C 
BRANCH  22  23
ATOM     23  C21 <0> A   1     -13.861   9.633  44.249  0.00  0.00    +0.059 C 
BRANCH  23  24
ATOM     24  C22 <0> A   1     -13.079   9.491  42.941  0.00  0.00    +0.198 C 
ATOM     25  C23 <0> A   1     -13.686  10.415  41.881  0.00  0.00    +0.040 C 
ATOM     26  C24 <0> A   1     -12.928  10.241  40.561  0.00  0.00    +0.184 C 
ATOM     27  C25 <0> A   1     -13.036   8.778  40.116  0.00  0.00    +0.021 C 
ATOM     28  C26 <0> A   1     -12.611   7.896  41.271  0.00  0.00    +0.496 C 
ATOM     29  O1  <0> A   1     -11.813   7.005  41.111  0.00  0.00    -0.452 OA
ATOM     30  O2  <0> A   1     -13.151   8.136  42.484  0.00  0.00    -0.366 OA
BRANCH  26  31
ATOM     31  O3  <0> A   1     -11.554  10.585  40.750  0.00  0.00    -0.563 OA
ATOM     32  H26 <0> A   1     -11.234  11.272  40.149  0.00  0.00    +0.387 HD
ENDBRANCH  26  31
ENDBRANCH  23  24
ENDBRANCH  22  23
ENDBRANCH   2  22
TORSDOF 7
