REMARK VINA RESULT:      -7.4      0.000      0.000
REMARK  Name = CHEMBL331610
REMARK  16 active torsions:
REMARK  status: ('A' for Active; 'I' for Inactive)
REMARK    1  A    between atoms: C1_1  and  C2_2
REMARK    2  A    between atoms: C2_2  and  C3_3
REMARK    3  A    between atoms: C3_3  and  C4_4
REMARK    4  A    between atoms: C3_3  and  C5_5
REMARK    5  A    between atoms: C3_3  and  C6_6
REMARK    6  A    between atoms: C6_6  and  O2_8
REMARK    7  A    between atoms: O2_8  and  C7_9
REMARK    8  A    between atoms: C8_11  and  C26_37
REMARK    9  A    between atoms: C9_13  and  C25_36
REMARK   10  A    between atoms: C13_18  and  C18_25
REMARK   11  A    between atoms: C14_20  and  C17_24
REMARK   12  A    between atoms: C18_25  and  C19_26
REMARK   13  A    between atoms: C19_26  and  C20_27
REMARK   14  A    between atoms: C22_29  and  O5_35
REMARK   15  A    between atoms: C26_37  and  C27_39
REMARK   16  A    between atoms: C26_37  and  O6_45
REMARK                            x       y       z     vdW  Elec       q    Type
REMARK                         _______ _______ _______ _____ _____    ______ ____
ROOT
ATOM      1  C7  <0> A   1     -12.770   8.427  48.254  0.00  0.00    +0.201 C 
ATOM      2  C8  <0> A   1     -13.301   7.136  47.634  0.00  0.00    -0.048 C 
ATOM      3  C9  <0> A   1     -14.762   6.956  48.066  0.00  0.00    +0.033 C 
ATOM      4  C10 <0> A   1     -15.545   8.125  47.526  0.00  0.00    -0.039 C 
ATOM      5  C11 <0> A   1     -14.989   9.317  47.410  0.00  0.00    -0.069 C 
ATOM      6  C12 <0> A   1     -13.589   9.628  47.844  0.00  0.00    +0.044 C 
ATOM      7  C13 <0> A   1     -12.915  10.433  46.730  0.00  0.00    +0.011 C 
ATOM      8  C14 <0> A   1     -13.676  11.748  46.550  0.00  0.00    +0.022 C 
ATOM      9  C15 <0> A   1     -15.151  11.523  46.426  0.00  0.00    -0.017 C 
ATOM     10  C16 <0> A   1     -15.769  10.428  46.819  0.00  0.00    -0.011 C 
ATOM     11  C17 <0> A   1     -13.171  12.446  45.285  0.00  0.00    +0.029 C 
ATOM     12  C25 <0> A   1     -14.853   6.931  49.593  0.00  0.00    +0.041 C 
ENDROOT
BRANCH   1  13
ATOM     13  O2  <0> A   1     -12.804   8.307  49.678  0.00  0.00    -0.333 OA
BRANCH  13  14
ATOM     14  C6  <0> A   1     -11.670   8.585  50.339  0.00  0.00    +0.464 C 
ATOM     15  O1  <0> A   1     -10.791   7.759  50.406  0.00  0.00    -0.502 OA
BRANCH  14  16
ATOM     16  C3  <0> A   1     -11.493   9.929  50.998  0.00  0.00    -0.052 C 
ATOM     17  C4  <0> A   1     -10.671   9.765  52.278  0.00  0.00    +0.060 C 
ATOM     18  C5  <0> A   1     -12.865  10.512  51.344  0.00  0.00    +0.060 C 
BRANCH  16  20
ATOM     19  C1  <0> A   1     -11.621  12.116  49.798  0.00  0.00    +0.024 C 
ATOM     20  C2  <0> A   1     -10.763  10.874  50.042  0.00  0.00    +0.036 C 
ENDBRANCH  16  20
ENDBRANCH  14  16
ENDBRANCH  13  14
ENDBRANCH   1  13
BRANCH   7  21
ATOM     21  C18 <0> A   1     -12.948   9.634  45.426  0.00  0.00    +0.034 C 
BRANCH  21  22
ATOM     22  C19 <0> A   1     -11.665   9.893  44.635  0.00  0.00    +0.053 C 
BRANCH  22  23
ATOM     23  C20 <0> A   1     -11.842   9.399  43.198  0.00  0.00    +0.178 C 
ATOM     24  C21 <0> A   1     -13.148   9.954  42.623  0.00  0.00    +0.033 C 
ATOM     25  C22 <0> A   1     -13.342   9.424  41.199  0.00  0.00    +0.181 C 
ATOM     26  C23 <0> A   1     -13.389   7.891  41.242  0.00  0.00    +0.007 C 
ATOM     27  C24 <0> A   1     -12.172   7.400  41.996  0.00  0.00    +0.498 C 
ATOM     28  O3  <0> A   1     -11.473   6.525  41.545  0.00  0.00    -0.454 OA
ATOM     29  O4  <0> A   1     -11.891   7.968  43.187  0.00  0.00    -0.341 OA
BRANCH  25  30
ATOM     30  O5  <0> A   1     -12.252   9.849  40.378  0.00  0.00    -0.563 OA
ATOM     31  H35 <0> A   1     -11.570   9.176  40.249  0.00  0.00    +0.385 HD
ENDBRANCH  25  30
ENDBRANCH  22  23
ENDBRANCH  21  22
ENDBRANCH   7  21
BRANCH   2  32
ATOM     32  C26 <0> A   1     -13.220   7.225  46.108  0.00  0.00    +0.279 C 
BRANCH  32  33
ATOM     33  C27 <0> A   1     -14.178   6.237  45.496  0.00  0.00    -0.067 A 
ATOM     34  C28 <0> A   1     -14.977   6.616  44.434  0.00  0.00    -0.003 A 
ATOM     35  C29 <0> A   1     -15.856   5.709  43.871  0.00  0.00    +0.005 A 
ATOM     36  C30 <0> A   1     -15.935   4.422  44.371  0.00  0.00    -0.009 A 
ATOM     37  C31 <0> A   1     -15.135   4.043  45.433  0.00  0.00    -0.014 A 
ATOM     38  C32 <0> A   1     -14.254   4.949  45.992  0.00  0.00    +0.014 A 
ENDBRANCH  32  33
BRANCH  32  39
ATOM     39  O6  <0> A   1     -11.889   6.926  45.683  0.00  0.00    -0.535 OA
ATOM     40  H44 <0> A   1     -11.214   7.500  46.070  0.00  0.00    +0.364 HD
ENDBRANCH  32  39
ENDBRANCH   2  32
TORSDOF 11
