REMARK  Name = CHEMBL1164546
REMARK  16 active torsions:
REMARK  status: ('A' for Active; 'I' for Inactive)
REMARK    1  A    between atoms: C1_1  and  C2_2
REMARK    2  A    between atoms: C2_2  and  C3_4
REMARK    3  A    between atoms: C2_2  and  O8_43
REMARK    4  A    between atoms: C3_4  and  C4_6
REMARK    5  A    between atoms: C3_4  and  N3_17
REMARK    6  A    between atoms: N1_8  and  C5_9
REMARK    7  A    between atoms: C5_9  and  C6_10
REMARK    8  A    between atoms: N2_12  and  C7_13
REMARK    9  A    between atoms: C7_13  and  C8_14
REMARK   10  A    between atoms: C9_18  and  C10_20
REMARK   11  A    between atoms: C14_26  and  C15_28
REMARK   12  A    between atoms: C15_28  and  C16_30
REMARK   13  A    between atoms: C15_28  and  N5_38
REMARK   14  A    between atoms: C16_30  and  C17_31
REMARK   15  A    between atoms: C23_39  and  C24_41
REMARK   16  A    between atoms: C24_41  and  N6_42
REMARK                            x       y       z     vdW  Elec       q    Type
REMARK                         _______ _______ _______ _____ _____    ______ ____
ROOT
ATOM      1  C10 <0> A   1       3.619   1.927   1.903  0.00  0.00    +0.228 C 
ATOM      2  C11 <0> A   1       4.561   1.042   2.745  0.00  0.00    +0.059 C 
ATOM      3  C12 <0> A   1       5.415   2.081   3.518  0.00  0.00    +0.049 C 
ATOM      4  C13 <0> A   1       4.380   3.204   3.778  0.00  0.00    +0.252 C 
ATOM      5  N4  <0> A   1       3.549   3.242   2.556  0.00  0.00    -0.598 N 
ATOM      6  C14 <0> A   1       2.845   4.303   2.114  0.00  0.00    +0.531 C 
ATOM      7  O6  <0> A   1       2.196   4.216   1.093  0.00  0.00    -0.504 OA
ENDROOT
BRANCH   1   9
ATOM      8  N3  <0> A   1       2.077   0.091   1.294  0.00  0.00    -0.711 N 
ATOM      9  C9  <0> A   1       2.246   1.308   1.849  0.00  0.00    +0.510 C 
ATOM     10  O5  <0> A   1       1.294   1.904   2.305  0.00  0.00    -0.511 OA
ATOM     11  H14 <0> A   1       2.838  -0.386   0.929  0.00  0.00    +0.411 HD
BRANCH   8  12
ATOM     12  C3  <0> A   1       0.742  -0.511   1.242  0.00  0.00    +0.221 C 
BRANCH  12  13
ATOM     13  C4  <0> A   1       0.870  -2.011   1.172  0.00  0.00    +0.521 C 
ATOM     14  O1  <0> A   1       1.968  -2.526   1.166  0.00  0.00    -0.537 OA
ATOM     15  N1  <0> A   1      -0.236  -2.780   1.116  0.00  0.00    -0.702 N 
ATOM     16  H8  <0> A   1      -1.114  -2.367   1.120  0.00  0.00    +0.412 HD
BRANCH  15  17
ATOM     17  C5  <0> A   1      -0.111  -4.238   1.048  0.00  0.00    +0.304 C 
BRANCH  17  18
ATOM     18  C6  <0> A   1      -1.484  -4.857   0.994  0.00  0.00    +0.497 C 
ATOM     19  O2  <0> A   1      -2.469  -4.150   1.011  0.00  0.00    -0.561 OA
ATOM     20  N2  <0> A   1      -1.617  -6.197   0.928  0.00  0.00    -0.688 N 
ATOM     21  H11 <0> A   1      -0.829  -6.762   0.914  0.00  0.00    +0.412 HD
BRANCH  20  22
ATOM     22  C7  <0> A   1      -2.951  -6.799   0.876  0.00  0.00    +0.187 C 
BRANCH  22  23
ATOM     23  C8  <0> A   1      -2.824  -8.299   0.806  0.00  0.00    +0.489 C 
ATOM     24  O3  <0> A   1      -1.720  -8.817   0.800  0.00  0.00    -0.690 OA
ATOM     25  O4  <0> A   1      -3.824  -8.994   0.755  0.00  0.00    -0.684 OA
ENDBRANCH  22  23
ENDBRANCH  20  22
ENDBRANCH  17  18
ENDBRANCH  15  17
ENDBRANCH  12  13
BRANCH  12  27
ATOM     26  C1  <0> A   1      -0.019   1.526   0.010  0.00  0.00    +0.025 C 
ATOM     27  C2  <0> A   1       0.002  -0.004   0.002  0.00  0.00    +0.208 C 
BRANCH  27  28
ATOM     28  O8  <0> A   1       0.671  -0.465  -1.174  0.00  0.00    -0.549 OA
ATOM     29  H32 <0> A   1       1.588  -0.167  -1.247  0.00  0.00    +0.371 HD
ENDBRANCH  27  28
ENDBRANCH  12  27
ENDBRANCH   8  12
ENDBRANCH   1   9
BRANCH   6  30
ATOM     30  C15 <0> A   1       2.864   5.595   2.888  0.00  0.00    +0.266 C 
BRANCH  30  31
ATOM     31  N5  <0> A   1       2.451   6.695   2.012  0.00  0.00    -0.695 N 
ATOM     32  C23 <0> A   1       1.233   6.678   1.437  0.00  0.00    +0.496 C 
ATOM     33  O7  <0> A   1       0.477   5.752   1.645  0.00  0.00    -0.484 OA
ATOM     34  H27 <0> A   1       3.056   7.436   1.846  0.00  0.00    +0.414 HD
BRANCH  32  35
ATOM     35  C24 <0> A   1       0.809   7.809   0.536  0.00  0.00    +0.294 C 
BRANCH  35  36
ATOM     36  N6  <0> A   1      -0.550   7.556   0.039  0.00  0.00    -0.621 N 
ATOM     37  H30 <0> A   1      -0.834   8.313  -0.564  0.00  0.00    +0.444 HD
ATOM     38  H31 <0> A   1      -0.563   6.690  -0.479  0.00  0.00    +0.445 HD
ATOM     39  H33 <0> A   1      -1.187   7.490   0.819  0.00  0.00    +0.441 HD
ENDBRANCH  35  36
ENDBRANCH  32  35
ENDBRANCH  30  31
BRANCH  30  40
ATOM     40  C16 <0> A   1       1.898   5.496   4.071  0.00  0.00    +0.110 C 
BRANCH  40  41
ATOM     41  C17 <0> A   1       2.007   6.740   4.914  0.00  0.00    -0.095 A 
ATOM     42  C18 <0> A   1       2.918   6.792   5.953  0.00  0.00    +0.053 A 
ATOM     43  C19 <0> A   1       3.019   7.933   6.727  0.00  0.00    -0.003 A 
ATOM     44  C20 <0> A   1       2.208   9.023   6.462  0.00  0.00    +0.103 A 
ATOM     45  C21 <0> A   1       1.297   8.970   5.421  0.00  0.00    -0.018 A 
ATOM     46  C22 <0> A   1       1.201   7.830   4.645  0.00  0.00    +0.031 A 
ATOM     47  F1  <0> A   1       2.306  10.138   7.218  0.00  0.00    -0.135 F 
ENDBRANCH  40  41
ENDBRANCH  30  40
ENDBRANCH   6  30
TORSDOF 15
