MODEL 1
REMARK VINA RESULT:      -7.6      0.000      0.000
REMARK  Name = CHEMBL121052
REMARK  12 active torsions:
REMARK  status: ('A' for Active; 'I' for Inactive)
REMARK    1  A    between atoms: C3_3  and  C5_6
REMARK    2  A    between atoms: C6_7  and  C16_28
REMARK    3  A    between atoms: C7_9  and  C15_24
REMARK    4  A    between atoms: N2_10  and  C8_11
REMARK    5  A    between atoms: C8_11  and  C9_12
REMARK    6  A    between atoms: C9_12  and  C10_13
REMARK    7  A    between atoms: C10_13  and  C11_15
REMARK    8  A    between atoms: C10_13  and  O4_23
REMARK    9  A    between atoms: C11_15  and  C12_16
REMARK   10  A    between atoms: C12_16  and  C13_18
REMARK   11  A    between atoms: C12_16  and  O3_22
REMARK   12  A    between atoms: C13_18  and  C14_19
REMARK                            x       y       z     vdW  Elec       q    Type
REMARK                         _______ _______ _______ _____ _____    ______ ____
ROOT
ATOM      1  C5  <0> A   1     -15.028   7.901  46.142  0.00  0.00    +0.115 C 
ATOM      2  C6  <0> A   1     -16.009   8.449  46.954  0.00  0.00    +0.073 C 
ATOM      3  N1  <0> A   1     -15.743   9.763  47.079  0.00  0.00    -0.413 NA
ATOM      4  C7  <0> A   1     -14.671  10.059  46.400  0.00  0.00    +0.119 C 
ATOM      5  N2  <0> A   1     -14.186   8.939  45.806  0.00  0.00    -0.413 N 
ENDROOT
BRANCH   2   6
ATOM      6  C16 <0> A   1     -17.142   7.722  47.571  0.00  0.00    -0.015 A 
ATOM      7  C17 <0> A   1     -18.278   7.426  46.818  0.00  0.00    +0.066 A 
ATOM      8  C18 <0> A   1     -19.330   6.749  47.398  0.00  0.00    -0.013 A 
ATOM      9  C19 <0> A   1     -19.260   6.361  48.726  0.00  0.00    +0.103 A 
ATOM     10  C20 <0> A   1     -18.134   6.653  49.479  0.00  0.00    -0.015 A 
ATOM     11  C21 <0> A   1     -17.073   7.324  48.907  0.00  0.00    +0.080 A 
ATOM     12  F4  <0> A   1     -20.293   5.697  49.290  0.00  0.00    -0.139 F 
ENDBRANCH   2   6
BRANCH   1  15
ATOM     13  C1  <0> A   1     -15.354   4.465  44.592  0.00  0.00    -0.020 C 
ATOM     14  C2  <0> A   1     -15.664   5.788  44.813  0.00  0.00    +0.032 C 
ATOM     15  C3  <0> A   1     -14.908   6.496  45.729  0.00  0.00    -0.117 C 
ATOM     16  S1  <0> A   1     -13.744   5.258  46.278  0.00  0.00    +0.081 S 
ATOM     17  C4  <0> A   1     -14.326   3.900  45.275  0.00  0.00    +0.032 C 
ENDBRANCH   1  15
BRANCH   4  18
ATOM     18  C15 <0> A   1     -14.059  11.433  46.297  0.00  0.00    +0.565 C 
ATOM     19  F1  <0> A   1     -12.733  11.388  46.740  0.00  0.00    -0.148 F 
ATOM     20  F2  <0> A   1     -14.092  11.859  44.965  0.00  0.00    -0.166 F 
ATOM     21  F3  <0> A   1     -14.787  12.328  47.090  0.00  0.00    -0.161 F 
ENDBRANCH   4  18
BRANCH   5  22
ATOM     22  C8  <0> A   1     -12.993   8.849  44.961  0.00  0.00    +0.309 C 
BRANCH  22  23
ATOM     23  C9  <0> A   1     -13.411   8.582  43.514  0.00  0.00    -0.012 C 
BRANCH  23  24
ATOM     24  C10 <0> A   1     -12.344   7.728  42.825  0.00  0.00    +0.223 C 
BRANCH  24  25
ATOM     25  O4  <0> A   1     -12.731   6.353  42.874  0.00  0.00    -0.537 OA
ATOM     26  H15 <0> A   1     -12.145   5.761  42.383  0.00  0.00    +0.365 HD
ENDBRANCH  24  25
BRANCH  24  27
ATOM     27  C11 <0> A   1     -12.204   8.166  41.366  0.00  0.00    -0.045 C 
BRANCH  27  28
ATOM     28  C12 <0> A   1     -12.756   9.584  41.204  0.00  0.00    +0.233 C 
BRANCH  28  29
ATOM     29  O3  <0> A   1     -11.709  10.531  41.430  0.00  0.00    -0.527 OA
ATOM     30  H14 <0> A   1     -10.824  10.140  41.451  0.00  0.00    +0.350 HD
ENDBRANCH  28  29
BRANCH  28  31
ATOM     31  C13 <0> A   1     -13.304   9.758  39.786  0.00  0.00    -0.101 C 
BRANCH  31  32
ATOM     32  C14 <0> A   1     -13.348  11.225  39.442  0.00  0.00    +0.491 C 
ATOM     33  O1  <0> A   1     -14.299  11.905  39.790  0.00  0.00    -0.681 OA
ATOM     34  O2  <0> A   1     -12.433  11.732  38.816  0.00  0.00    -0.712 OA
ENDBRANCH  31  32
ENDBRANCH  28  31
ENDBRANCH  27  28
ENDBRANCH  24  27
ENDBRANCH  23  24
ENDBRANCH  22  23
ENDBRANCH   5  22
TORSDOF 12
ENDMDL
MODEL 2
REMARK VINA RESULT:      -7.5     24.838     27.194
REMARK  Name = CHEMBL121052
REMARK  12 active torsions:
REMARK  status: ('A' for Active; 'I' for Inactive)
REMARK    1  A    between atoms: C3_3  and  C5_6
REMARK    2  A    between atoms: C6_7  and  C16_28
REMARK    3  A    between atoms: C7_9  and  C15_24
REMARK    4  A    between atoms: N2_10  and  C8_11
REMARK    5  A    between atoms: C8_11  and  C9_12
REMARK    6  A    between atoms: C9_12  and  C10_13
REMARK    7  A    between atoms: C10_13  and  C11_15
REMARK    8  A    between atoms: C10_13  and  O4_23
REMARK    9  A    between atoms: C11_15  and  C12_16
REMARK   10  A    between atoms: C12_16  and  C13_18
REMARK   11  A    between atoms: C12_16  and  O3_22
REMARK   12  A    between atoms: C13_18  and  C14_19
REMARK                            x       y       z     vdW  Elec       q    Type
REMARK                         _______ _______ _______ _____ _____    ______ ____
ROOT
ATOM      1  C5  <0> A   1       5.885  21.888  34.912  0.00  0.00    +0.115 C 
ATOM      2  C6  <0> A   1       6.254  23.152  35.343  0.00  0.00    +0.073 C 
ATOM      3  N1  <0> A   1       6.393  23.928  34.252  0.00  0.00    -0.413 NA
ATOM      4  C7  <0> A   1       6.134  23.229  33.182  0.00  0.00    +0.119 C 
ATOM      5  N2  <0> A   1       5.819  21.957  33.537  0.00  0.00    -0.413 N 
ENDROOT
BRANCH   2   6
ATOM      6  C16 <0> A   1       6.458  23.573  36.749  0.00  0.00    -0.015 A 
ATOM      7  C17 <0> A   1       7.742  23.591  37.294  0.00  0.00    +0.066 A 
ATOM      8  C18 <0> A   1       7.926  23.984  38.604  0.00  0.00    -0.013 A 
ATOM      9  C19 <0> A   1       6.839  24.360  39.377  0.00  0.00    +0.103 A 
ATOM     10  C20 <0> A   1       5.562  24.344  38.839  0.00  0.00    -0.015 A 
ATOM     11  C21 <0> A   1       5.367  23.959  37.529  0.00  0.00    +0.080 A 
ATOM     12  F4  <0> A   1       7.025  24.745  40.658  0.00  0.00    -0.139 F 
ENDBRANCH   2   6
BRANCH   1  15
ATOM     13  C1  <0> A   1       5.962  19.008  37.365  0.00  0.00    -0.020 C 
ATOM     14  C2  <0> A   1       6.435  20.117  36.699  0.00  0.00    +0.032 C 
ATOM     15  C3  <0> A   1       5.623  20.710  35.751  0.00  0.00    -0.117 C 
ATOM     16  S1  <0> A   1       4.170  19.673  35.813  0.00  0.00    +0.081 S 
ATOM     17  C4  <0> A   1       4.724  18.536  37.072  0.00  0.00    +0.032 C 
ENDBRANCH   1  15
BRANCH   4  18
ATOM     18  C15 <0> A   1       6.183  23.752  31.769  0.00  0.00    +0.565 C 
ATOM     19  F1  <0> A   1       6.868  22.841  30.958  0.00  0.00    -0.148 F 
ATOM     20  F2  <0> A   1       4.880  23.917  31.289  0.00  0.00    -0.166 F 
ATOM     21  F3  <0> A   1       6.846  24.984  31.751  0.00  0.00    -0.161 F 
ENDBRANCH   4  18
BRANCH   5  22
ATOM     22  C8  <0> A   1       5.472  20.862  32.629  0.00  0.00    +0.309 C 
BRANCH  22  23
ATOM     23  C9  <0> A   1       3.991  20.958  32.257  0.00  0.00    -0.012 C 
BRANCH  23  24
ATOM     24  C10 <0> A   1       3.770  20.338  30.876  0.00  0.00    +0.223 C 
BRANCH  24  25
ATOM     25  O4  <0> A   1       4.258  21.230  29.871  0.00  0.00    -0.537 OA
ATOM     26  H15 <0> A   1       4.899  21.876  30.196  0.00  0.00    +0.365 HD
ENDBRANCH  24  25
BRANCH  24  27
ATOM     27  C11 <0> A   1       4.523  19.009  30.787  0.00  0.00    -0.045 C 
BRANCH  27  28
ATOM     28  C12 <0> A   1       3.848  18.109  29.751  0.00  0.00    +0.233 C 
BRANCH  28  29
ATOM     29  O3  <0> A   1       3.917  18.729  28.464  0.00  0.00    -0.527 OA
ATOM     30  H14 <0> A   1       3.126  19.233  28.229  0.00  0.00    +0.350 HD
ENDBRANCH  28  29
BRANCH  28  31
ATOM     31  C13 <0> A   1       4.564  16.758  29.705  0.00  0.00    -0.101 C 
BRANCH  31  32
ATOM     32  C14 <0> A   1       4.969  16.451  28.286  0.00  0.00    +0.491 C 
ATOM     33  O1  <0> A   1       4.120  16.170  27.457  0.00  0.00    -0.681 OA
ATOM     34  O2  <0> A   1       6.145  16.484  27.968  0.00  0.00    -0.712 OA
ENDBRANCH  31  32
ENDBRANCH  28  31
ENDBRANCH  27  28
ENDBRANCH  24  27
ENDBRANCH  23  24
ENDBRANCH  22  23
ENDBRANCH   5  22
TORSDOF 12
ENDMDL
MODEL 3
REMARK VINA RESULT:      -7.5      3.138      4.678
REMARK  Name = CHEMBL121052
REMARK  12 active torsions:
REMARK  status: ('A' for Active; 'I' for Inactive)
REMARK    1  A    between atoms: C3_3  and  C5_6
REMARK    2  A    between atoms: C6_7  and  C16_28
REMARK    3  A    between atoms: C7_9  and  C15_24
REMARK    4  A    between atoms: N2_10  and  C8_11
REMARK    5  A    between atoms: C8_11  and  C9_12
REMARK    6  A    between atoms: C9_12  and  C10_13
REMARK    7  A    between atoms: C10_13  and  C11_15
REMARK    8  A    between atoms: C10_13  and  O4_23
REMARK    9  A    between atoms: C11_15  and  C12_16
REMARK   10  A    between atoms: C12_16  and  C13_18
REMARK   11  A    between atoms: C12_16  and  O3_22
REMARK   12  A    between atoms: C13_18  and  C14_19
REMARK                            x       y       z     vdW  Elec       q    Type
REMARK                         _______ _______ _______ _____ _____    ______ ____
ROOT
ATOM      1  C5  <0> A   1     -14.122   7.922  45.779  0.00  0.00    +0.115 C 
ATOM      2  C6  <0> A   1     -14.428   7.265  46.960  0.00  0.00    +0.073 C 
ATOM      3  N1  <0> A   1     -14.822   6.018  46.640  0.00  0.00    -0.413 NA
ATOM      4  C7  <0> A   1     -14.777   5.864  45.347  0.00  0.00    +0.119 C 
ATOM      5  N2  <0> A   1     -14.355   7.017  44.767  0.00  0.00    -0.413 N 
ENDROOT
BRANCH   2   6
ATOM      6  C16 <0> A   1     -14.338   7.832  48.326  0.00  0.00    -0.015 A 
ATOM      7  C17 <0> A   1     -15.476   8.349  48.945  0.00  0.00    +0.066 A 
ATOM      8  C18 <0> A   1     -15.386   8.877  50.217  0.00  0.00    -0.013 A 
ATOM      9  C19 <0> A   1     -14.169   8.892  50.879  0.00  0.00    +0.103 A 
ATOM     10  C20 <0> A   1     -13.036   8.379  50.268  0.00  0.00    -0.015 A 
ATOM     11  C21 <0> A   1     -13.115   7.844  48.999  0.00  0.00    +0.080 A 
ATOM     12  F4  <0> A   1     -14.087   9.408  52.125  0.00  0.00    -0.139 F 
ENDBRANCH   2   6
BRANCH   1  15
ATOM     13  C1  <0> A   1     -13.709  11.661  45.377  0.00  0.00    -0.020 C 
ATOM     14  C2  <0> A   1     -14.386  10.469  45.495  0.00  0.00    +0.032 C 
ATOM     15  C3  <0> A   1     -13.650   9.307  45.635  0.00  0.00    -0.117 C 
ATOM     16  S1  <0> A   1     -11.976   9.926  45.595  0.00  0.00    +0.081 S 
ATOM     17  C4  <0> A   1     -12.352  11.660  45.399  0.00  0.00    +0.032 C 
ENDBRANCH   1  15
BRANCH   4  18
ATOM     18  C15 <0> A   1     -15.144   4.602  44.609  0.00  0.00    +0.565 C 
ATOM     19  F1  <0> A   1     -15.679   3.674  45.508  0.00  0.00    -0.148 F 
ATOM     20  F2  <0> A   1     -16.091   4.897  43.624  0.00  0.00    -0.166 F 
ATOM     21  F3  <0> A   1     -13.999   4.064  44.008  0.00  0.00    -0.161 F 
ENDBRANCH   4  18
BRANCH   5  22
ATOM     22  C8  <0> A   1     -14.178   7.254  43.332  0.00  0.00    +0.309 C 
BRANCH  22  23
ATOM     23  C9  <0> A   1     -12.695   7.134  42.975  0.00  0.00    -0.012 C 
BRANCH  23  24
ATOM     24  C10 <0> A   1     -12.289   8.309  42.083  0.00  0.00    +0.223 C 
BRANCH  24  25
ATOM     25  O4  <0> A   1     -11.971   7.826  40.776  0.00  0.00    -0.537 OA
ATOM     26  H15 <0> A   1     -12.725   7.797  40.172  0.00  0.00    +0.365 HD
ENDBRANCH  24  25
BRANCH  24  27
ATOM     27  C11 <0> A   1     -13.448   9.304  41.991  0.00  0.00    -0.045 C 
BRANCH  27  28
ATOM     28  C12 <0> A   1     -12.903  10.690  41.641  0.00  0.00    +0.233 C 
BRANCH  28  29
ATOM     29  O3  <0> A   1     -11.517  10.587  41.308  0.00  0.00    -0.527 OA
ATOM     30  H14 <0> A   1     -11.207  11.272  40.699  0.00  0.00    +0.350 HD
ENDBRANCH  28  29
BRANCH  28  31
ATOM     31  C13 <0> A   1     -13.675  11.255  40.447  0.00  0.00    -0.101 C 
BRANCH  31  32
ATOM     32  C14 <0> A   1     -12.827  11.147  39.205  0.00  0.00    +0.491 C 
ATOM     33  O1  <0> A   1     -12.378  12.153  38.683  0.00  0.00    -0.681 OA
ATOM     34  O2  <0> A   1     -12.591  10.052  38.722  0.00  0.00    -0.712 OA
ENDBRANCH  31  32
ENDBRANCH  28  31
ENDBRANCH  27  28
ENDBRANCH  24  27
ENDBRANCH  23  24
ENDBRANCH  22  23
ENDBRANCH   5  22
TORSDOF 12
ENDMDL
MODEL 4
REMARK VINA RESULT:      -7.4      2.955      4.486
REMARK  Name = CHEMBL121052
REMARK  12 active torsions:
REMARK  status: ('A' for Active; 'I' for Inactive)
REMARK    1  A    between atoms: C3_3  and  C5_6
REMARK    2  A    between atoms: C6_7  and  C16_28
REMARK    3  A    between atoms: C7_9  and  C15_24
REMARK    4  A    between atoms: N2_10  and  C8_11
REMARK    5  A    between atoms: C8_11  and  C9_12
REMARK    6  A    between atoms: C9_12  and  C10_13
REMARK    7  A    between atoms: C10_13  and  C11_15
REMARK    8  A    between atoms: C10_13  and  O4_23
REMARK    9  A    between atoms: C11_15  and  C12_16
REMARK   10  A    between atoms: C12_16  and  C13_18
REMARK   11  A    between atoms: C12_16  and  O3_22
REMARK   12  A    between atoms: C13_18  and  C14_19
REMARK                            x       y       z     vdW  Elec       q    Type
REMARK                         _______ _______ _______ _____ _____    ______ ____
ROOT
ATOM      1  C5  <0> A   1     -13.983   7.802  45.835  0.00  0.00    +0.115 C 
ATOM      2  C6  <0> A   1     -14.977   7.507  46.755  0.00  0.00    +0.073 C 
ATOM      3  N1  <0> A   1     -15.501   6.314  46.416  0.00  0.00    -0.413 NA
ATOM      4  C7  <0> A   1     -14.898   5.857  45.355  0.00  0.00    +0.119 C 
ATOM      5  N2  <0> A   1     -13.953   6.745  44.952  0.00  0.00    -0.413 N 
ENDROOT
BRANCH   2   6
ATOM      6  C16 <0> A   1     -15.387   8.350  47.902  0.00  0.00    -0.015 A 
ATOM      7  C17 <0> A   1     -14.980   8.019  49.194  0.00  0.00    +0.066 A 
ATOM      8  C18 <0> A   1     -15.366   8.808  50.259  0.00  0.00    -0.013 A 
ATOM      9  C19 <0> A   1     -16.154   9.927  50.046  0.00  0.00    +0.103 A 
ATOM     10  C20 <0> A   1     -16.562  10.259  48.764  0.00  0.00    -0.015 A 
ATOM     11  C21 <0> A   1     -16.177   9.482  47.692  0.00  0.00    +0.080 A 
ATOM     12  F4  <0> A   1     -16.528  10.696  51.091  0.00  0.00    -0.139 F 
ENDBRANCH   2   6
BRANCH   1  15
ATOM     13  C1  <0> A   1     -12.425  11.211  45.319  0.00  0.00    -0.020 C 
ATOM     14  C2  <0> A   1     -13.381  10.227  45.208  0.00  0.00    +0.032 C 
ATOM     15  C3  <0> A   1     -13.137   9.004  45.804  0.00  0.00    -0.117 C 
ATOM     16  S1  <0> A   1     -11.527   9.265  46.529  0.00  0.00    +0.081 S 
ATOM     17  C4  <0> A   1     -11.282  10.953  46.003  0.00  0.00    +0.032 C 
ENDBRANCH   1  15
BRANCH   4  18
ATOM     18  C15 <0> A   1     -15.207   4.547  44.675  0.00  0.00    +0.565 C 
ATOM     19  F1  <0> A   1     -14.041   3.781  44.586  0.00  0.00    -0.148 F 
ATOM     20  F2  <0> A   1     -16.167   3.853  45.418  0.00  0.00    -0.166 F 
ATOM     21  F3  <0> A   1     -15.702   4.796  43.390  0.00  0.00    -0.161 F 
ENDBRANCH   4  18
BRANCH   5  22
ATOM     22  C8  <0> A   1     -13.064   6.605  43.796  0.00  0.00    +0.309 C 
BRANCH  22  23
ATOM     23  C9  <0> A   1     -13.591   7.459  42.642  0.00  0.00    -0.012 C 
BRANCH  23  24
ATOM     24  C10 <0> A   1     -12.462   7.716  41.641  0.00  0.00    +0.223 C 
BRANCH  24  25
ATOM     25  O4  <0> A   1     -11.602   6.575  41.592  0.00  0.00    -0.537 OA
ATOM     26  H15 <0> A   1     -11.527   6.177  40.714  0.00  0.00    +0.365 HD
ENDBRANCH  24  25
BRANCH  24  27
ATOM     27  C11 <0> A   1     -13.057   7.966  40.254  0.00  0.00    -0.045 C 
BRANCH  27  28
ATOM     28  C12 <0> A   1     -12.460   9.246  39.666  0.00  0.00    +0.233 C 
BRANCH  28  29
ATOM     29  O3  <0> A   1     -12.839   9.360  38.292  0.00  0.00    -0.527 OA
ATOM     30  H14 <0> A   1     -13.742   9.067  38.108  0.00  0.00    +0.350 HD
ENDBRANCH  28  29
BRANCH  28  31
ATOM     31  C13 <0> A   1     -12.983  10.456  40.443  0.00  0.00    -0.101 C 
BRANCH  31  32
ATOM     32  C14 <0> A   1     -13.828  11.310  39.532  0.00  0.00    +0.491 C 
ATOM     33  O1  <0> A   1     -13.296  12.079  38.750  0.00  0.00    -0.681 OA
ATOM     34  O2  <0> A   1     -15.044  11.231  39.578  0.00  0.00    -0.712 OA
ENDBRANCH  31  32
ENDBRANCH  28  31
ENDBRANCH  27  28
ENDBRANCH  24  27
ENDBRANCH  23  24
ENDBRANCH  22  23
ENDBRANCH   5  22
TORSDOF 12
ENDMDL
MODEL 5
REMARK VINA RESULT:      -7.4      3.740      5.293
REMARK  Name = CHEMBL121052
REMARK  12 active torsions:
REMARK  status: ('A' for Active; 'I' for Inactive)
REMARK    1  A    between atoms: C3_3  and  C5_6
REMARK    2  A    between atoms: C6_7  and  C16_28
REMARK    3  A    between atoms: C7_9  and  C15_24
REMARK    4  A    between atoms: N2_10  and  C8_11
REMARK    5  A    between atoms: C8_11  and  C9_12
REMARK    6  A    between atoms: C9_12  and  C10_13
REMARK    7  A    between atoms: C10_13  and  C11_15
REMARK    8  A    between atoms: C10_13  and  O4_23
REMARK    9  A    between atoms: C11_15  and  C12_16
REMARK   10  A    between atoms: C12_16  and  C13_18
REMARK   11  A    between atoms: C12_16  and  O3_22
REMARK   12  A    between atoms: C13_18  and  C14_19
REMARK                            x       y       z     vdW  Elec       q    Type
REMARK                         _______ _______ _______ _____ _____    ______ ____
ROOT
ATOM      1  C5  <0> A   1     -13.001   7.081  45.928  0.00  0.00    +0.115 C 
ATOM      2  C6  <0> A   1     -13.162   6.138  46.930  0.00  0.00    +0.073 C 
ATOM      3  N1  <0> A   1     -14.011   5.199  46.470  0.00  0.00    -0.413 NA
ATOM      4  C7  <0> A   1     -14.379   5.501  45.256  0.00  0.00    +0.119 C 
ATOM      5  N2  <0> A   1     -13.785   6.661  44.876  0.00  0.00    -0.413 N 
ENDROOT
BRANCH   2   6
ATOM      6  C16 <0> A   1     -12.519   6.158  48.265  0.00  0.00    -0.015 A 
ATOM      7  C17 <0> A   1     -13.249   6.547  49.387  0.00  0.00    +0.066 A 
ATOM      8  C18 <0> A   1     -12.645   6.565  50.627  0.00  0.00    -0.013 A 
ATOM      9  C19 <0> A   1     -11.316   6.195  50.759  0.00  0.00    +0.103 A 
ATOM     10  C20 <0> A   1     -10.586   5.808  49.646  0.00  0.00    -0.015 A 
ATOM     11  C21 <0> A   1     -11.182   5.781  48.403  0.00  0.00    +0.080 A 
ATOM     12  F4  <0> A   1     -10.729   6.213  51.975  0.00  0.00    -0.139 F 
ENDBRANCH   2   6
BRANCH   1  15
ATOM     13  C1  <0> A   1     -11.533  10.542  46.356  0.00  0.00    -0.020 C 
ATOM     14  C2  <0> A   1     -12.500   9.564  46.401  0.00  0.00    +0.032 C 
ATOM     15  C3  <0> A   1     -12.165   8.290  45.980  0.00  0.00    -0.117 C 
ATOM     16  S1  <0> A   1     -10.453   8.495  45.516  0.00  0.00    +0.081 S 
ATOM     17  C4  <0> A   1     -10.292  10.230  45.903  0.00  0.00    +0.032 C 
ENDBRANCH   1  15
BRANCH   4  18
ATOM     18  C15 <0> A   1     -15.324   4.689  44.407  0.00  0.00    +0.565 C 
ATOM     19  F1  <0> A   1     -14.624   4.131  43.332  0.00  0.00    -0.148 F 
ATOM     20  F2  <0> A   1     -15.883   3.667  45.181  0.00  0.00    -0.166 F 
ATOM     21  F3  <0> A   1     -16.343   5.517  43.922  0.00  0.00    -0.161 F 
ENDBRANCH   4  18
BRANCH   5  22
ATOM     22  C8  <0> A   1     -13.945   7.339  43.588  0.00  0.00    +0.309 C 
BRANCH  22  23
ATOM     23  C9  <0> A   1     -12.733   7.044  42.702  0.00  0.00    -0.012 C 
BRANCH  23  24
ATOM     24  C10 <0> A   1     -12.351   8.306  41.925  0.00  0.00    +0.223 C 
BRANCH  24  25
ATOM     25  O4  <0> A   1     -12.195   7.983  40.542  0.00  0.00    -0.537 OA
ATOM     26  H15 <0> A   1     -12.640   8.596  39.942  0.00  0.00    +0.365 HD
ENDBRANCH  24  25
BRANCH  24  27
ATOM     27  C11 <0> A   1     -13.452   9.356  42.083  0.00  0.00    -0.045 C 
BRANCH  27  28
ATOM     28  C12 <0> A   1     -12.928  10.718  41.626  0.00  0.00    +0.233 C 
BRANCH  28  29
ATOM     29  O3  <0> A   1     -11.545  10.604  41.280  0.00  0.00    -0.527 OA
ATOM     30  H14 <0> A   1     -11.014  11.373  41.528  0.00  0.00    +0.350 HD
ENDBRANCH  28  29
BRANCH  28  31
ATOM     31  C13 <0> A   1     -13.723  11.187  40.405  0.00  0.00    -0.101 C 
BRANCH  31  32
ATOM     32  C14 <0> A   1     -12.840  11.144  39.184  0.00  0.00    +0.491 C 
ATOM     33  O1  <0> A   1     -12.366  12.175  38.738  0.00  0.00    -0.681 OA
ATOM     34  O2  <0> A   1     -12.600  10.078  38.643  0.00  0.00    -0.712 OA
ENDBRANCH  31  32
ENDBRANCH  28  31
ENDBRANCH  27  28
ENDBRANCH  24  27
ENDBRANCH  23  24
ENDBRANCH  22  23
ENDBRANCH   5  22
TORSDOF 12
ENDMDL
MODEL 6
REMARK VINA RESULT:      -7.3      2.663      3.809
REMARK  Name = CHEMBL121052
REMARK  12 active torsions:
REMARK  status: ('A' for Active; 'I' for Inactive)
REMARK    1  A    between atoms: C3_3  and  C5_6
REMARK    2  A    between atoms: C6_7  and  C16_28
REMARK    3  A    between atoms: C7_9  and  C15_24
REMARK    4  A    between atoms: N2_10  and  C8_11
REMARK    5  A    between atoms: C8_11  and  C9_12
REMARK    6  A    between atoms: C9_12  and  C10_13
REMARK    7  A    between atoms: C10_13  and  C11_15
REMARK    8  A    between atoms: C10_13  and  O4_23
REMARK    9  A    between atoms: C11_15  and  C12_16
REMARK   10  A    between atoms: C12_16  and  C13_18
REMARK   11  A    between atoms: C12_16  and  O3_22
REMARK   12  A    between atoms: C13_18  and  C14_19
REMARK                            x       y       z     vdW  Elec       q    Type
REMARK                         _______ _______ _______ _____ _____    ______ ____
ROOT
ATOM      1  C5  <0> A   1     -15.424   7.336  46.842  0.00  0.00    +0.115 C 
ATOM      2  C6  <0> A   1     -16.467   6.443  46.654  0.00  0.00    +0.073 C 
ATOM      3  N1  <0> A   1     -16.258   5.817  45.480  0.00  0.00    -0.413 NA
ATOM      4  C7  <0> A   1     -15.159   6.262  44.937  0.00  0.00    +0.119 C 
ATOM      5  N2  <0> A   1     -14.608   7.209  45.739  0.00  0.00    -0.413 N 
ENDROOT
BRANCH   2   6
ATOM      6  C16 <0> A   1     -17.605   6.219  47.575  0.00  0.00    -0.015 A 
ATOM      7  C17 <0> A   1     -17.503   5.274  48.596  0.00  0.00    +0.066 A 
ATOM      8  C18 <0> A   1     -18.566   5.069  49.451  0.00  0.00    -0.013 A 
ATOM      9  C19 <0> A   1     -19.733   5.800  49.298  0.00  0.00    +0.103 A 
ATOM     10  C20 <0> A   1     -19.840   6.739  48.285  0.00  0.00    -0.015 A 
ATOM     11  C21 <0> A   1     -18.781   6.957  47.428  0.00  0.00    +0.080 A 
ATOM     12  F4  <0> A   1     -20.771   5.596  50.138  0.00  0.00    -0.139 F 
ENDBRANCH   2   6
BRANCH   1  15
ATOM     13  C1  <0> A   1     -15.318  10.205  49.307  0.00  0.00    -0.020 C 
ATOM     14  C2  <0> A   1     -15.614   9.561  48.126  0.00  0.00    +0.032 C 
ATOM     15  C3  <0> A   1     -15.231   8.240  47.985  0.00  0.00    -0.117 C 
ATOM     16  S1  <0> A   1     -14.442   7.917  49.554  0.00  0.00    +0.081 S 
ATOM     17  C4  <0> A   1     -14.665   9.530  50.286  0.00  0.00    +0.032 C 
ENDBRANCH   1  15
BRANCH   4  18
ATOM     18  C15 <0> A   1     -14.593   5.801  43.619  0.00  0.00    +0.565 C 
ATOM     19  F1  <0> A   1     -15.248   4.635  43.211  0.00  0.00    -0.148 F 
ATOM     20  F2  <0> A   1     -14.777   6.801  42.658  0.00  0.00    -0.166 F 
ATOM     21  F3  <0> A   1     -13.225   5.542  43.765  0.00  0.00    -0.161 F 
ENDBRANCH   4  18
BRANCH   5  22
ATOM     22  C8  <0> A   1     -13.374   7.955  45.482  0.00  0.00    +0.309 C 
BRANCH  22  23
ATOM     23  C9  <0> A   1     -13.718   9.312  44.865  0.00  0.00    -0.012 C 
BRANCH  23  24
ATOM     24  C10 <0> A   1     -12.818   9.565  43.653  0.00  0.00    +0.223 C 
BRANCH  24  25
ATOM     25  O4  <0> A   1     -12.055   8.389  43.375  0.00  0.00    -0.537 OA
ATOM     26  H15 <0> A   1     -11.201   8.563  42.957  0.00  0.00    +0.365 HD
ENDBRANCH  24  25
BRANCH  24  27
ATOM     27  C11 <0> A   1     -13.683   9.912  42.439  0.00  0.00    -0.045 C 
BRANCH  27  28
ATOM     28  C12 <0> A   1     -13.009  11.024  41.635  0.00  0.00    +0.233 C 
BRANCH  28  29
ATOM     29  O3  <0> A   1     -11.669  10.638  41.317  0.00  0.00    -0.527 OA
ATOM     30  H14 <0> A   1     -10.993  11.181  41.743  0.00  0.00    +0.350 HD
ENDBRANCH  28  29
BRANCH  28  31
ATOM     31  C13 <0> A   1     -13.791  11.265  40.342  0.00  0.00    -0.101 C 
BRANCH  31  32
ATOM     32  C14 <0> A   1     -12.858  11.156  39.163  0.00  0.00    +0.491 C 
ATOM     33  O1  <0> A   1     -12.382  12.163  38.668  0.00  0.00    -0.681 OA
ATOM     34  O2  <0> A   1     -12.581  10.061  38.704  0.00  0.00    -0.712 OA
ENDBRANCH  31  32
ENDBRANCH  28  31
ENDBRANCH  27  28
ENDBRANCH  24  27
ENDBRANCH  23  24
ENDBRANCH  22  23
ENDBRANCH   5  22
TORSDOF 12
ENDMDL
MODEL 7
REMARK VINA RESULT:      -7.3      2.827      4.094
REMARK  Name = CHEMBL121052
REMARK  12 active torsions:
REMARK  status: ('A' for Active; 'I' for Inactive)
REMARK    1  A    between atoms: C3_3  and  C5_6
REMARK    2  A    between atoms: C6_7  and  C16_28
REMARK    3  A    between atoms: C7_9  and  C15_24
REMARK    4  A    between atoms: N2_10  and  C8_11
REMARK    5  A    between atoms: C8_11  and  C9_12
REMARK    6  A    between atoms: C9_12  and  C10_13
REMARK    7  A    between atoms: C10_13  and  C11_15
REMARK    8  A    between atoms: C10_13  and  O4_23
REMARK    9  A    between atoms: C11_15  and  C12_16
REMARK   10  A    between atoms: C12_16  and  C13_18
REMARK   11  A    between atoms: C12_16  and  O3_22
REMARK   12  A    between atoms: C13_18  and  C14_19
REMARK                            x       y       z     vdW  Elec       q    Type
REMARK                         _______ _______ _______ _____ _____    ______ ____
ROOT
ATOM      1  C5  <0> A   1     -14.260   7.927  46.395  0.00  0.00    +0.115 C 
ATOM      2  C6  <0> A   1     -15.525   7.586  46.847  0.00  0.00    +0.073 C 
ATOM      3  N1  <0> A   1     -16.015   6.652  46.010  0.00  0.00    -0.413 NA
ATOM      4  C7  <0> A   1     -15.140   6.396  45.079  0.00  0.00    +0.119 C 
ATOM      5  N2  <0> A   1     -14.037   7.164  45.269  0.00  0.00    -0.413 N 
ENDROOT
BRANCH   2   6
ATOM      6  C16 <0> A   1     -16.212   8.146  48.033  0.00  0.00    -0.015 A 
ATOM      7  C17 <0> A   1     -16.730   7.295  49.009  0.00  0.00    +0.066 A 
ATOM      8  C18 <0> A   1     -17.370   7.823  50.112  0.00  0.00    -0.013 A 
ATOM      9  C19 <0> A   1     -17.496   9.196  50.252  0.00  0.00    +0.103 A 
ATOM     10  C20 <0> A   1     -16.982  10.046  49.285  0.00  0.00    -0.015 A 
ATOM     11  C21 <0> A   1     -16.336   9.529  48.182  0.00  0.00    +0.080 A 
ATOM     12  F4  <0> A   1     -18.122   9.707  51.334  0.00  0.00    -0.139 F 
ENDBRANCH   2   6
BRANCH   1  15
ATOM     13  C1  <0> A   1     -12.189  10.948  47.344  0.00  0.00    -0.020 C 
ATOM     14  C2  <0> A   1     -13.103  10.218  46.619  0.00  0.00    +0.032 C 
ATOM     15  C3  <0> A   1     -13.344   8.909  46.993  0.00  0.00    -0.117 C 
ATOM     16  S1  <0> A   1     -12.252   8.722  48.393  0.00  0.00    +0.081 S 
ATOM     17  C4  <0> A   1     -11.556  10.366  48.394  0.00  0.00    +0.032 C 
ENDBRANCH   1  15
BRANCH   4  18
ATOM     18  C15 <0> A   1     -15.326   5.405  43.959  0.00  0.00    +0.565 C 
ATOM     19  F1  <0> A   1     -15.300   6.076  42.732  0.00  0.00    -0.148 F 
ATOM     20  F2  <0> A   1     -14.296   4.460  43.997  0.00  0.00    -0.166 F 
ATOM     21  F3  <0> A   1     -16.558   4.757  44.111  0.00  0.00    -0.161 F 
ENDBRANCH   4  18
BRANCH   5  22
ATOM     22  C8  <0> A   1     -12.832   7.179  44.436  0.00  0.00    +0.309 C 
BRANCH  22  23
ATOM     23  C9  <0> A   1     -12.985   8.233  43.337  0.00  0.00    -0.012 C 
BRANCH  23  24
ATOM     24  C10 <0> A   1     -12.218   7.785  42.091  0.00  0.00    +0.223 C 
BRANCH  24  25
ATOM     25  O4  <0> A   1     -11.885   6.400  42.210  0.00  0.00    -0.537 OA
ATOM     26  H15 <0> A   1     -12.452   5.909  42.819  0.00  0.00    +0.365 HD
ENDBRANCH  24  25
BRANCH  24  27
ATOM     27  C11 <0> A   1     -13.090   7.995  40.852  0.00  0.00    -0.045 C 
BRANCH  27  28
ATOM     28  C12 <0> A   1     -12.566   9.192  40.056  0.00  0.00    +0.233 C 
BRANCH  28  29
ATOM     29  O3  <0> A   1     -12.994   9.083  38.696  0.00  0.00    -0.527 OA
ATOM     30  H14 <0> A   1     -12.281   8.873  38.077  0.00  0.00    +0.350 HD
ENDBRANCH  28  29
BRANCH  28  31
ATOM     31  C13 <0> A   1     -13.114  10.486  40.662  0.00  0.00    -0.101 C 
BRANCH  31  32
ATOM     32  C14 <0> A   1     -13.899  11.237  39.617  0.00  0.00    +0.491 C 
ATOM     33  O1  <0> A   1     -13.321  11.957  38.821  0.00  0.00    -0.681 OA
ATOM     34  O2  <0> A   1     -15.111  11.123  39.568  0.00  0.00    -0.712 OA
ENDBRANCH  31  32
ENDBRANCH  28  31
ENDBRANCH  27  28
ENDBRANCH  24  27
ENDBRANCH  23  24
ENDBRANCH  22  23
ENDBRANCH   5  22
TORSDOF 12
ENDMDL
MODEL 8
REMARK VINA RESULT:      -7.2      1.671      2.200
REMARK  Name = CHEMBL121052
REMARK  12 active torsions:
REMARK  status: ('A' for Active; 'I' for Inactive)
REMARK    1  A    between atoms: C3_3  and  C5_6
REMARK    2  A    between atoms: C6_7  and  C16_28
REMARK    3  A    between atoms: C7_9  and  C15_24
REMARK    4  A    between atoms: N2_10  and  C8_11
REMARK    5  A    between atoms: C8_11  and  C9_12
REMARK    6  A    between atoms: C9_12  and  C10_13
REMARK    7  A    between atoms: C10_13  and  C11_15
REMARK    8  A    between atoms: C10_13  and  O4_23
REMARK    9  A    between atoms: C11_15  and  C12_16
REMARK   10  A    between atoms: C12_16  and  C13_18
REMARK   11  A    between atoms: C12_16  and  O3_22
REMARK   12  A    between atoms: C13_18  and  C14_19
REMARK                            x       y       z     vdW  Elec       q    Type
REMARK                         _______ _______ _______ _____ _____    ______ ____
ROOT
ATOM      1  C5  <0> A   1     -14.508   7.837  45.941  0.00  0.00    +0.115 C 
ATOM      2  C6  <0> A   1     -14.690   8.480  47.155  0.00  0.00    +0.073 C 
ATOM      3  N1  <0> A   1     -14.294   9.758  47.000  0.00  0.00    -0.413 NA
ATOM      4  C7  <0> A   1     -13.884   9.943  45.777  0.00  0.00    +0.119 C 
ATOM      5  N2  <0> A   1     -13.991   8.782  45.082  0.00  0.00    -0.413 N 
ENDROOT
BRANCH   2   6
ATOM      6  C16 <0> A   1     -15.222   7.873  48.397  0.00  0.00    -0.015 A 
ATOM      7  C17 <0> A   1     -14.348   7.407  49.378  0.00  0.00    +0.066 A 
ATOM      8  C18 <0> A   1     -14.850   6.841  50.533  0.00  0.00    -0.013 A 
ATOM      9  C19 <0> A   1     -16.219   6.737  50.718  0.00  0.00    +0.103 A 
ATOM     10  C20 <0> A   1     -17.092   7.198  49.745  0.00  0.00    -0.015 A 
ATOM     11  C21 <0> A   1     -16.601   7.771  48.590  0.00  0.00    +0.080 A 
ATOM     12  F4  <0> A   1     -16.705   6.184  51.850  0.00  0.00    -0.139 F 
ENDBRANCH   2   6
BRANCH   1  15
ATOM     13  C1  <0> A   1     -14.504   4.087  45.441  0.00  0.00    -0.020 C 
ATOM     14  C2  <0> A   1     -14.002   5.315  45.807  0.00  0.00    +0.032 C 
ATOM     15  C3  <0> A   1     -14.801   6.430  45.634  0.00  0.00    -0.117 C 
ATOM     16  S1  <0> A   1     -16.283   5.714  44.942  0.00  0.00    +0.081 S 
ATOM     17  C4  <0> A   1     -15.757   4.009  44.926  0.00  0.00    +0.032 C 
ENDBRANCH   1  15
BRANCH   4  18
ATOM     18  C15 <0> A   1     -13.366  11.245  45.222  0.00  0.00    +0.565 C 
ATOM     19  F1  <0> A   1     -13.552  12.262  46.164  0.00  0.00    -0.148 F 
ATOM     20  F2  <0> A   1     -12.003  11.119  44.934  0.00  0.00    -0.166 F 
ATOM     21  F3  <0> A   1     -14.062  11.562  44.049  0.00  0.00    -0.161 F 
ENDBRANCH   4  18
BRANCH   5  22
ATOM     22  C8  <0> A   1     -13.628   8.572  43.678  0.00  0.00    +0.309 C 
BRANCH  22  23
ATOM     23  C9  <0> A   1     -12.204   8.018  43.598  0.00  0.00    -0.012 C 
BRANCH  23  24
ATOM     24  C10 <0> A   1     -11.856   7.716  42.138  0.00  0.00    +0.223 C 
BRANCH  24  25
ATOM     25  O4  <0> A   1     -11.593   6.319  41.991  0.00  0.00    -0.537 OA
ATOM     26  H15 <0> A   1     -11.778   5.975  41.107  0.00  0.00    +0.365 HD
ENDBRANCH  24  25
BRANCH  24  27
ATOM     27  C11 <0> A   1     -13.031   8.112  41.241  0.00  0.00    -0.045 C 
BRANCH  27  28
ATOM     28  C12 <0> A   1     -12.594   9.228  40.291  0.00  0.00    +0.233 C 
BRANCH  28  29
ATOM     29  O3  <0> A   1     -13.112   8.970  38.984  0.00  0.00    -0.527 OA
ATOM     30  H14 <0> A   1     -13.178   8.030  38.767  0.00  0.00    +0.350 HD
ENDBRANCH  28  29
BRANCH  28  31
ATOM     31  C13 <0> A   1     -13.130  10.568  40.798  0.00  0.00    -0.101 C 
BRANCH  31  32
ATOM     32  C14 <0> A   1     -13.896  11.252  39.694  0.00  0.00    +0.491 C 
ATOM     33  O1  <0> A   1     -15.109  11.145  39.637  0.00  0.00    -0.681 OA
ATOM     34  O2  <0> A   1     -13.302  11.912  38.859  0.00  0.00    -0.712 OA
ENDBRANCH  31  32
ENDBRANCH  28  31
ENDBRANCH  27  28
ENDBRANCH  24  27
ENDBRANCH  23  24
ENDBRANCH  22  23
ENDBRANCH   5  22
TORSDOF 12
ENDMDL
MODEL 9
REMARK VINA RESULT:      -7.2      4.522      8.424
REMARK  Name = CHEMBL121052
REMARK  12 active torsions:
REMARK  status: ('A' for Active; 'I' for Inactive)
REMARK    1  A    between atoms: C3_3  and  C5_6
REMARK    2  A    between atoms: C6_7  and  C16_28
REMARK    3  A    between atoms: C7_9  and  C15_24
REMARK    4  A    between atoms: N2_10  and  C8_11
REMARK    5  A    between atoms: C8_11  and  C9_12
REMARK    6  A    between atoms: C9_12  and  C10_13
REMARK    7  A    between atoms: C10_13  and  C11_15
REMARK    8  A    between atoms: C10_13  and  O4_23
REMARK    9  A    between atoms: C11_15  and  C12_16
REMARK   10  A    between atoms: C12_16  and  C13_18
REMARK   11  A    between atoms: C12_16  and  O3_22
REMARK   12  A    between atoms: C13_18  and  C14_19
REMARK                            x       y       z     vdW  Elec       q    Type
REMARK                         _______ _______ _______ _____ _____    ______ ____
ROOT
ATOM      1  C5  <0> A   1     -13.381   8.224  44.324  0.00  0.00    +0.115 C 
ATOM      2  C6  <0> A   1     -13.571   7.982  42.973  0.00  0.00    +0.073 C 
ATOM      3  N1  <0> A   1     -13.934   6.692  42.840  0.00  0.00    -0.413 NA
ATOM      4  C7  <0> A   1     -13.982   6.128  44.014  0.00  0.00    +0.119 C 
ATOM      5  N2  <0> A   1     -13.642   7.033  44.966  0.00  0.00    -0.413 N 
ENDROOT
BRANCH   2   6
ATOM      6  C16 <0> A   1     -13.404   8.963  41.876  0.00  0.00    -0.015 A 
ATOM      7  C17 <0> A   1     -13.805  10.286  42.054  0.00  0.00    +0.066 A 
ATOM      8  C18 <0> A   1     -13.647  11.196  41.028  0.00  0.00    -0.013 A 
ATOM      9  C19 <0> A   1     -13.091  10.796  39.823  0.00  0.00    +0.103 A 
ATOM     10  C20 <0> A   1     -12.691   9.482  39.642  0.00  0.00    -0.015 A 
ATOM     11  C21 <0> A   1     -12.838   8.566  40.663  0.00  0.00    +0.080 A 
ATOM     12  F4  <0> A   1     -12.938  11.690  38.823  0.00  0.00    -0.139 F 
ENDBRANCH   2   6
BRANCH   1  15
ATOM     13  C1  <0> A   1     -11.582  11.238  45.736  0.00  0.00    -0.020 C 
ATOM     14  C2  <0> A   1     -11.708  10.014  45.118  0.00  0.00    +0.032 C 
ATOM     15  C3  <0> A   1     -12.977   9.493  44.946  0.00  0.00    -0.117 C 
ATOM     16  S1  <0> A   1     -13.997  10.764  45.675  0.00  0.00    +0.081 S 
ATOM     17  C4  <0> A   1     -12.697  11.889  46.155  0.00  0.00    +0.032 C 
ENDBRANCH   1  15
BRANCH   4  18
ATOM     18  C15 <0> A   1     -14.352   4.689  44.272  0.00  0.00    +0.565 C 
ATOM     19  F1  <0> A   1     -13.691   4.237  45.419  0.00  0.00    -0.148 F 
ATOM     20  F2  <0> A   1     -15.734   4.590  44.459  0.00  0.00    -0.166 F 
ATOM     21  F3  <0> A   1     -13.972   3.907  43.175  0.00  0.00    -0.161 F 
ENDBRANCH   4  18
BRANCH   5  22
ATOM     22  C8  <0> A   1     -13.569   6.791  46.409  0.00  0.00    +0.309 C 
BRANCH  22  23
ATOM     23  C9  <0> A   1     -14.923   7.109  47.049  0.00  0.00    -0.012 C 
BRANCH  23  24
ATOM     24  C10 <0> A   1     -15.354   5.940  47.938  0.00  0.00    +0.223 C 
BRANCH  24  25
ATOM     25  O4  <0> A   1     -15.441   6.382  49.294  0.00  0.00    -0.537 OA
ATOM     26  H15 <0> A   1     -14.893   7.152  49.494  0.00  0.00    +0.365 HD
ENDBRANCH  24  25
BRANCH  24  27
ATOM     27  C11 <0> A   1     -16.720   5.427  47.479  0.00  0.00    -0.045 C 
BRANCH  27  28
ATOM     28  C12 <0> A   1     -17.811   6.392  47.947  0.00  0.00    +0.233 C 
BRANCH  28  29
ATOM     29  O3  <0> A   1     -18.584   6.817  46.822  0.00  0.00    -0.527 OA
ATOM     30  H14 <0> A   1     -18.923   6.091  46.281  0.00  0.00    +0.350 HD
ENDBRANCH  28  29
BRANCH  28  31
ATOM     31  C13 <0> A   1     -18.720   5.685  48.954  0.00  0.00    -0.101 C 
BRANCH  31  32
ATOM     32  C14 <0> A   1     -20.146   6.123  48.737  0.00  0.00    +0.491 C 
ATOM     33  O1  <0> A   1     -20.532   7.187  49.191  0.00  0.00    -0.681 OA
ATOM     34  O2  <0> A   1     -20.912   5.414  48.109  0.00  0.00    -0.712 OA
ENDBRANCH  31  32
ENDBRANCH  28  31
ENDBRANCH  27  28
ENDBRANCH  24  27
ENDBRANCH  23  24
ENDBRANCH  22  23
ENDBRANCH   5  22
TORSDOF 12
ENDMDL
MODEL 10
REMARK VINA RESULT:      -7.2     16.401     19.652
REMARK  Name = CHEMBL121052
REMARK  12 active torsions:
REMARK  status: ('A' for Active; 'I' for Inactive)
REMARK    1  A    between atoms: C3_3  and  C5_6
REMARK    2  A    between atoms: C6_7  and  C16_28
REMARK    3  A    between atoms: C7_9  and  C15_24
REMARK    4  A    between atoms: N2_10  and  C8_11
REMARK    5  A    between atoms: C8_11  and  C9_12
REMARK    6  A    between atoms: C9_12  and  C10_13
REMARK    7  A    between atoms: C10_13  and  C11_15
REMARK    8  A    between atoms: C10_13  and  O4_23
REMARK    9  A    between atoms: C11_15  and  C12_16
REMARK   10  A    between atoms: C12_16  and  C13_18
REMARK   11  A    between atoms: C12_16  and  O3_22
REMARK   12  A    between atoms: C13_18  and  C14_19
REMARK                            x       y       z     vdW  Elec       q    Type
REMARK                         _______ _______ _______ _____ _____    ______ ____
ROOT
ATOM      1  C5  <0> A   1     -26.275  -3.645  51.200  0.00  0.00    +0.115 C 
ATOM      2  C6  <0> A   1     -27.455  -3.020  50.827  0.00  0.00    +0.073 C 
ATOM      3  N1  <0> A   1     -28.318  -3.980  50.445  0.00  0.00    -0.413 NA
ATOM      4  C7  <0> A   1     -27.751  -5.148  50.558  0.00  0.00    +0.119 C 
ATOM      5  N2  <0> A   1     -26.483  -4.995  51.016  0.00  0.00    -0.413 N 
ENDROOT
BRANCH   2   6
ATOM      6  C16 <0> A   1     -27.718  -1.562  50.847  0.00  0.00    -0.015 A 
ATOM      7  C17 <0> A   1     -28.745  -1.047  51.637  0.00  0.00    +0.066 A 
ATOM      8  C18 <0> A   1     -28.985   0.311  51.651  0.00  0.00    -0.013 A 
ATOM      9  C19 <0> A   1     -28.208   1.163  50.883  0.00  0.00    +0.103 A 
ATOM     10  C20 <0> A   1     -27.186   0.656  50.096  0.00  0.00    -0.015 A 
ATOM     11  C21 <0> A   1     -26.933  -0.700  50.079  0.00  0.00    +0.080 A 
ATOM     12  F4  <0> A   1     -28.447   2.493  50.901  0.00  0.00    -0.139 F 
ENDBRANCH   2   6
BRANCH   1  15
ATOM     13  C1  <0> A   1     -23.589  -1.766  53.089  0.00  0.00    -0.020 C 
ATOM     14  C2  <0> A   1     -24.843  -2.281  52.850  0.00  0.00    +0.032 C 
ATOM     15  C3  <0> A   1     -25.048  -2.998  51.686  0.00  0.00    -0.117 C 
ATOM     16  S1  <0> A   1     -23.433  -2.934  50.927  0.00  0.00    +0.081 S 
ATOM     17  C4  <0> A   1     -22.601  -1.975  52.182  0.00  0.00    +0.032 C 
ENDBRANCH   1  15
BRANCH   4  18
ATOM     18  C15 <0> A   1     -28.403  -6.466  50.224  0.00  0.00    +0.565 C 
ATOM     19  F1  <0> A   1     -28.066  -7.413  51.198  0.00  0.00    -0.148 F 
ATOM     20  F2  <0> A   1     -29.791  -6.304  50.191  0.00  0.00    -0.166 F 
ATOM     21  F3  <0> A   1     -27.954  -6.904  48.973  0.00  0.00    -0.161 F 
ENDBRANCH   4  18
BRANCH   5  22
ATOM     22  C8  <0> A   1     -25.515  -6.065  51.272  0.00  0.00    +0.309 C 
BRANCH  22  23
ATOM     23  C9  <0> A   1     -24.712  -6.340  49.999  0.00  0.00    -0.012 C 
BRANCH  23  24
ATOM     24  C10 <0> A   1     -24.968  -7.776  49.536  0.00  0.00    +0.223 C 
BRANCH  24  25
ATOM     25  O4  <0> A   1     -24.660  -7.889  48.145  0.00  0.00    -0.537 OA
ATOM     26  H15 <0> A   1     -24.821  -7.081  47.639  0.00  0.00    +0.365 HD
ENDBRANCH  24  25
BRANCH  24  27
ATOM     27  C11 <0> A   1     -24.082  -8.735  50.334  0.00  0.00    -0.045 C 
BRANCH  27  28
ATOM     28  C12 <0> A   1     -24.766 -10.100  50.429  0.00  0.00    +0.233 C 
BRANCH  28  29
ATOM     29  O3  <0> A   1     -26.050 -10.034  49.805  0.00  0.00    -0.527 OA
ATOM     30  H14 <0> A   1     -26.740 -10.524  50.274  0.00  0.00    +0.350 HD
ENDBRANCH  28  29
BRANCH  28  31
ATOM     31  C13 <0> A   1     -23.907 -11.150  49.722  0.00  0.00    -0.101 C 
BRANCH  31  32
ATOM     32  C14 <0> A   1     -24.580 -11.568  48.439  0.00  0.00    +0.491 C 
ATOM     33  O1  <0> A   1     -25.177 -12.630  48.382  0.00  0.00    -0.681 OA
ATOM     34  O2  <0> A   1     -24.528 -10.845  47.460  0.00  0.00    -0.712 OA
ENDBRANCH  31  32
ENDBRANCH  28  31
ENDBRANCH  27  28
ENDBRANCH  24  27
ENDBRANCH  23  24
ENDBRANCH  22  23
ENDBRANCH   5  22
TORSDOF 12
ENDMDL
