REMARK  Name = CHEMBL157724
REMARK  8 active torsions:
REMARK  status: ('A' for Active; 'I' for Inactive)
REMARK    1  A    between atoms: C1_1  and  C2_2
REMARK    2  A    between atoms: C2_2  and  C3_3
REMARK    3  A    between atoms: C2_2  and  C4_4
REMARK    4  A    between atoms: C5_5  and  C21_24
REMARK    5  A    between atoms: C6_6  and  C15_17
REMARK    6  A    between atoms: C8_8  and  C9_10
REMARK    7  A    between atoms: C22_25  and  C23_26
REMARK    8  A    between atoms: C25_28  and  O3_34
REMARK                            x       y       z     vdW  Elec       q    Type
REMARK                         _______ _______ _______ _____ _____    ______ ____
ROOT
ATOM      1  C4  <0> A   1      -1.412  -0.526   0.013  0.00  0.00    +0.166 A 
ATOM      2  C5  <0> A   1      -1.856  -1.332  -1.035  0.00  0.00    -0.097 A 
ATOM      3  C6  <0> A   1      -3.183  -1.813  -1.011  0.00  0.00    +0.013 A 
ATOM      4  C7  <0> A   1      -3.992  -1.457   0.066  0.00  0.00    -0.014 A 
ATOM      5  C8  <0> A   1      -3.466  -0.648   1.069  0.00  0.00    +0.177 A 
ATOM      6  N1  <0> A   1      -2.210  -0.219   1.013  0.00  0.00    -0.468 NA
ENDROOT
BRANCH   5   7
ATOM      7  C9  <0> A   1      -4.318  -0.262   2.219  0.00  0.00    -0.061 A 
ATOM      8  C10 <0> A   1      -5.635  -0.714   2.296  0.00  0.00    +0.065 A 
ATOM      9  C11 <0> A   1      -6.424  -0.353   3.368  0.00  0.00    -0.016 A 
ATOM     10  C12 <0> A   1      -5.910   0.458   4.367  0.00  0.00    +0.111 A 
ATOM     11  C13 <0> A   1      -4.602   0.909   4.295  0.00  0.00    -0.018 A 
ATOM     12  C14 <0> A   1      -3.803   0.548   3.230  0.00  0.00    +0.097 A 
ATOM     13  F1  <0> A   1      -6.687   0.810   5.415  0.00  0.00    -0.136 F 
ENDBRANCH   5   7
BRANCH   3  14
ATOM     14  C15 <0> A   1      -3.701  -2.672  -2.101  0.00  0.00    -0.067 A 
ATOM     15  C16 <0> A   1      -3.534  -2.291  -3.432  0.00  0.00    +0.076 A 
ATOM     16  C17 <0> A   1      -4.018  -3.094  -4.444  0.00  0.00    -0.013 A 
ATOM     17  C18 <0> A   1      -4.669  -4.279  -4.139  0.00  0.00    +0.109 A 
ATOM     18  C19 <0> A   1      -4.837  -4.662  -2.818  0.00  0.00    -0.013 A 
ATOM     19  C20 <0> A   1      -4.352  -3.868  -1.800  0.00  0.00    +0.061 A 
ATOM     20  F2  <0> A   1      -5.142  -5.062  -5.133  0.00  0.00    -0.136 F 
ENDBRANCH   3  14
BRANCH   1  22
ATOM     21  C1  <0> A   1      -0.019   1.526   0.010  0.00  0.00    +0.038 C 
ATOM     22  C2  <0> A   1       0.002  -0.004   0.002  0.00  0.00    +0.043 C 
ATOM     23  C3  <0> A   1       0.742  -0.511   1.242  0.00  0.00    +0.039 C 
ENDBRANCH   1  22
BRANCH   2  24
ATOM     24  C21 <0> A   1      -0.955  -1.677  -2.151  0.00  0.00    +0.047 C 
ATOM     25  C22 <0> A   1      -0.821  -2.942  -2.530  0.00  0.00    -0.010 C 
BRANCH  25  26
ATOM     26  C23 <0> A   1       0.101  -3.293  -3.670  0.00  0.00    +0.242 C 
ATOM     27  C24 <0> A   1       1.113  -4.343  -3.203  0.00  0.00    +0.050 C 
ATOM     28  C25 <0> A   1       2.073  -4.667  -4.352  0.00  0.00    +0.186 C 
ATOM     29  C26 <0> A   1       2.796  -3.381  -4.772  0.00  0.00    +0.024 C 
ATOM     30  C27 <0> A   1       1.756  -2.314  -5.031  0.00  0.00    +0.498 C 
ATOM     31  O1  <0> A   1       1.780  -1.655  -6.043  0.00  0.00    -0.450 OA
ATOM     32  O2  <0> A   1       0.800  -2.120  -4.098  0.00  0.00    -0.369 OA
BRANCH  28  33
ATOM     33  O3  <0> A   1       1.336  -5.189  -5.459  0.00  0.00    -0.564 OA
ATOM     34  H25 <0> A   1       1.883  -5.416  -6.224  0.00  0.00    +0.387 HD
ENDBRANCH  28  33
ENDBRANCH  25  26
ENDBRANCH   2  24
TORSDOF 6
