REMARK VINA RESULT:      -7.5     10.551     13.687
REMARK  Name = CHEMBL329307
REMARK  14 active torsions:
REMARK  status: ('A' for Active; 'I' for Inactive)
REMARK    1  A    between atoms: C1_1  and  C2_2
REMARK    2  A    between atoms: C2_2  and  C3_3
REMARK    3  A    between atoms: C2_2  and  C4_4
REMARK    4  A    between atoms: C6_6  and  C22_29
REMARK    5  A    between atoms: C8_8  and  C16_22
REMARK    6  A    between atoms: C9_9  and  O1_10
REMARK    7  A    between atoms: O1_10  and  C10_11
REMARK    8  A    between atoms: C10_11  and  C11_12
REMARK    9  A    between atoms: C11_12  and  C12_13
REMARK   10  A    between atoms: C11_12  and  O5_21
REMARK   11  A    between atoms: C12_13  and  C13_14
REMARK   12  A    between atoms: C13_14  and  C14_16
REMARK   13  A    between atoms: C13_14  and  O4_20
REMARK   14  A    between atoms: C14_16  and  C15_17
REMARK                            x       y       z     vdW  Elec       q    Type
REMARK                         _______ _______ _______ _____ _____    ______ ____
ROOT
ATOM      1  C4  <0> A   1      -3.817   5.166  48.269  0.00  0.00    -0.085 A 
ATOM      2  C5  <0> A   1      -2.825   5.993  48.755  0.00  0.00    +0.040 A 
ATOM      3  C6  <0> A   1      -2.627   6.115  50.129  0.00  0.00    -0.052 A 
ATOM      4  C7  <0> A   1      -3.430   5.402  51.015  0.00  0.00    +0.043 A 
ATOM      5  C8  <0> A   1      -4.429   4.569  50.523  0.00  0.00    -0.059 A 
ATOM      6  C9  <0> A   1      -4.625   4.457  49.143  0.00  0.00    +0.119 A 
ENDROOT
BRANCH   5   7
ATOM      7  C16 <0> A   1      -5.288   3.805  51.461  0.00  0.00    -0.061 A 
ATOM      8  C17 <0> A   1      -4.980   2.482  51.772  0.00  0.00    +0.083 A 
ATOM      9  C18 <0> A   1      -5.782   1.776  52.645  0.00  0.00    -0.013 A 
ATOM     10  C19 <0> A   1      -6.893   2.380  53.212  0.00  0.00    +0.104 A 
ATOM     11  C20 <0> A   1      -7.203   3.694  52.904  0.00  0.00    -0.020 A 
ATOM     12  C21 <0> A   1      -6.404   4.410  52.038  0.00  0.00    +0.052 A 
ATOM     13  F1  <0> A   1      -7.676   1.684  54.065  0.00  0.00    -0.138 F 
ENDBRANCH   5   7
BRANCH   3  14
ATOM     14  C22 <0> A   1      -1.559   7.005  50.648  0.00  0.00    -0.047 A 
ATOM     15  C23 <0> A   1      -0.393   6.459  51.183  0.00  0.00    +0.053 A 
ATOM     16  C24 <0> A   1       0.599   7.291  51.664  0.00  0.00    -0.011 A 
ATOM     17  C25 <0> A   1       0.436   8.665  51.615  0.00  0.00    +0.096 A 
ATOM     18  C26 <0> A   1      -0.721   9.212  51.084  0.00  0.00    -0.011 A 
ATOM     19  C27 <0> A   1      -1.715   8.389  50.596  0.00  0.00    +0.053 A 
ATOM     20  F2  <0> A   1       1.409   9.475  52.087  0.00  0.00    -0.140 F 
ENDBRANCH   3  14
BRANCH   1  22
ATOM     21  C1  <0> A   1      -4.424   6.400  46.204  0.00  0.00    +0.030 C 
ATOM     22  C2  <0> A   1      -4.027   5.040  46.781  0.00  0.00    +0.033 C 
ATOM     23  C3  <0> A   1      -2.730   4.564  46.122  0.00  0.00    +0.025 C 
ENDBRANCH   1  22
BRANCH   6  24
ATOM     24  O1  <0> A   1      -5.604   3.649  48.660  0.00  0.00    -0.316 OA
BRANCH  24  25
ATOM     25  C10 <0> A   1      -6.859   4.259  48.356  0.00  0.00    +0.151 C 
BRANCH  25  26
ATOM     26  C11 <0> A   1      -7.587   3.430  47.295  0.00  0.00    +0.225 C 
BRANCH  26  27
ATOM     27  O5  <0> A   1      -8.971   3.331  47.635  0.00  0.00    -0.531 OA
ATOM     28  H19 <0> A   1      -9.253   2.439  47.880  0.00  0.00    +0.363 HD
ENDBRANCH  26  27
BRANCH  26  29
ATOM     29  C12 <0> A   1      -7.443   4.109  45.931  0.00  0.00    -0.043 C 
BRANCH  29  30
ATOM     30  C13 <0> A   1      -7.028   3.071  44.886  0.00  0.00    +0.235 C 
BRANCH  30  31
ATOM     31  O4  <0> A   1      -6.084   3.654  43.986  0.00  0.00    -0.526 OA
ATOM     32  H18 <0> A   1      -5.271   3.958  44.412  0.00  0.00    +0.350 HD
ENDBRANCH  30  31
BRANCH  30  33
ATOM     33  C14 <0> A   1      -6.392   1.869  45.587  0.00  0.00    -0.101 C 
BRANCH  33  34
ATOM     34  C15 <0> A   1      -5.970   0.853  44.557  0.00  0.00    +0.491 C 
ATOM     35  O2  <0> A   1      -4.857   0.358  44.610  0.00  0.00    -0.680 OA
ATOM     36  O3  <0> A   1      -6.742   0.526  43.671  0.00  0.00    -0.713 OA
ENDBRANCH  33  34
ENDBRANCH  30  33
ENDBRANCH  29  30
ENDBRANCH  26  29
ENDBRANCH  25  26
ENDBRANCH  24  25
ENDBRANCH   6  24
TORSDOF 12
