REMARK VINA RESULT:      -7.4      1.889      4.510
REMARK  Name = CHEMBL403646
REMARK  17 active torsions:
REMARK  status: ('A' for Active; 'I' for Inactive)
REMARK    1  A    between atoms: C1_1  and  C2_2
REMARK    2  A    between atoms: C2_2  and  C3_3
REMARK    3  A    between atoms: C2_2  and  C4_4
REMARK    4  A    between atoms: C5_5  and  S1_35
REMARK    5  A    between atoms: C6_6  and  C21_29
REMARK    6  A    between atoms: C7_7  and  C15_22
REMARK    7  A    between atoms: N1_8  and  C8_9
REMARK    8  A    between atoms: C8_9  and  C9_10
REMARK    9  A    between atoms: C9_10  and  C10_11
REMARK   10  A    between atoms: C10_11  and  C11_13
REMARK   11  A    between atoms: C10_11  and  O4_21
REMARK   12  A    between atoms: C11_13  and  C12_14
REMARK   13  A    between atoms: C12_14  and  C13_16
REMARK   14  A    between atoms: C12_14  and  O3_20
REMARK   15  A    between atoms: C13_16  and  C14_17
REMARK   16  A    between atoms: S1_35  and  N2_38
REMARK   17  A    between atoms: N2_38  and  C27_39
REMARK                            x       y       z     vdW  Elec       q    Type
REMARK                         _______ _______ _______ _____ _____    ______ ____
ROOT
ATOM      1  C4  <0> A   1     -14.041   9.820  46.664  0.00  0.00    +0.161 C 
ATOM      2  C5  <0> A   1     -13.675   8.796  45.868  0.00  0.00    -0.669 C 
ATOM      3  C6  <0> A   1     -14.577   7.729  46.100  0.00  0.00    -0.026 C 
ATOM      4  C7  <0> A   1     -15.478   8.166  47.055  0.00  0.00    +0.032 C 
ATOM      5  N1  <0> A   1     -15.132   9.449  47.394  0.00  0.00    -0.421 N 
ENDROOT
BRANCH   4   6
ATOM      6  C15 <0> A   1     -16.604   7.391  47.613  0.00  0.00    -0.011 A 
ATOM      7  C16 <0> A   1     -16.397   6.540  48.701  0.00  0.00    +0.050 A 
ATOM      8  C17 <0> A   1     -17.453   5.819  49.219  0.00  0.00    -0.013 A 
ATOM      9  C18 <0> A   1     -18.716   5.938  48.661  0.00  0.00    +0.096 A 
ATOM     10  C19 <0> A   1     -18.927   6.781  47.583  0.00  0.00    -0.014 A 
ATOM     11  C20 <0> A   1     -17.881   7.512  47.060  0.00  0.00    +0.073 A 
ATOM     12  F1  <0> A   1     -19.747   5.228  49.173  0.00  0.00    -0.142 F 
ENDBRANCH   4   6
BRANCH   3  13
ATOM     13  C21 <0> A   1     -14.558   6.400  45.446  0.00  0.00    +0.003 A 
ATOM     14  C22 <0> A   1     -13.910   5.329  46.058  0.00  0.00    +0.010 A 
ATOM     15  C23 <0> A   1     -13.896   4.093  45.445  0.00  0.00    -0.014 A 
ATOM     16  C24 <0> A   1     -14.525   3.916  44.225  0.00  0.00    -0.014 A 
ATOM     17  C25 <0> A   1     -15.171   4.975  43.613  0.00  0.00    -0.001 A 
ATOM     18  C26 <0> A   1     -15.195   6.214  44.220  0.00  0.00    +0.047 A 
ENDBRANCH   3  13
BRANCH   1  20
ATOM     19  C1  <0> A   1     -14.402  12.270  46.792  0.00  0.00    +0.029 C 
ATOM     20  C2  <0> A   1     -13.352  11.159  46.739  0.00  0.00    +0.069 C 
ATOM     21  C3  <0> A   1     -12.485  11.216  47.998  0.00  0.00    +0.036 C 
ENDBRANCH   1  20
BRANCH   2  22
ATOM     22  S1  <0> A   1     -12.320   8.786  44.743  0.00  0.00    +2.629 S 
ATOM     23  O5  <0> A   1     -11.148   8.587  45.520  0.00  0.00    -1.024 OA
ATOM     24  O6  <0> A   1     -12.684   7.921  43.676  0.00  0.00    -1.042 OA
BRANCH  22  25
ATOM     25  N2  <0> A   1     -12.208  10.308  44.099  0.00  0.00    -1.093 NA
BRANCH  25  26
ATOM     26  C27 <0> A   1     -12.849  10.606  42.894  0.00  0.00    +0.284 A 
ATOM     27  C28 <0> A   1     -14.089  11.231  42.903  0.00  0.00    -0.173 A 
ATOM     28  C29 <0> A   1     -14.720  11.525  41.709  0.00  0.00    +0.029 A 
ATOM     29  C30 <0> A   1     -14.118  11.197  40.509  0.00  0.00    -0.141 A 
ATOM     30  C31 <0> A   1     -12.883  10.574  40.497  0.00  0.00    +0.017 A 
ATOM     31  C32 <0> A   1     -12.245  10.283  41.686  0.00  0.00    -0.080 A 
ENDBRANCH  25  26
ENDBRANCH  22  25
ENDBRANCH   2  22
BRANCH   5  32
ATOM     32  C8  <0> A   1     -15.822  10.285  48.379  0.00  0.00    +0.293 C 
BRANCH  32  33
ATOM     33  C9  <0> A   1     -15.254  10.009  49.772  0.00  0.00    -0.023 C 
BRANCH  33  34
ATOM     34  C10 <0> A   1     -16.398   9.682  50.734  0.00  0.00    +0.217 C 
BRANCH  34  35
ATOM     35  O4  <0> A   1     -16.297  10.509  51.894  0.00  0.00    -0.540 OA
ATOM     36  H19 <0> A   1     -15.694  10.169  52.568  0.00  0.00    +0.366 HD
ENDBRANCH  34  35
BRANCH  34  37
ATOM     37  C11 <0> A   1     -17.737   9.940  50.039  0.00  0.00    -0.049 C 
BRANCH  37  38
ATOM     38  C12 <0> A   1     -18.784   8.958  50.569  0.00  0.00    +0.231 C 
BRANCH  38  39
ATOM     39  O3  <0> A   1     -18.289   8.324  51.750  0.00  0.00    -0.528 OA
ATOM     40  H18 <0> A   1     -18.253   7.360  51.693  0.00  0.00    +0.350 HD
ENDBRANCH  38  39
BRANCH  38  41
ATOM     41  C13 <0> A   1     -20.072   9.716  50.899  0.00  0.00    -0.102 C 
BRANCH  41  42
ATOM     42  C14 <0> A   1     -21.256   8.942  50.380  0.00  0.00    +0.491 C 
ATOM     43  O1  <0> A   1     -22.233   9.535  49.954  0.00  0.00    -0.681 OA
ATOM     44  O2  <0> A   1     -21.239   7.722  50.385  0.00  0.00    -0.715 OA
ENDBRANCH  41  42
ENDBRANCH  38  41
ENDBRANCH  37  38
ENDBRANCH  34  37
ENDBRANCH  33  34
ENDBRANCH  32  33
ENDBRANCH   5  32
TORSDOF 15
