REMARK VINA RESULT:      -7.4     15.867     19.320
REMARK  Name = CHEMBL401949
REMARK  16 active torsions:
REMARK  status: ('A' for Active; 'I' for Inactive)
REMARK    1  A    between atoms: C1_1  and  C2_2
REMARK    2  A    between atoms: C2_2  and  C3_3
REMARK    3  A    between atoms: C2_2  and  C4_4
REMARK    4  A    between atoms: C5_5  and  S1_35
REMARK    5  A    between atoms: C6_6  and  C21_29
REMARK    6  A    between atoms: C7_7  and  C15_22
REMARK    7  A    between atoms: N1_8  and  C8_9
REMARK    8  A    between atoms: C8_9  and  C9_10
REMARK    9  A    between atoms: C9_10  and  C10_11
REMARK   10  A    between atoms: C10_11  and  C11_13
REMARK   11  A    between atoms: C10_11  and  O4_21
REMARK   12  A    between atoms: C11_13  and  C12_14
REMARK   13  A    between atoms: C12_14  and  C13_16
REMARK   14  A    between atoms: C12_14  and  O3_20
REMARK   15  A    between atoms: C13_16  and  C14_17
REMARK   16  A    between atoms: S1_35  and  N2_38
REMARK                            x       y       z     vdW  Elec       q    Type
REMARK                         _______ _______ _______ _____ _____    ______ ____
ROOT
ATOM      1  C4  <0> A   1     -27.557  -4.813  51.543  0.00  0.00    +0.174 C 
ATOM      2  C5  <0> A   1     -28.176  -3.618  51.497  0.00  0.00    -0.733 C 
ATOM      3  C6  <0> A   1     -27.184  -2.616  51.623  0.00  0.00    -0.027 C 
ATOM      4  C7  <0> A   1     -25.968  -3.268  51.743  0.00  0.00    +0.063 C 
ATOM      5  N1  <0> A   1     -26.216  -4.615  51.698  0.00  0.00    -0.415 N 
ENDROOT
BRANCH   4   6
ATOM      6  C15 <0> A   1     -24.646  -2.629  51.897  0.00  0.00    -0.029 A 
ATOM      7  C16 <0> A   1     -23.789  -2.517  50.799  0.00  0.00    +0.046 A 
ATOM      8  C17 <0> A   1     -22.555  -1.918  50.950  0.00  0.00    -0.007 A 
ATOM      9  C18 <0> A   1     -22.166  -1.430  52.186  0.00  0.00    +0.106 A 
ATOM     10  C19 <0> A   1     -23.012  -1.538  53.279  0.00  0.00    -0.008 A 
ATOM     11  C20 <0> A   1     -24.250  -2.129  53.139  0.00  0.00    +0.075 A 
ATOM     12  F1  <0> A   1     -20.956  -0.845  52.328  0.00  0.00    -0.137 F 
ENDBRANCH   4   6
BRANCH   3  13
ATOM     13  C21 <0> A   1     -27.403  -1.150  51.625  0.00  0.00    -0.042 A 
ATOM     14  C22 <0> A   1     -27.654  -0.482  52.822  0.00  0.00    +0.052 A 
ATOM     15  C23 <0> A   1     -27.858   0.883  52.819  0.00  0.00    +0.004 A 
ATOM     16  C24 <0> A   1     -27.814   1.587  51.629  0.00  0.00    +0.008 A 
ATOM     17  C25 <0> A   1     -27.567   0.930  50.437  0.00  0.00    -0.003 A 
ATOM     18  C26 <0> A   1     -27.356  -0.434  50.429  0.00  0.00    +0.020 A 
ENDBRANCH   3  13
BRANCH   1  20
ATOM     19  C1  <0> A   1     -28.117  -6.684  50.016  0.00  0.00    +0.045 C 
ATOM     20  C2  <0> A   1     -28.237  -6.154  51.446  0.00  0.00    +0.043 C 
ATOM     21  C3  <0> A   1     -27.569  -7.136  52.411  0.00  0.00    +0.050 C 
ENDBRANCH   1  20
BRANCH   2  22
ATOM     22  S1  <0> A   1     -29.907  -3.349  51.313  0.00  0.00    +2.707 S 
ATOM     23  O5  <0> A   1     -30.131  -1.966  51.549  0.00  0.00    -0.953 OA
ATOM     24  O6  <0> A   1     -30.290  -3.987  50.102  0.00  0.00    -0.948 OA
BRANCH  22  25
ATOM     25  N2  <0> A   1     -30.663  -4.167  52.539  0.00  0.00    -0.998 NA
ATOM     26  C27 <0> A   1     -31.778  -5.086  52.262  0.00  0.00    +0.268 C 
ATOM     27  C28 <0> A   1     -31.488  -6.422  52.957  0.00  0.00    +0.209 C 
ATOM     28  O7  <0> A   1     -31.190  -6.181  54.334  0.00  0.00    -0.376 OA
ATOM     29  C29 <0> A   1     -30.023  -5.385  54.550  0.00  0.00    +0.212 C 
ATOM     30  C30 <0> A   1     -30.234  -4.001  53.937  0.00  0.00    +0.265 C 
ENDBRANCH  22  25
ENDBRANCH   2  22
BRANCH   5  31
ATOM     31  C8  <0> A   1     -25.205  -5.671  51.797  0.00  0.00    +0.296 C 
BRANCH  31  32
ATOM     32  C9  <0> A   1     -24.574  -5.903  50.422  0.00  0.00    -0.014 C 
BRANCH  32  33
ATOM     33  C10 <0> A   1     -24.857  -7.336  49.967  0.00  0.00    +0.218 C 
BRANCH  33  34
ATOM     34  O4  <0> A   1     -24.657  -7.436  48.555  0.00  0.00    -0.541 OA
ATOM     35  H19 <0> A   1     -25.389  -7.856  48.083  0.00  0.00    +0.367 HD
ENDBRANCH  33  34
BRANCH  33  36
ATOM     36  C11 <0> A   1     -23.907  -8.296  50.685  0.00  0.00    -0.047 C 
BRANCH  36  37
ATOM     37  C12 <0> A   1     -24.514  -9.700  50.698  0.00  0.00    +0.231 C 
BRANCH  37  38
ATOM     38  O3  <0> A   1     -25.857  -9.643  50.213  0.00  0.00    -0.528 OA
ATOM     39  H18 <0> A   1     -26.168 -10.469  49.817  0.00  0.00    +0.350 HD
ENDBRANCH  37  38
BRANCH  37  40
ATOM     40  C13 <0> A   1     -23.686 -10.622  49.801  0.00  0.00    -0.102 C 
BRANCH  40  41
ATOM     41  C14 <0> A   1     -24.511 -11.036  48.609  0.00  0.00    +0.491 C 
ATOM     42  O1  <0> A   1     -25.032 -12.139  48.583  0.00  0.00    -0.681 OA
ATOM     43  O2  <0> A   1     -24.658 -10.271  47.672  0.00  0.00    -0.712 OA
ENDBRANCH  40  41
ENDBRANCH  37  40
ENDBRANCH  36  37
ENDBRANCH  33  36
ENDBRANCH  32  33
ENDBRANCH  31  32
ENDBRANCH   5  31
TORSDOF 14
