REMARK VINA RESULT:      -8.4      2.584      5.798
REMARK  Name = CHEMBL340139
REMARK  9 active torsions:
REMARK  status: ('A' for Active; 'I' for Inactive)
REMARK    1  A    between atoms: C1_1  and  C2_2
REMARK    2  A    between atoms: C2_2  and  C3_3
REMARK    3  A    between atoms: C2_2  and  C4_4
REMARK    4  A    between atoms: C5_5  and  C23_26
REMARK    5  A    between atoms: C6_6  and  C17_19
REMARK    6  A    between atoms: N1_7  and  C7_9
REMARK    7  A    between atoms: C23_26  and  C24_27
REMARK    8  A    between atoms: C24_27  and  C25_28
REMARK    9  A    between atoms: C27_31  and  O3_37
REMARK                            x       y       z     vdW  Elec       q    Type
REMARK                         _______ _______ _______ _____ _____    ______ ____
ROOT
ATOM      1  C4  <0> A   1     -13.460  10.050  46.604  0.00  0.00    +0.094 C 
ATOM      2  C5  <0> A   1     -14.180   8.867  46.764  0.00  0.00    -0.200 C 
ATOM      3  C6  <0> A   1     -14.087   8.158  45.599  0.00  0.00    +0.131 C 
ATOM      4  N1  <0> A   1     -13.324   8.893  44.737  0.00  0.00    -0.319 N 
ATOM      5  N2  <0> A   1     -12.953  10.072  45.396  0.00  0.00    -0.269 NA
ENDROOT
BRANCH   4   6
ATOM      6  C7  <0> A   1     -12.978   8.535  43.431  0.00  0.00    +0.160 A 
ATOM      7  C8  <0> A   1     -12.270   7.378  43.192  0.00  0.00    +0.020 A 
ATOM      8  C9  <0> A   1     -11.919   7.013  41.895  0.00  0.00    +0.031 A 
ATOM      9  C10 <0> A   1     -12.266   7.786  40.829  0.00  0.00    +0.036 A 
ATOM     10  C11 <0> A   1     -12.990   8.973  41.030  0.00  0.00    -0.040 A 
ATOM     11  C12 <0> A   1     -13.357   9.352  42.345  0.00  0.00    -0.044 A 
ATOM     12  C13 <0> A   1     -14.084  10.536  42.544  0.00  0.00    +0.039 A 
ATOM     13  C14 <0> A   1     -14.432  11.302  41.472  0.00  0.00    +0.010 A 
ATOM     14  C15 <0> A   1     -14.078  10.926  40.178  0.00  0.00    +0.018 A 
ATOM     15  C16 <0> A   1     -13.362   9.791  39.948  0.00  0.00    +0.023 A 
ENDBRANCH   4   6
BRANCH   3  16
ATOM     16  C17 <0> A   1     -14.699   6.841  45.323  0.00  0.00    -0.047 A 
ATOM     17  C18 <0> A   1     -15.835   6.752  44.516  0.00  0.00    +0.082 A 
ATOM     18  C19 <0> A   1     -16.402   5.521  44.260  0.00  0.00    -0.006 A 
ATOM     19  C20 <0> A   1     -15.846   4.373  44.804  0.00  0.00    +0.113 A 
ATOM     20  C21 <0> A   1     -14.719   4.456  45.606  0.00  0.00    -0.011 A 
ATOM     21  C22 <0> A   1     -14.141   5.682  45.862  0.00  0.00    +0.065 A 
ATOM     22  F1  <0> A   1     -16.405   3.170  44.551  0.00  0.00    -0.136 F 
ENDBRANCH   3  16
BRANCH   1  24
ATOM     23  C1  <0> A   1     -11.931  11.795  47.479  0.00  0.00    +0.035 C 
ATOM     24  C2  <0> A   1     -13.298  11.129  47.645  0.00  0.00    +0.075 C 
ATOM     25  C3  <0> A   1     -14.400  12.176  47.471  0.00  0.00    +0.035 C 
ENDBRANCH   1  24
BRANCH   2  26
ATOM     26  C23 <0> A   1     -14.927   8.444  48.002  0.00  0.00    +0.112 C 
BRANCH  26  27
ATOM     27  C24 <0> A   1     -16.421   8.713  47.814  0.00  0.00    +0.055 C 
BRANCH  27  28
ATOM     28  C25 <0> A   1     -17.192   7.393  47.894  0.00  0.00    +0.197 C 
ATOM     29  C26 <0> A   1     -16.743   6.614  49.134  0.00  0.00    +0.040 C 
ATOM     30  C27 <0> A   1     -17.545   5.313  49.234  0.00  0.00    +0.183 C 
ATOM     31  C28 <0> A   1     -19.037   5.657  49.334  0.00  0.00    +0.020 C 
ATOM     32  C29 <0> A   1     -19.387   6.591  48.195  0.00  0.00    +0.496 C 
ATOM     33  O1  <0> A   1     -20.346   6.381  47.491  0.00  0.00    -0.453 OA
ATOM     34  O2  <0> A   1     -18.595   7.663  47.987  0.00  0.00    -0.365 OA
BRANCH  30  35
ATOM     35  O3  <0> A   1     -17.312   4.516  48.070  0.00  0.00    -0.563 OA
ATOM     36  H29 <0> A   1     -17.387   3.564  48.224  0.00  0.00    +0.386 HD
ENDBRANCH  30  35
ENDBRANCH  27  28
ENDBRANCH  26  27
ENDBRANCH   2  26
TORSDOF 7
