REMARK  Name = CHEMBL120897
REMARK  9 active torsions:
REMARK  status: ('A' for Active; 'I' for Inactive)
REMARK    1  A    between atoms: C1_1  and  C2_2
REMARK    2  A    between atoms: C2_2  and  C3_3
REMARK    3  A    between atoms: C2_2  and  C4_4
REMARK    4  A    between atoms: C6_6  and  C21_28
REMARK    5  A    between atoms: C7_7  and  C15_21
REMARK    6  A    between atoms: N1_8  and  C8_9
REMARK    7  A    between atoms: C8_9  and  C9_10
REMARK    8  A    between atoms: C9_10  and  C10_11
REMARK    9  A    between atoms: C12_14  and  O3_20
REMARK                            x       y       z     vdW  Elec       q    Type
REMARK                         _______ _______ _______ _____ _____    ______ ____
ROOT
ATOM      1  C4  <0> A   1      -1.412  -0.526   0.013  0.00  0.00    +0.043 C 
ATOM      2  C5  <0> A   1      -2.451   0.046   0.650  0.00  0.00    -0.028 C 
ATOM      3  C6  <0> A   1      -3.595  -0.753   0.410  0.00  0.00    -0.116 C 
ATOM      4  C7  <0> A   1      -3.184  -1.809  -0.388  0.00  0.00    +0.069 C 
ATOM      5  N1  <0> A   1      -1.846  -1.650  -0.627  0.00  0.00    -0.426 N 
ENDROOT
BRANCH   4   6
ATOM      6  C15 <0> A   1      -4.037  -2.903  -0.895  0.00  0.00    -0.028 A 
ATOM      7  C16 <0> A   1      -3.938  -3.309  -2.227  0.00  0.00    +0.043 A 
ATOM      8  C17 <0> A   1      -4.737  -4.332  -2.695  0.00  0.00    -0.008 A 
ATOM      9  C18 <0> A   1      -5.637  -4.955  -1.845  0.00  0.00    +0.104 A 
ATOM     10  C19 <0> A   1      -5.741  -4.555  -0.522  0.00  0.00    -0.007 A 
ATOM     11  C20 <0> A   1      -4.943  -3.538  -0.042  0.00  0.00    +0.070 A 
ATOM     12  F1  <0> A   1      -6.418  -5.955  -2.309  0.00  0.00    -0.137 F 
ENDBRANCH   4   6
BRANCH   3  13
ATOM     13  C21 <0> A   1      -4.965  -0.508   0.914  0.00  0.00    +0.044 A 
ATOM     14  C22 <0> A   1      -6.065  -0.538   0.050  0.00  0.00    -0.033 A 
ATOM     15  C23 <0> A   1      -7.324  -0.305   0.562  0.00  0.00    +0.254 A 
ATOM     16  N2  <0> A   1      -7.497  -0.056   1.847  0.00  0.00    -0.491 NA
ATOM     17  C24 <0> A   1      -6.487  -0.018   2.696  0.00  0.00    +0.254 A 
ATOM     18  C25 <0> A   1      -5.196  -0.247   2.269  0.00  0.00    -0.032 A 
ENDBRANCH   3  13
BRANCH   1  20
ATOM     19  C1  <0> A   1      -0.019   1.526   0.010  0.00  0.00    +0.040 C 
ATOM     20  C2  <0> A   1       0.002  -0.004   0.002  0.00  0.00    +0.048 C 
ATOM     21  C3  <0> A   1       0.742  -0.511   1.242  0.00  0.00    +0.033 C 
ENDBRANCH   1  20
BRANCH   5  22
ATOM     22  C8  <0> A   1      -1.013  -2.545  -1.434  0.00  0.00    +0.292 C 
BRANCH  22  23
ATOM     23  C9  <0> A   1      -0.425  -3.639  -0.540  0.00  0.00    +0.052 C 
BRANCH  23  24
ATOM     24  C10 <0> A   1       0.444  -4.574  -1.383  0.00  0.00    +0.203 C 
ATOM     25  C11 <0> A   1       0.933  -5.738  -0.517  0.00  0.00    +0.045 C 
ATOM     26  C12 <0> A   1       1.837  -6.649  -1.353  0.00  0.00    +0.187 C 
ATOM     27  C13 <0> A   1       3.029  -5.831  -1.865  0.00  0.00    +0.025 C 
ATOM     28  C14 <0> A   1       2.495  -4.587  -2.542  0.00  0.00    +0.497 C 
ATOM     29  O1  <0> A   1       2.883  -4.262  -3.640  0.00  0.00    -0.449 OA
ATOM     30  O2  <0> A   1       1.574  -3.852  -1.887  0.00  0.00    -0.370 OA
BRANCH  26  31
ATOM     31  O3  <0> A   1       1.099  -7.169  -2.461  0.00  0.00    -0.564 OA
ATOM     32  H19 <0> A   1       1.611  -7.756  -3.034  0.00  0.00    +0.388 HD
ENDBRANCH  26  31
ENDBRANCH  23  24
ENDBRANCH  22  23
ENDBRANCH   5  22
TORSDOF 7
