REMARK VINA RESULT:      -7.3     23.517     25.342
REMARK  Name = CHEMBL121309
REMARK  13 active torsions:
REMARK  status: ('A' for Active; 'I' for Inactive)
REMARK    1  A    between atoms: C1_1  and  C2_2
REMARK    2  A    between atoms: C2_2  and  C3_3
REMARK    3  A    between atoms: C2_2  and  C4_4
REMARK    4  A    between atoms: C5_5  and  C19_22
REMARK    5  A    between atoms: N1_6  and  C13_15
REMARK    6  A    between atoms: C6_7  and  C7_9
REMARK    7  A    between atoms: C20_23  and  C21_24
REMARK    8  A    between atoms: C21_24  and  C22_26
REMARK    9  A    between atoms: C21_24  and  O4_34
REMARK   10  A    between atoms: C22_26  and  C23_27
REMARK   11  A    between atoms: C23_27  and  C24_29
REMARK   12  A    between atoms: C23_27  and  O3_33
REMARK   13  A    between atoms: C24_29  and  C25_30
REMARK                            x       y       z     vdW  Elec       q    Type
REMARK                         _______ _______ _______ _____ _____    ______ ____
ROOT
ATOM      1  C4  <0> A   1       4.324  22.246  33.486  0.00  0.00    +0.037 C 
ATOM      2  C5  <0> A   1       4.781  21.063  33.993  0.00  0.00    +0.029 C 
ATOM      3  N1  <0> A   1       5.377  21.356  35.203  0.00  0.00    -0.406 N 
ATOM      4  C6  <0> A   1       5.260  22.706  35.384  0.00  0.00    +0.248 C 
ATOM      5  N2  <0> A   1       4.633  23.217  34.345  0.00  0.00    -0.456 NA
ENDROOT
BRANCH   3   6
ATOM      6  C13 <0> A   1       5.986  20.445  36.077  0.00  0.00    +0.104 A 
ATOM      7  C14 <0> A   1       7.370  20.361  36.140  0.00  0.00    +0.069 A 
ATOM      8  C15 <0> A   1       7.968  19.463  37.003  0.00  0.00    +0.010 A 
ATOM      9  C16 <0> A   1       7.187  18.646  37.803  0.00  0.00    +0.115 A 
ATOM     10  C17 <0> A   1       5.806  18.728  37.741  0.00  0.00    +0.007 A 
ATOM     11  C18 <0> A   1       5.205  19.629  36.884  0.00  0.00    +0.063 A 
ATOM     12  F1  <0> A   1       7.773  17.766  38.645  0.00  0.00    -0.130 F 
ENDBRANCH   3   6
BRANCH   4  13
ATOM     13  C7  <0> A   1       5.758  23.466  36.549  0.00  0.00    -0.012 A 
ATOM     14  C8  <0> A   1       4.954  23.622  37.680  0.00  0.00    +0.010 A 
ATOM     15  C9  <0> A   1       5.426  24.333  38.764  0.00  0.00    +0.008 A 
ATOM     16  C10 <0> A   1       6.692  24.891  38.733  0.00  0.00    +0.013 A 
ATOM     17  C11 <0> A   1       7.493  24.741  37.614  0.00  0.00    +0.008 A 
ATOM     18  C12 <0> A   1       7.037  24.027  36.526  0.00  0.00    +0.057 A 
ENDBRANCH   4  13
BRANCH   1  20
ATOM     19  C1  <0> A   1       2.951  23.808  32.136  0.00  0.00    +0.030 C 
ATOM     20  C2  <0> A   1       3.600  22.423  32.176  0.00  0.00    +0.074 C 
ATOM     21  C3  <0> A   1       4.595  22.292  31.021  0.00  0.00    +0.030 C 
ENDBRANCH   1  20
BRANCH   2  22
ATOM     22  C19 <0> A   1       4.661  19.735  33.372  0.00  0.00    +0.043 C 
ATOM     23  C20 <0> A   1       5.500  19.374  32.405  0.00  0.00    -0.043 C 
BRANCH  23  24
ATOM     24  C21 <0> A   1       5.377  18.014  31.768  0.00  0.00    +0.252 C 
BRANCH  24  25
ATOM     25  O4  <0> A   1       4.189  17.374  32.240  0.00  0.00    -0.537 OA
ATOM     26  H26 <0> A   1       4.084  17.399  33.201  0.00  0.00    +0.367 HD
ENDBRANCH  24  25
BRANCH  24  27
ATOM     27  C22 <0> A   1       5.306  18.167  30.247  0.00  0.00    -0.041 C 
BRANCH  27  28
ATOM     28  C23 <0> A   1       4.145  17.332  29.705  0.00  0.00    +0.231 C 
BRANCH  28  29
ATOM     29  O3  <0> A   1       3.579  17.985  28.566  0.00  0.00    -0.528 OA
ATOM     30  H25 <0> A   1       2.615  17.924  28.516  0.00  0.00    +0.351 HD
ENDBRANCH  28  29
BRANCH  28  31
ATOM     31  C24 <0> A   1       4.658  15.950  29.297  0.00  0.00    -0.102 C 
BRANCH  31  32
ATOM     32  C25 <0> A   1       5.324  16.039  27.948  0.00  0.00    +0.491 C 
ATOM     33  O1  <0> A   1       4.647  16.092  26.935  0.00  0.00    -0.681 OA
ATOM     34  O2  <0> A   1       6.541  16.061  27.869  0.00  0.00    -0.713 OA
ENDBRANCH  31  32
ENDBRANCH  28  31
ENDBRANCH  27  28
ENDBRANCH  24  27
ENDBRANCH  23  24
ENDBRANCH   2  22
TORSDOF 11
