REMARK VINA RESULT:      -9.0      0.000      0.000
REMARK  Name = CHEMBL154699
REMARK  6 active torsions:
REMARK  status: ('A' for Active; 'I' for Inactive)
REMARK    1  A    between atoms: C4_4  and  C7_7
REMARK    2  A    between atoms: C9_9  and  C25_30
REMARK    3  A    between atoms: C10_10  and  C18_19
REMARK    4  A    between atoms: C11_11  and  C12_13
REMARK    5  A    between atoms: C19_20  and  C20_21
REMARK    6  A    between atoms: C22_23  and  O3_29
REMARK                            x       y       z     vdW  Elec       q    Type
REMARK                         _______ _______ _______ _____ _____    ______ ____
ROOT
ATOM      1  C7  <0> A   1     -28.057  -2.091  51.794  0.00  0.00    +0.178 A 
ATOM      2  C8  <0> A   1     -28.707  -3.321  51.745  0.00  0.00    -0.015 A 
ATOM      3  C9  <0> A   1     -27.949  -4.489  51.797  0.00  0.00    +0.012 A 
ATOM      4  C10 <0> A   1     -26.546  -4.369  51.896  0.00  0.00    -0.099 A 
ATOM      5  C11 <0> A   1     -25.979  -3.095  51.938  0.00  0.00    +0.164 A 
ATOM      6  N1  <0> A   1     -26.734  -2.019  51.882  0.00  0.00    -0.467 NA
ENDROOT
BRANCH   3   7
ATOM      7  C25 <0> A   1     -28.597  -5.820  51.749  0.00  0.00    -0.066 A 
ATOM      8  C26 <0> A   1     -28.849  -6.433  50.522  0.00  0.00    +0.075 A 
ATOM      9  C27 <0> A   1     -29.453  -7.672  50.483  0.00  0.00    -0.013 A 
ATOM     10  C28 <0> A   1     -29.809  -8.309  51.661  0.00  0.00    +0.109 A 
ATOM     11  C29 <0> A   1     -29.562  -7.705  52.883  0.00  0.00    -0.013 A 
ATOM     12  C30 <0> A   1     -28.953  -6.467  52.933  0.00  0.00    +0.061 A 
ATOM     13  F1  <0> A   1     -30.401  -9.522  51.617  0.00  0.00    -0.136 F 
ENDBRANCH   3   7
BRANCH   1  17
ATOM     14  C1  <0> A   1     -30.342   1.491  51.635  0.00  0.00    +0.017 A 
ATOM     15  C2  <0> A   1     -29.035   1.486  51.181  0.00  0.00    +0.000 A 
ATOM     16  C3  <0> A   1     -28.289   0.328  51.230  0.00  0.00    +0.057 A 
ATOM     17  C4  <0> A   1     -28.854  -0.841  51.738  0.00  0.00    -0.052 A 
ATOM     18  C5  <0> A   1     -30.171  -0.830  52.195  0.00  0.00    +0.024 A 
ATOM     19  C6  <0> A   1     -30.908   0.335  52.140  0.00  0.00    +0.003 A 
ENDBRANCH   1  17
BRANCH   5  20
ATOM     20  C12 <0> A   1     -24.483  -2.950  52.045  0.00  0.00    +0.054 C 
ATOM     21  C13 <0> A   1     -24.146  -1.892  53.097  0.00  0.00    +0.026 C 
ATOM     22  C14 <0> A   1     -22.627  -1.744  53.205  0.00  0.00    +0.005 C 
ATOM     23  C15 <0> A   1     -22.059  -1.315  51.851  0.00  0.00    +0.003 C 
ATOM     24  C16 <0> A   1     -22.396  -2.373  50.797  0.00  0.00    +0.006 C 
ATOM     25  C17 <0> A   1     -23.915  -2.520  50.690  0.00  0.00    +0.025 C 
ENDBRANCH   5  20
BRANCH   4  26
ATOM     26  C18 <0> A   1     -25.693  -5.571  51.955  0.00  0.00    +0.049 C 
ATOM     27  C19 <0> A   1     -25.191  -6.083  50.838  0.00  0.00    -0.012 C 
BRANCH  27  28
ATOM     28  C20 <0> A   1     -24.320  -7.312  50.898  0.00  0.00    +0.242 C 
ATOM     29  C21 <0> A   1     -25.125  -8.533  50.446  0.00  0.00    +0.050 C 
ATOM     30  C22 <0> A   1     -24.250  -9.785  50.548  0.00  0.00    +0.186 C 
ATOM     31  C23 <0> A   1     -23.796  -9.957  52.002  0.00  0.00    +0.024 C 
ATOM     32  C24 <0> A   1     -23.182  -8.654  52.465  0.00  0.00    +0.498 C 
ATOM     33  O1  <0> A   1     -22.109  -8.633  53.020  0.00  0.00    -0.450 OA
ATOM     34  O2  <0> A   1     -23.869  -7.514  52.242  0.00  0.00    -0.369 OA
BRANCH  30  35
ATOM     35  O3  <0> A   1     -23.107  -9.640  49.701  0.00  0.00    -0.563 OA
ATOM     36  H26 <0> A   1     -22.835 -10.460  49.265  0.00  0.00    +0.387 HD
ENDBRANCH  30  35
ENDBRANCH  27  28
ENDBRANCH   4  26
TORSDOF 6
