REMARK VINA RESULT:      -8.2      0.000      0.000
REMARK  Name = CHEMBL254036
REMARK  16 active torsions:
REMARK  status: ('A' for Active; 'I' for Inactive)
REMARK    1  A    between atoms: C1_1  and  C2_2
REMARK    2  A    between atoms: C2_2  and  C3_3
REMARK    3  A    between atoms: C2_2  and  C4_4
REMARK    4  A    between atoms: C5_5  and  C21_26
REMARK    5  A    between atoms: N2_7  and  C15_19
REMARK    6  A    between atoms: C6_8  and  C7_9
REMARK    7  A    between atoms: N3_11  and  C8_12
REMARK    8  A    between atoms: C8_12  and  C9_13
REMARK    9  A    between atoms: C21_26  and  C22_27
REMARK   10  A    between atoms: C22_27  and  C23_28
REMARK   11  A    between atoms: C23_28  and  C24_30
REMARK   12  A    between atoms: C23_28  and  O5_38
REMARK   13  A    between atoms: C24_30  and  C25_31
REMARK   14  A    between atoms: C25_31  and  C26_33
REMARK   15  A    between atoms: C25_31  and  O4_37
REMARK   16  A    between atoms: C26_33  and  C27_34
REMARK                            x       y       z     vdW  Elec       q    Type
REMARK                         _______ _______ _______ _____ _____    ______ ____
ROOT
ATOM      1  C4  <0> A   1     -14.717   6.711  45.632  0.00  0.00    -0.123 C 
ATOM      2  C5  <0> A   1     -13.911   7.225  44.613  0.00  0.00    +0.056 C 
ATOM      3  N1  <0> A   1     -13.634   8.470  44.910  0.00  0.00    -0.273 NA
ATOM      4  N2  <0> A   1     -14.182   8.811  46.020  0.00  0.00    -0.230 N 
ATOM      5  C6  <0> A   1     -14.886   7.753  46.528  0.00  0.00    -0.035 C 
ENDROOT
BRANCH   4   6
ATOM      6  C15 <0> A   1     -14.080  10.074  46.618  0.00  0.00    +0.120 A 
ATOM      7  C16 <0> A   1     -15.107  10.996  46.474  0.00  0.00    +0.057 A 
ATOM      8  C17 <0> A   1     -15.005  12.241  47.064  0.00  0.00    +0.015 A 
ATOM      9  C18 <0> A   1     -13.876  12.569  47.798  0.00  0.00    +0.109 A 
ATOM     10  C19 <0> A   1     -12.850  11.651  47.941  0.00  0.00    +0.012 A 
ATOM     11  C20 <0> A   1     -12.951  10.403  47.357  0.00  0.00    +0.080 A 
ATOM     12  F1  <0> A   1     -13.777  13.787  48.372  0.00  0.00    -0.132 F 
ENDBRANCH   4   6
BRANCH   5  13
ATOM     13  C7  <0> A   1     -15.663   7.726  47.776  0.00  0.00    +0.602 C 
ATOM     14  O1  <0> A   1     -15.092   7.644  48.846  0.00  0.00    -0.514 OA
ATOM     15  N3  <0> A   1     -17.009   7.794  47.734  0.00  0.00    -0.713 N 
ATOM     16  H10 <0> A   1     -17.469   7.785  46.879  0.00  0.00    +0.405 HD
BRANCH  15  17
ATOM     17  C8  <0> A   1     -17.777   7.880  48.977  0.00  0.00    +0.324 C 
BRANCH  17  18
ATOM     18  C9  <0> A   1     -18.517   6.587  49.201  0.00  0.00    -0.112 A 
ATOM     19  C10 <0> A   1     -17.821   5.444  49.550  0.00  0.00    +0.027 A 
ATOM     20  C11 <0> A   1     -18.499   4.257  49.756  0.00  0.00    +0.004 A 
ATOM     21  C12 <0> A   1     -19.874   4.213  49.613  0.00  0.00    +0.014 A 
ATOM     22  C13 <0> A   1     -20.569   5.356  49.264  0.00  0.00    +0.002 A 
ATOM     23  C14 <0> A   1     -19.892   6.544  49.063  0.00  0.00    +0.024 A 
ENDBRANCH  17  18
ENDBRANCH  15  17
ENDBRANCH   5  13
BRANCH   1  25
ATOM     24  C1  <0> A   1     -16.369   5.136  44.664  0.00  0.00    +0.023 C 
ATOM     25  C2  <0> A   1     -15.288   5.319  45.730  0.00  0.00    +0.066 C 
ATOM     26  C3  <0> A   1     -14.174   4.294  45.508  0.00  0.00    +0.030 C 
ENDBRANCH   1  25
BRANCH   2  27
ATOM     27  C21 <0> A   1     -13.442   6.479  43.391  0.00  0.00    +0.141 C 
BRANCH  27  28
ATOM     28  C22 <0> A   1     -13.770   7.294  42.139  0.00  0.00    -0.007 C 
BRANCH  28  29
ATOM     29  C23 <0> A   1     -12.475   7.651  41.408  0.00  0.00    +0.212 C 
BRANCH  29  30
ATOM     30  O5  <0> A   1     -11.526   6.597  41.579  0.00  0.00    -0.542 OA
ATOM     31  H31 <0> A   1     -10.605   6.890  41.565  0.00  0.00    +0.364 HD
ENDBRANCH  29  30
BRANCH  29  32
ATOM     32  C24 <0> A   1     -12.765   7.839  39.917  0.00  0.00    -0.052 C 
BRANCH  32  33
ATOM     33  C25 <0> A   1     -12.364   9.253  39.494  0.00  0.00    +0.230 C 
BRANCH  33  34
ATOM     34  O4  <0> A   1     -12.772   9.480  38.144  0.00  0.00    -0.528 OA
ATOM     35  H30 <0> A   1     -12.650   8.716  37.562  0.00  0.00    +0.350 HD
ENDBRANCH  33  34
BRANCH  33  36
ATOM     36  C26 <0> A   1     -13.044  10.273  40.410  0.00  0.00    -0.103 C 
BRANCH  36  37
ATOM     37  C27 <0> A   1     -13.850  11.237  39.579  0.00  0.00    +0.490 C 
ATOM     38  O2  <0> A   1     -15.068  11.196  39.607  0.00  0.00    -0.681 OA
ATOM     39  O3  <0> A   1     -13.283  12.058  38.878  0.00  0.00    -0.714 OA
ENDBRANCH  36  37
ENDBRANCH  33  36
ENDBRANCH  32  33
ENDBRANCH  29  32
ENDBRANCH  28  29
ENDBRANCH  27  28
ENDBRANCH   2  27
TORSDOF 14
