REMARK  Name = CHEMBL330995
REMARK  12 active torsions:
REMARK  status: ('A' for Active; 'I' for Inactive)
REMARK    1  A    between atoms: C3_3  and  C5_6
REMARK    2  A    between atoms: C6_7  and  C16_28
REMARK    3  A    between atoms: N1_8  and  C9_15
REMARK    4  A    between atoms: C7_9  and  C8_11
REMARK    5  A    between atoms: C9_15  and  C10_16
REMARK    6  A    between atoms: C10_16  and  C11_17
REMARK    7  A    between atoms: C11_17  and  C12_19
REMARK    8  A    between atoms: C11_17  and  O4_27
REMARK    9  A    between atoms: C12_19  and  C13_20
REMARK   10  A    between atoms: C13_20  and  C14_22
REMARK   11  A    between atoms: C13_20  and  O3_26
REMARK   12  A    between atoms: C14_22  and  C15_23
REMARK                            x       y       z     vdW  Elec       q    Type
REMARK                         _______ _______ _______ _____ _____    ______ ____
ROOT
ATOM      1  C5  <0> A   1       3.801   1.673  -0.019  0.00  0.00    +0.099 C 
ATOM      2  C6  <0> A   1       4.949   1.246   0.629  0.00  0.00    +0.082 C 
ATOM      3  N1  <0> A   1       5.926   2.166   0.324  0.00  0.00    -0.412 N 
ATOM      4  C7  <0> A   1       5.362   3.102  -0.480  0.00  0.00    +0.118 C 
ATOM      5  N2  <0> A   1       4.110   2.803  -0.684  0.00  0.00    -0.410 NA
ENDROOT
BRANCH   2   6
ATOM      6  C16 <0> A   1       5.094   0.046   1.476  0.00  0.00    -0.047 A 
ATOM      7  C17 <0> A   1       6.091  -0.892   1.199  0.00  0.00    +0.065 A 
ATOM      8  C18 <0> A   1       6.222  -2.010   1.995  0.00  0.00    -0.005 A 
ATOM      9  C19 <0> A   1       5.366  -2.205   3.067  0.00  0.00    +0.118 A 
ATOM     10  C20 <0> A   1       4.374  -1.279   3.347  0.00  0.00    -0.003 A 
ATOM     11  C21 <0> A   1       4.238  -0.153   2.563  0.00  0.00    +0.087 A 
ATOM     12  F4  <0> A   1       5.499  -3.304   3.843  0.00  0.00    -0.134 F 
ENDBRANCH   2   6
BRANCH   1  15
ATOM     13  C1  <0> A   1       0.135   0.735   0.025  0.00  0.00    -0.018 C 
ATOM     14  C2  <0> A   1       1.233   1.567  -0.008  0.00  0.00    +0.007 C 
ATOM     15  C3  <0> A   1       2.484   1.007   0.008  0.00  0.00    -0.072 C 
ATOM     16  S1  <0> A   1       2.105  -0.736   0.071  0.00  0.00    +0.074 S 
ATOM     17  C4  <0> A   1       0.324  -0.608   0.072  0.00  0.00    +0.009 C 
ENDBRANCH   1  15
BRANCH   4  18
ATOM     18  C8  <0> A   1       6.075   4.300  -1.054  0.00  0.00    +0.566 C 
ATOM     19  F1  <0> A   1       5.134   5.215  -1.538  0.00  0.00    -0.149 F 
ATOM     20  F2  <0> A   1       6.844   4.907  -0.055  0.00  0.00    -0.164 F 
ATOM     21  F3  <0> A   1       6.908   3.890  -2.100  0.00  0.00    -0.163 F 
ENDBRANCH   4  18
BRANCH   3  22
ATOM     22  C9  <0> A   1       7.318   2.140   0.782  0.00  0.00    +0.308 C 
BRANCH  22  23
ATOM     23  C10 <0> A   1       7.412   2.789   2.164  0.00  0.00    -0.008 C 
BRANCH  23  24
ATOM     24  C11 <0> A   1       8.878   2.869   2.591  0.00  0.00    +0.221 C 
BRANCH  24  25
ATOM     25  O4  <0> A   1       9.583   3.748   1.712  0.00  0.00    -0.540 OA
ATOM     26  H15 <0> A   1       9.239   4.652   1.701  0.00  0.00    +0.369 HD
ENDBRANCH  24  25
BRANCH  24  27
ATOM     27  C12 <0> A   1       8.964   3.402   4.023  0.00  0.00    -0.046 C 
BRANCH  27  28
ATOM     28  C13 <0> A   1      10.419   3.366   4.494  0.00  0.00    +0.232 C 
BRANCH  28  29
ATOM     29  O3  <0> A   1      11.198   4.269   3.707  0.00  0.00    -0.528 OA
ATOM     30  H14 <0> A   1      10.905   5.189   3.758  0.00  0.00    +0.351 HD
ENDBRANCH  28  29
BRANCH  28  31
ATOM     31  C14 <0> A   1      10.489   3.781   5.965  0.00  0.00    -0.102 C 
BRANCH  31  32
ATOM     32  C15 <0> A   1      11.903   3.627   6.464  0.00  0.00    +0.491 C 
ATOM     33  O1  <0> A   1      12.774   3.223   5.712  0.00  0.00    -0.681 OA
ATOM     34  O2  <0> A   1      12.176   3.906   7.619  0.00  0.00    -0.712 OA
ENDBRANCH  31  32
ENDBRANCH  28  31
ENDBRANCH  27  28
ENDBRANCH  24  27
ENDBRANCH  23  24
ENDBRANCH  22  23
ENDBRANCH   3  22
TORSDOF 12
