REMARK VINA RESULT:      -7.2     21.395     23.822
REMARK  Name = CHEMBL316712
REMARK  15 active torsions:
REMARK  status: ('A' for Active; 'I' for Inactive)
REMARK    1  A    between atoms: C1_1  and  C2_2
REMARK    2  A    between atoms: C6_6  and  C14_20
REMARK    3  A    between atoms: C7_7  and  O1_8
REMARK    4  A    between atoms: O1_8  and  C8_9
REMARK    5  A    between atoms: C8_9  and  C9_10
REMARK    6  A    between atoms: C9_10  and  C10_11
REMARK    7  A    between atoms: C9_10  and  O5_19
REMARK    8  A    between atoms: C10_11  and  C11_12
REMARK    9  A    between atoms: C11_12  and  C12_14
REMARK   10  A    between atoms: C11_12  and  O4_18
REMARK   11  A    between atoms: C12_14  and  C13_15
REMARK   12  A    between atoms: C14_20  and  C15_21
REMARK   13  A    between atoms: C15_21  and  C16_22
REMARK   14  A    between atoms: C16_22  and  O6_23
REMARK   15  A    between atoms: O6_23  and  C17_24
REMARK                            x       y       z     vdW  Elec       q    Type
REMARK                         _______ _______ _______ _____ _____    ______ ____
ROOT
ATOM      1  C1  <0> A   1     -15.907   5.795  44.300  0.00  0.00    +0.108 C 
ATOM      2  C2  <0> A   1     -15.043   6.644  45.195  0.00  0.00    -0.089 A 
ATOM      3  C3  <0> A   1     -15.539   7.107  46.398  0.00  0.00    +0.034 A 
ATOM      4  C4  <0> A   1     -14.746   7.887  47.220  0.00  0.00    -0.036 A 
ATOM      5  C5  <0> A   1     -13.454   8.205  46.840  0.00  0.00    +0.035 A 
ATOM      6  C6  <0> A   1     -12.954   7.744  45.637  0.00  0.00    -0.083 A 
ATOM      7  C7  <0> A   1     -13.746   6.957  44.814  0.00  0.00    +0.107 A 
ATOM      8 Cl2  <0> A   1     -15.372   8.469  48.732  0.00  0.00    -0.070 Cl
ENDROOT
BRANCH   7   9
ATOM      9  O1  <0> A   1     -13.253   6.497  43.634  0.00  0.00    -0.316 OA
BRANCH   9  10
ATOM     10  C8  <0> A   1     -13.618   7.214  42.454  0.00  0.00    +0.150 C 
BRANCH  10  11
ATOM     11  C9  <0> A   1     -12.362   7.535  41.642  0.00  0.00    +0.226 C 
BRANCH  11  12
ATOM     12  O5  <0> A   1     -11.381   6.518  41.860  0.00  0.00    -0.529 OA
ATOM     13  H15 <0> A   1     -11.695   5.622  41.675  0.00  0.00    +0.362 HD
ENDBRANCH  11  12
BRANCH  11  14
ATOM     14  C10 <0> A   1     -12.715   7.591  40.155  0.00  0.00    -0.042 C 
BRANCH  14  15
ATOM     15  C11 <0> A   1     -12.347   8.967  39.595  0.00  0.00    +0.235 C 
BRANCH  15  16
ATOM     16  O4  <0> A   1     -12.641   9.007  38.198  0.00  0.00    -0.526 OA
ATOM     17  H14 <0> A   1     -12.272   9.775  37.740  0.00  0.00    +0.350 HD
ENDBRANCH  15  16
BRANCH  15  18
ATOM     18  C12 <0> A   1     -13.156  10.045  40.319  0.00  0.00    -0.101 C 
BRANCH  18  19
ATOM     19  C13 <0> A   1     -13.205  11.290  39.472  0.00  0.00    +0.490 C 
ATOM     20  O2  <0> A   1     -12.179  11.902  39.228  0.00  0.00    -0.680 OA
ATOM     21  O3  <0> A   1     -14.271  11.686  39.032  0.00  0.00    -0.712 OA
ENDBRANCH  18  19
ENDBRANCH  15  18
ENDBRANCH  14  15
ENDBRANCH  11  14
ENDBRANCH  10  11
ENDBRANCH   9  10
ENDBRANCH   7   9
BRANCH   6  22
ATOM     22  C14 <0> A   1     -11.547   8.090  45.224  0.00  0.00    +0.088 C 
BRANCH  22  23
ATOM     23  C15 <0> A   1     -11.017   9.217  46.113  0.00  0.00    +0.049 C 
BRANCH  23  24
ATOM     24  C16 <0> A   1     -10.943  10.514  45.303  0.00  0.00    +0.192 C 
BRANCH  24  25
ATOM     25  O6  <0> A   1     -11.251  11.622  46.151  0.00  0.00    -0.309 OA
BRANCH  25  26
ATOM     26  C17 <0> A   1     -12.541  11.747  46.559  0.00  0.00    +0.141 A 
ATOM     27  C18 <0> A   1     -13.577  11.584  45.651  0.00  0.00    -0.059 A 
ATOM     28  C19 <0> A   1     -14.887  11.710  46.068  0.00  0.00    +0.068 A 
ATOM     29  C20 <0> A   1     -15.169  12.000  47.392  0.00  0.00    -0.076 A 
ATOM     30  C21 <0> A   1     -14.137  12.164  48.300  0.00  0.00    +0.069 A 
ATOM     31  C22 <0> A   1     -12.825  12.032  47.887  0.00  0.00    -0.001 A 
ATOM     32 Cl1  <0> A   1     -16.815  12.159  47.915  0.00  0.00    -0.074 Cl
ENDBRANCH  25  26
ENDBRANCH  24  25
ENDBRANCH  23  24
ENDBRANCH  22  23
ENDBRANCH   6  22
TORSDOF 14
