REMARK VINA RESULT:      -7.8      2.432      3.950
REMARK  Name = CHEMBL320943
REMARK  13 active torsions:
REMARK  status: ('A' for Active; 'I' for Inactive)
REMARK    1  A    between atoms: C1_1  and  C2_2
REMARK    2  A    between atoms: C2_2  and  C3_3
REMARK    3  A    between atoms: C3_3  and  C4_5
REMARK    4  A    between atoms: C3_3  and  C5_6
REMARK    5  A    between atoms: C5_6  and  O2_8
REMARK    6  A    between atoms: O2_8  and  C6_9
REMARK    7  A    between atoms: C13_20  and  C18_27
REMARK    8  A    between atoms: C16_23  and  O3_26
REMARK    9  A    between atoms: C20_30  and  C31_46
REMARK   10  A    between atoms: C21_31  and  C24_34
REMARK   11  A    between atoms: C24_34  and  C25_35
REMARK   12  A    between atoms: C25_35  and  C26_36
REMARK   13  A    between atoms: C28_39  and  O6_45
REMARK                            x       y       z     vdW  Elec       q    Type
REMARK                         _______ _______ _______ _____ _____    ______ ____
ROOT
ATOM      1  C6  <0> A   1     -22.848  -1.799  53.255  0.00  0.00    +0.188 C 
ATOM      2  C7  <0> A   1     -22.542  -0.522  54.056  0.00  0.00    +0.016 C 
ATOM      3  C8  <0> A   1     -22.250   0.656  53.132  0.00  0.00    +0.014 C 
ATOM      4  C9  <0> A   1     -23.397   0.894  52.138  0.00  0.00    +0.004 C 
ATOM      5  C10 <0> A   1     -23.031   2.059  51.218  0.00  0.00    +0.013 C 
ATOM      6  C11 <0> A   1     -22.817   3.321  52.056  0.00  0.00    +0.013 C 
ATOM      7  C12 <0> A   1     -21.682   3.087  53.054  0.00  0.00    +0.001 C 
ATOM      8  C13 <0> A   1     -22.045   1.929  53.955  0.00  0.00    -0.049 C 
ATOM      9  C14 <0> A   1     -20.917   1.708  54.966  0.00  0.00    +0.019 C 
ATOM     10  C15 <0> A   1     -19.625   1.366  54.222  0.00  0.00    -0.019 C 
ATOM     11  C16 <0> A   1     -19.254   2.519  53.287  0.00  0.00    +0.155 C 
ATOM     12  C17 <0> A   1     -20.395   2.759  52.294  0.00  0.00    +0.033 C 
ATOM     13  C18 <0> A   1     -23.339   2.269  54.698  0.00  0.00    +0.023 C 
ATOM     14  C19 <0> A   1     -23.584  -0.389  51.351  0.00  0.00    +0.003 C 
ATOM     15  C20 <0> A   1     -24.022  -1.494  52.347  0.00  0.00    -0.055 C 
ATOM     16  C21 <0> A   1     -24.498  -2.628  51.445  0.00  0.00    -0.002 C 
ATOM     17  C22 <0> A   1     -24.997  -1.938  50.150  0.00  0.00    +0.011 C 
ATOM     18  C23 <0> A   1     -24.725  -0.386  50.328  0.00  0.00    +0.018 C 
ATOM     19  C31 <0> A   1     -25.195  -0.967  53.177  0.00  0.00    +0.041 C 
ENDROOT
BRANCH  11  20
ATOM     20  O3  <0> A   1     -18.048   2.198  52.591  0.00  0.00    -0.568 OA
ATOM     21  H30 <0> A   1     -17.281   2.713  52.877  0.00  0.00    +0.377 HD
ENDBRANCH  11  20
BRANCH   1  22
ATOM     22  O2  <0> A   1     -21.710  -2.166  52.473  0.00  0.00    -0.335 OA
BRANCH  22  23
ATOM     23  C5  <0> A   1     -21.142  -3.352  52.740  0.00  0.00    +0.462 C 
ATOM     24  O1  <0> A   1     -21.815  -4.356  52.742  0.00  0.00    -0.506 OA
BRANCH  23  25
ATOM     25  C3  <0> A   1     -19.668  -3.433  53.038  0.00  0.00    +0.023 C 
ATOM     26  C4  <0> A   1     -19.140  -2.039  53.385  0.00  0.00    +0.058 C 
BRANCH  25  28
ATOM     27  C1  <0> A   1     -18.170  -5.197  53.979  0.00  0.00    +0.022 C 
ATOM     28  C2  <0> A   1     -19.436  -4.374  54.221  0.00  0.00    +0.031 C 
ENDBRANCH  25  28
ENDBRANCH  23  25
ENDBRANCH  22  23
ENDBRANCH   1  22
BRANCH  16  29
ATOM     29  C24 <0> A   1     -25.643  -3.392  52.113  0.00  0.00    +0.025 C 
BRANCH  29  30
ATOM     30  C25 <0> A   1     -26.301  -4.321  51.091  0.00  0.00    +0.047 C 
BRANCH  30  31
ATOM     31  C26 <0> A   1     -25.359  -5.486  50.780  0.00  0.00    +0.194 C 
ATOM     32  C27 <0> A   1     -26.012  -6.411  49.749  0.00  0.00    +0.039 C 
ATOM     33  C28 <0> A   1     -25.085  -7.598  49.471  0.00  0.00    +0.183 C 
ATOM     34  C29 <0> A   1     -24.841  -8.354  50.784  0.00  0.00    +0.021 C 
ATOM     35  C30 <0> A   1     -24.385  -7.358  51.827  0.00  0.00    +0.496 C 
ATOM     36  O4  <0> A   1     -23.408  -7.572  52.506  0.00  0.00    -0.454 OA
ATOM     37  O5  <0> A   1     -25.099  -6.224  51.980  0.00  0.00    -0.366 OA
BRANCH  33  38
ATOM     38  O6  <0> A   1     -23.842  -7.122  48.952  0.00  0.00    -0.564 OA
ATOM     39  H47 <0> A   1     -23.936  -6.492  48.224  0.00  0.00    +0.386 HD
ENDBRANCH  33  38
ENDBRANCH  30  31
ENDBRANCH  29  30
ENDBRANCH  16  29
TORSDOF 9
