REMARK VINA RESULT:      -7.5      3.867      8.174
REMARK  Name = CHEMBL102168
REMARK  15 active torsions:
REMARK  status: ('A' for Active; 'I' for Inactive)
REMARK    1  A    between atoms: C1_1  and  C2_2
REMARK    2  A    between atoms: C2_2  and  C3_3
REMARK    3  A    between atoms: C2_2  and  C4_4
REMARK    4  A    between atoms: C6_6  and  S1_29
REMARK    5  A    between atoms: C8_8  and  C16_22
REMARK    6  A    between atoms: C9_9  and  O1_10
REMARK    7  A    between atoms: O1_10  and  C10_11
REMARK    8  A    between atoms: C10_11  and  C11_12
REMARK    9  A    between atoms: C11_12  and  C12_13
REMARK   10  A    between atoms: C11_12  and  O5_21
REMARK   11  A    between atoms: C12_13  and  C13_14
REMARK   12  A    between atoms: C13_14  and  C14_16
REMARK   13  A    between atoms: C13_14  and  O4_20
REMARK   14  A    between atoms: C14_16  and  C15_17
REMARK   15  A    between atoms: S1_29  and  C22_30
REMARK                            x       y       z     vdW  Elec       q    Type
REMARK                         _______ _______ _______ _____ _____    ______ ____
ROOT
ATOM      1  C4  <0> A   1     -14.738   6.491  45.083  0.00  0.00    -0.097 A 
ATOM      2  C5  <0> A   1     -13.868   6.390  44.015  0.00  0.00    +0.091 A 
ATOM      3  C6  <0> A   1     -12.951   7.403  43.761  0.00  0.00    -0.151 A 
ATOM      4  C7  <0> A   1     -12.906   8.522  44.581  0.00  0.00    +0.095 A 
ATOM      5  C8  <0> A   1     -13.782   8.627  45.658  0.00  0.00    -0.070 A 
ATOM      6  C9  <0> A   1     -14.705   7.606  45.904  0.00  0.00    +0.147 A 
ENDROOT
BRANCH   5   7
ATOM      7  C16 <0> A   1     -13.740   9.820  46.538  0.00  0.00    -0.063 A 
ATOM      8  C17 <0> A   1     -14.391  10.992  46.160  0.00  0.00    +0.083 A 
ATOM      9  C18 <0> A   1     -14.349  12.099  46.982  0.00  0.00    -0.012 A 
ATOM     10  C19 <0> A   1     -13.660  12.047  48.183  0.00  0.00    +0.107 A 
ATOM     11  C20 <0> A   1     -13.010  10.884  48.563  0.00  0.00    -0.018 A 
ATOM     12  C21 <0> A   1     -13.051   9.770  47.749  0.00  0.00    +0.055 A 
ATOM     13  F1  <0> A   1     -13.621  13.134  48.984  0.00  0.00    -0.137 F 
ENDBRANCH   5   7
BRANCH   1  15
ATOM     14  C1  <0> A   1     -16.713   5.291  44.185  0.00  0.00    +0.031 C 
ATOM     15  C2  <0> A   1     -15.729   5.388  45.352  0.00  0.00    +0.035 C 
ATOM     16  C3  <0> A   1     -14.985   4.060  45.504  0.00  0.00    +0.028 C 
ENDBRANCH   1  15
BRANCH   6  17
ATOM     17  O1  <0> A   1     -15.566   7.706  46.953  0.00  0.00    -0.317 OA
BRANCH  17  18
ATOM     18  C10 <0> A   1     -16.813   8.359  46.708  0.00  0.00    +0.156 C 
BRANCH  18  19
ATOM     19  C11 <0> A   1     -17.933   7.603  47.425  0.00  0.00    +0.226 C 
BRANCH  19  20
ATOM     20  O5  <0> A   1     -18.772   6.964  46.460  0.00  0.00    -0.530 OA
ATOM     21  H19 <0> A   1     -18.705   6.000  46.458  0.00  0.00    +0.363 HD
ENDBRANCH  19  20
BRANCH  19  22
ATOM     22  C12 <0> A   1     -17.325   6.547  48.351  0.00  0.00    -0.042 C 
BRANCH  22  23
ATOM     23  C13 <0> A   1     -18.282   6.274  49.512  0.00  0.00    +0.235 C 
BRANCH  23  24
ATOM     24  O4  <0> A   1     -19.236   7.335  49.604  0.00  0.00    -0.526 OA
ATOM     25  H18 <0> A   1     -19.750   7.473  48.795  0.00  0.00    +0.350 HD
ENDBRANCH  23  24
BRANCH  23  26
ATOM     26  C14 <0> A   1     -19.013   4.952  49.271  0.00  0.00    -0.101 C 
BRANCH  26  27
ATOM     27  C15 <0> A   1     -20.479   5.220  49.049  0.00  0.00    +0.491 C 
ATOM     28  O2  <0> A   1     -21.266   5.112  49.975  0.00  0.00    -0.680 OA
ATOM     29  O3  <0> A   1     -20.879   5.544  47.944  0.00  0.00    -0.712 OA
ENDBRANCH  26  27
ENDBRANCH  23  26
ENDBRANCH  22  23
ENDBRANCH  19  22
ENDBRANCH  18  19
ENDBRANCH  17  18
ENDBRANCH   6  17
BRANCH   3  30
ATOM     30  S1  <0> A   1     -11.844   7.267  42.397  0.00  0.00    +0.004 S 
BRANCH  30  31
ATOM     31  C22 <0> A   1     -12.310   8.594  41.335  0.00  0.00    -0.110 A 
ATOM     32  C23 <0> A   1     -12.671   8.337  40.018  0.00  0.00    +0.067 A 
ATOM     33  C24 <0> A   1     -13.035   9.379  39.188  0.00  0.00    +0.004 A 
ATOM     34  C25 <0> A   1     -13.044  10.678  39.668  0.00  0.00    +0.093 A 
ATOM     35  C26 <0> A   1     -12.686  10.936  40.980  0.00  0.00    +0.005 A 
ATOM     36  C27 <0> A   1     -12.326   9.897  41.816  0.00  0.00    +0.040 A 
ATOM     37  F2  <0> A   1     -13.401  11.695  38.853  0.00  0.00    -0.139 F 
ENDBRANCH  30  31
ENDBRANCH   3  30
TORSDOF 13
