REMARK VINA RESULT:      -7.3     13.716     17.532
REMARK  Name = CHEMBL429487
REMARK  16 active torsions:
REMARK  status: ('A' for Active; 'I' for Inactive)
REMARK    1  A    between atoms: C1_1  and  C2_2
REMARK    2  A    between atoms: C2_2  and  C3_3
REMARK    3  A    between atoms: C2_2  and  C4_4
REMARK    4  A    between atoms: C5_5  and  S1_35
REMARK    5  A    between atoms: C6_6  and  C21_29
REMARK    6  A    between atoms: C7_7  and  C15_22
REMARK    7  A    between atoms: N1_8  and  C8_9
REMARK    8  A    between atoms: C8_9  and  C9_10
REMARK    9  A    between atoms: C9_10  and  C10_11
REMARK   10  A    between atoms: C10_11  and  C11_13
REMARK   11  A    between atoms: C10_11  and  O4_21
REMARK   12  A    between atoms: C11_13  and  C12_14
REMARK   13  A    between atoms: C12_14  and  C13_16
REMARK   14  A    between atoms: C12_14  and  O3_20
REMARK   15  A    between atoms: C13_16  and  C14_17
REMARK   16  A    between atoms: S1_35  and  N2_38
REMARK                            x       y       z     vdW  Elec       q    Type
REMARK                         _______ _______ _______ _____ _____    ______ ____
ROOT
ATOM      1  C4  <0> A   1     -26.568  -2.346  51.571  0.00  0.00    +0.174 C 
ATOM      2  C5  <0> A   1     -26.321  -1.022  51.591  0.00  0.00    -0.735 C 
ATOM      3  C6  <0> A   1     -24.955  -0.845  51.915  0.00  0.00    -0.022 C 
ATOM      4  C7  <0> A   1     -24.416  -2.109  52.083  0.00  0.00    +0.059 C 
ATOM      5  N1  <0> A   1     -25.420  -3.017  51.875  0.00  0.00    -0.412 N 
ENDROOT
BRANCH   4   6
ATOM      6  C15 <0> A   1     -23.015  -2.421  52.428  0.00  0.00    -0.027 A 
ATOM      7  C16 <0> A   1     -22.105  -2.764  51.425  0.00  0.00    +0.045 A 
ATOM      8  C17 <0> A   1     -20.797  -3.056  51.754  0.00  0.00    -0.008 A 
ATOM      9  C18 <0> A   1     -20.385  -3.009  53.076  0.00  0.00    +0.105 A 
ATOM     10  C19 <0> A   1     -21.284  -2.669  54.076  0.00  0.00    -0.008 A 
ATOM     11  C20 <0> A   1     -22.593  -2.370  53.758  0.00  0.00    +0.075 A 
ATOM     12  F1  <0> A   1     -19.104  -3.296  53.392  0.00  0.00    -0.137 F 
ENDBRANCH   4   6
BRANCH   3  13
ATOM     13  C21 <0> A   1     -24.239   0.445  52.048  0.00  0.00    -0.034 A 
ATOM     14  C22 <0> A   1     -23.743   1.092  50.916  0.00  0.00    +0.061 A 
ATOM     15  C23 <0> A   1     -23.077   2.293  51.046  0.00  0.00    -0.000 A 
ATOM     16  C24 <0> A   1     -22.900   2.857  52.298  0.00  0.00    +0.003 A 
ATOM     17  C25 <0> A   1     -23.389   2.220  53.424  0.00  0.00    -0.009 A 
ATOM     18  C26 <0> A   1     -24.062   1.022  53.305  0.00  0.00    +0.018 A 
ENDBRANCH   3  13
BRANCH   1  20
ATOM     19  C1  <0> A   1     -27.892  -3.532  49.842  0.00  0.00    +0.040 C 
ATOM     20  C2  <0> A   1     -27.900  -2.982  51.270  0.00  0.00    +0.059 C 
ATOM     21  C3  <0> A   1     -28.155  -4.125  52.255  0.00  0.00    +0.039 C 
ENDBRANCH   1  20
BRANCH   2  22
ATOM     22  S1  <0> A   1     -27.488   0.259  51.271  0.00  0.00    +2.727 S 
ATOM     23  O5  <0> A   1     -27.003   0.979  50.147  0.00  0.00    -0.947 OA
ATOM     24  O6  <0> A   1     -28.773  -0.349  51.290  0.00  0.00    -0.962 OA
BRANCH  22  25
ATOM     25  N2  <0> A   1     -27.438   1.300  52.557  0.00  0.00    -1.011 NA
ATOM     26  C27 <0> A   1     -27.085   2.726  52.492  0.00  0.00    +0.254 C 
ATOM     27  C28 <0> A   1     -27.148   3.280  53.930  0.00  0.00    +0.028 C 
ATOM     28  C29 <0> A   1     -26.982   2.008  54.801  0.00  0.00    +0.029 C 
ATOM     29  C30 <0> A   1     -27.746   0.954  53.957  0.00  0.00    +0.268 C 
ENDBRANCH  22  25
ENDBRANCH   2  22
BRANCH   5  30
ATOM     30  C8  <0> A   1     -25.283  -4.474  51.960  0.00  0.00    +0.294 C 
BRANCH  30  31
ATOM     31  C9  <0> A   1     -24.693  -5.007  50.653  0.00  0.00    -0.015 C 
BRANCH  31  32
ATOM     32  C10 <0> A   1     -25.298  -6.378  50.343  0.00  0.00    +0.218 C 
BRANCH  32  33
ATOM     33  O4  <0> A   1     -25.684  -6.430  48.968  0.00  0.00    -0.540 OA
ATOM     34  H19 <0> A   1     -25.151  -5.869  48.389  0.00  0.00    +0.366 HD
ENDBRANCH  32  33
BRANCH  32  35
ATOM     35  C11 <0> A   1     -24.261  -7.468  50.623  0.00  0.00    -0.047 C 
BRANCH  35  36
ATOM     36  C12 <0> A   1     -24.145  -8.387  49.405  0.00  0.00    +0.232 C 
BRANCH  36  37
ATOM     37  O3  <0> A   1     -23.267  -7.798  48.444  0.00  0.00    -0.528 OA
ATOM     38  H18 <0> A   1     -23.464  -8.042  47.530  0.00  0.00    +0.350 HD
ENDBRANCH  36  37
BRANCH  36  39
ATOM     39  C13 <0> A   1     -23.589  -9.744  49.842  0.00  0.00    -0.102 C 
BRANCH  39  40
ATOM     40  C14 <0> A   1     -24.281 -10.841  49.074  0.00  0.00    +0.491 C 
ATOM     41  O1  <0> A   1     -23.645 -11.803  48.678  0.00  0.00    -0.681 OA
ATOM     42  O2  <0> A   1     -25.477 -10.765  48.847  0.00  0.00    -0.712 OA
ENDBRANCH  39  40
ENDBRANCH  36  39
ENDBRANCH  35  36
ENDBRANCH  32  35
ENDBRANCH  31  32
ENDBRANCH  30  31
ENDBRANCH   5  30
TORSDOF 14
