REMARK VINA RESULT:      -7.7      4.280      8.813
REMARK  Name = CHEMBL154335
REMARK  8 active torsions:
REMARK  status: ('A' for Active; 'I' for Inactive)
REMARK    1  A    between atoms: C1_1  and  C2_2
REMARK    2  A    between atoms: C2_2  and  C3_3
REMARK    3  A    between atoms: C2_2  and  C4_4
REMARK    4  A    between atoms: C5_5  and  C20_23
REMARK    5  A    between atoms: C6_6  and  C14_16
REMARK    6  A    between atoms: C7_8  and  C8_10
REMARK    7  A    between atoms: C21_24  and  C22_25
REMARK    8  A    between atoms: C24_27  and  O3_33
REMARK                            x       y       z     vdW  Elec       q    Type
REMARK                         _______ _______ _______ _____ _____    ______ ____
ROOT
ATOM      1  C4  <0> A   1     -27.293  -5.106  51.896  0.00  0.00    +0.204 A 
ATOM      2  C5  <0> A   1     -26.880  -3.771  51.884  0.00  0.00    -0.160 A 
ATOM      3  C6  <0> A   1     -25.539  -3.495  51.546  0.00  0.00    +0.230 A 
ATOM      4  N1  <0> A   1     -24.732  -4.512  51.255  0.00  0.00    -0.504 NA
ATOM      5  C7  <0> A   1     -25.172  -5.753  51.281  0.00  0.00    +0.335 A 
ATOM      6  N2  <0> A   1     -26.417  -6.050  51.598  0.00  0.00    -0.510 NA
ENDROOT
BRANCH   3   7
ATOM      7  C14 <0> A   1     -25.040  -2.101  51.516  0.00  0.00    -0.071 A 
ATOM      8  C15 <0> A   1     -24.679  -1.461  52.701  0.00  0.00    +0.086 A 
ATOM      9  C16 <0> A   1     -24.216  -0.163  52.668  0.00  0.00    -0.018 A 
ATOM     10  C17 <0> A   1     -24.108   0.506  51.458  0.00  0.00    +0.120 A 
ATOM     11  C18 <0> A   1     -24.466  -0.125  50.278  0.00  0.00    -0.020 A 
ATOM     12  C19 <0> A   1     -24.925  -1.426  50.300  0.00  0.00    +0.096 A 
ATOM     13  F1  <0> A   1     -23.655   1.778  51.431  0.00  0.00    -0.135 F 
ENDBRANCH   3   7
BRANCH   5  14
ATOM     14  C8  <0> A   1     -24.220  -6.870  50.943  0.00  0.00    +0.080 C 
ATOM     15  C9  <0> A   1     -24.576  -7.446  49.571  0.00  0.00    +0.027 C 
ATOM     16  C10 <0> A   1     -23.608  -8.581  49.228  0.00  0.00    +0.011 C 
ATOM     17  C11 <0> A   1     -23.715  -9.680  50.286  0.00  0.00    +0.005 C 
ATOM     18  C12 <0> A   1     -23.359  -9.104  51.658  0.00  0.00    +0.011 C 
ATOM     19  C13 <0> A   1     -24.327  -7.969  52.002  0.00  0.00    +0.027 C 
ENDBRANCH   5  14
BRANCH   1  21
ATOM     20  C1  <0> A   1     -29.290  -6.386  51.173  0.00  0.00    +0.044 C 
ATOM     21  C2  <0> A   1     -28.714  -5.464  52.249  0.00  0.00    +0.045 C 
ATOM     22  C3  <0> A   1     -28.738  -6.181  53.601  0.00  0.00    +0.044 C 
ENDBRANCH   1  21
BRANCH   2  23
ATOM     23  C20 <0> A   1     -27.820  -2.681  52.217  0.00  0.00    +0.052 C 
ATOM     24  C21 <0> A   1     -28.505  -2.079  51.254  0.00  0.00    -0.007 C 
BRANCH  24  25
ATOM     25  C22 <0> A   1     -29.465  -0.967  51.593  0.00  0.00    +0.244 C 
ATOM     26  C23 <0> A   1     -28.784   0.022  52.542  0.00  0.00    +0.051 C 
ATOM     27  C24 <0> A   1     -29.776   1.129  52.918  0.00  0.00    +0.186 C 
ATOM     28  C25 <0> A   1     -30.994   0.492  53.599  0.00  0.00    +0.024 C 
ATOM     29  C26 <0> A   1     -31.510  -0.616  52.706  0.00  0.00    +0.498 C 
ATOM     30  O1  <0> A   1     -32.684  -0.694  52.429  0.00  0.00    -0.449 OA
ATOM     31  O2  <0> A   1     -30.623  -1.515  52.232  0.00  0.00    -0.370 OA
BRANCH  27  32
ATOM     32  O3  <0> A   1     -30.190   1.821  51.739  0.00  0.00    -0.563 OA
ATOM     33  H31 <0> A   1     -30.217   1.266  50.947  0.00  0.00    +0.388 HD
ENDBRANCH  27  32
ENDBRANCH  24  25
ENDBRANCH   2  23
TORSDOF 6
