MODEL 1
REMARK VINA RESULT:      -8.1      0.000      0.000
REMARK  Name = CHEMBL333258
REMARK  7 active torsions:
REMARK  status: ('A' for Active; 'I' for Inactive)
REMARK    1  A    between atoms: C1_1  and  C2_2
REMARK    2  A    between atoms: C2_2  and  C3_3
REMARK    3  A    between atoms: C2_2  and  C4_4
REMARK    4  A    between atoms: C5_5  and  C19_22
REMARK    5  A    between atoms: C6_6  and  C13_15
REMARK    6  A    between atoms: C20_23  and  C21_24
REMARK    7  A    between atoms: C23_27  and  O3_33
REMARK                            x       y       z     vdW  Elec       q    Type
REMARK                         _______ _______ _______ _____ _____    ______ ____
ROOT
ATOM      1  C4  <0> A   1     -28.947  -4.770  52.334  0.00  0.00    +0.189 A 
ATOM      2  C5  <0> A   1     -27.664  -4.282  52.042  0.00  0.00    -0.092 A 
ATOM      3  C6  <0> A   1     -27.461  -2.898  51.955  0.00  0.00    +0.028 A 
ATOM      4  C7  <0> A   1     -28.578  -2.052  52.170  0.00  0.00    -0.083 A 
ATOM      5  C8  <0> A   1     -28.457  -0.658  52.101  0.00  0.00    +0.057 A 
ATOM      6  C9  <0> A   1     -29.554   0.124  52.313  0.00  0.00    -0.031 A 
ATOM      7  C10 <0> A   1     -30.793  -0.447  52.599  0.00  0.00    +0.049 A 
ATOM      8  C11 <0> A   1     -30.942  -1.797  52.674  0.00  0.00    +0.071 A 
ATOM      9  C12 <0> A   1     -29.835  -2.636  52.460  0.00  0.00    +0.137 A 
ATOM     10  N1  <0> A   1     -29.962  -3.967  52.523  0.00  0.00    -0.462 NA
ATOM     11 Cl1  <0> A   1     -29.405   1.852  52.227  0.00  0.00    -0.060 Cl
ENDROOT
BRANCH   3  12
ATOM     12  C13 <0> A   1     -26.126  -2.338  51.650  0.00  0.00    -0.067 A 
ATOM     13  C14 <0> A   1     -25.811  -1.951  50.347  0.00  0.00    +0.073 A 
ATOM     14  C15 <0> A   1     -24.566  -1.429  50.068  0.00  0.00    -0.011 A 
ATOM     15  C16 <0> A   1     -23.627  -1.291  51.079  0.00  0.00    +0.110 A 
ATOM     16  C17 <0> A   1     -23.934  -1.675  52.374  0.00  0.00    -0.009 A 
ATOM     17  C18 <0> A   1     -25.179  -2.192  52.666  0.00  0.00    +0.067 A 
ATOM     18  F1  <0> A   1     -22.407  -0.780  50.799  0.00  0.00    -0.136 F 
ENDBRANCH   3  12
BRANCH   1  20
ATOM     19  C1  <0> A   1     -29.529  -6.633  53.864  0.00  0.00    +0.042 C 
ATOM     20  C2  <0> A   1     -29.161  -6.259  52.427  0.00  0.00    +0.037 C 
ATOM     21  C3  <0> A   1     -30.297  -6.670  51.486  0.00  0.00    +0.041 C 
ENDBRANCH   1  20
BRANCH   2  22
ATOM     22  C19 <0> A   1     -26.541  -5.215  51.829  0.00  0.00    +0.056 C 
ATOM     23  C20 <0> A   1     -26.255  -5.641  50.604  0.00  0.00    -0.014 C 
BRANCH  23  24
ATOM     24  C21 <0> A   1     -25.109  -6.593  50.386  0.00  0.00    +0.243 C 
ATOM     25  C22 <0> A   1     -25.484  -7.605  49.300  0.00  0.00    +0.051 C 
ATOM     26  C23 <0> A   1     -24.333  -8.598  49.110  0.00  0.00    +0.186 C 
ATOM     27  C24 <0> A   1     -24.075  -9.318  50.439  0.00  0.00    +0.023 C 
ATOM     28  C25 <0> A   1     -23.907  -8.273  51.521  0.00  0.00    +0.497 C 
ATOM     29  O1  <0> A   1     -22.973  -8.316  52.287  0.00  0.00    -0.449 OA
ATOM     30  O2  <0> A   1     -24.828  -7.291  51.605  0.00  0.00    -0.368 OA
BRANCH  26  31
ATOM     31  O3  <0> A   1     -23.157  -7.895  48.707  0.00  0.00    -0.564 OA
ATOM     32  H23 <0> A   1     -22.607  -8.379  48.075  0.00  0.00    +0.388 HD
ENDBRANCH  26  31
ENDBRANCH  23  24
ENDBRANCH   2  22
TORSDOF 5
ENDMDL
MODEL 2
REMARK VINA RESULT:      -8.1      2.531      4.437
REMARK  Name = CHEMBL333258
REMARK  7 active torsions:
REMARK  status: ('A' for Active; 'I' for Inactive)
REMARK    1  A    between atoms: C1_1  and  C2_2
REMARK    2  A    between atoms: C2_2  and  C3_3
REMARK    3  A    between atoms: C2_2  and  C4_4
REMARK    4  A    between atoms: C5_5  and  C19_22
REMARK    5  A    between atoms: C6_6  and  C13_15
REMARK    6  A    between atoms: C20_23  and  C21_24
REMARK    7  A    between atoms: C23_27  and  O3_33
REMARK                            x       y       z     vdW  Elec       q    Type
REMARK                         _______ _______ _______ _____ _____    ______ ____
ROOT
ATOM      1  C4  <0> A   1     -25.083  -1.391  52.037  0.00  0.00    +0.189 A 
ATOM      2  C5  <0> A   1     -25.844  -2.357  51.361  0.00  0.00    -0.092 A 
ATOM      3  C6  <0> A   1     -27.215  -2.138  51.167  0.00  0.00    +0.028 A 
ATOM      4  C7  <0> A   1     -27.768  -0.934  51.670  0.00  0.00    -0.083 A 
ATOM      5  C8  <0> A   1     -29.129  -0.640  51.517  0.00  0.00    +0.057 A 
ATOM      6  C9  <0> A   1     -29.627   0.528  52.015  0.00  0.00    -0.031 A 
ATOM      7  C10 <0> A   1     -28.796   1.434  52.673  0.00  0.00    +0.049 A 
ATOM      8  C11 <0> A   1     -27.470   1.178  52.837  0.00  0.00    +0.071 A 
ATOM      9  C12 <0> A   1     -26.921  -0.016  52.339  0.00  0.00    +0.137 A 
ATOM     10  N1  <0> A   1     -25.620  -0.290  52.496  0.00  0.00    -0.462 NA
ATOM     11 Cl1  <0> A   1     -31.314   0.892  51.825  0.00  0.00    -0.060 Cl
ENDROOT
BRANCH   3  12
ATOM     12  C13 <0> A   1     -28.055  -3.129  50.461  0.00  0.00    -0.067 A 
ATOM     13  C14 <0> A   1     -28.059  -3.177  49.066  0.00  0.00    +0.073 A 
ATOM     14  C15 <0> A   1     -28.844  -4.102  48.413  0.00  0.00    -0.011 A 
ATOM     15  C16 <0> A   1     -29.630  -4.984  49.139  0.00  0.00    +0.110 A 
ATOM     16  C17 <0> A   1     -29.632  -4.940  50.524  0.00  0.00    -0.009 A 
ATOM     17  C18 <0> A   1     -28.845  -4.022  51.188  0.00  0.00    +0.067 A 
ATOM     18  F1  <0> A   1     -30.399  -5.889  48.494  0.00  0.00    -0.136 F 
ENDBRANCH   3  12
BRANCH   1  20
ATOM     19  C1  <0> A   1     -22.808  -0.600  51.444  0.00  0.00    +0.042 C 
ATOM     20  C2  <0> A   1     -23.609  -1.630  52.243  0.00  0.00    +0.037 C 
ATOM     21  C3  <0> A   1     -23.274  -1.495  53.730  0.00  0.00    +0.041 C 
ENDBRANCH   1  20
BRANCH   2  22
ATOM     22  C19 <0> A   1     -25.208  -3.591  50.861  0.00  0.00    +0.056 C 
ATOM     23  C20 <0> A   1     -25.229  -4.695  51.598  0.00  0.00    -0.014 C 
BRANCH  23  24
ATOM     24  C21 <0> A   1     -24.580  -5.955  51.087  0.00  0.00    +0.243 C 
ATOM     25  C22 <0> A   1     -25.475  -6.595  50.022  0.00  0.00    +0.051 C 
ATOM     26  C23 <0> A   1     -24.832  -7.898  49.535  0.00  0.00    +0.186 C 
ATOM     27  C24 <0> A   1     -24.666  -8.846  50.728  0.00  0.00    +0.023 C 
ATOM     28  C25 <0> A   1     -23.949  -8.100  51.832  0.00  0.00    +0.497 C 
ATOM     29  O1  <0> A   1     -22.997  -8.586  52.395  0.00  0.00    -0.449 OA
ATOM     30  O2  <0> A   1     -24.402  -6.874  52.171  0.00  0.00    -0.368 OA
BRANCH  26  31
ATOM     31  O3  <0> A   1     -23.553  -7.616  48.963  0.00  0.00    -0.564 OA
ATOM     32  H23 <0> A   1     -23.136  -8.377  48.537  0.00  0.00    +0.388 HD
ENDBRANCH  26  31
ENDBRANCH  23  24
ENDBRANCH   2  22
TORSDOF 5
ENDMDL
MODEL 3
REMARK VINA RESULT:      -8.0     16.203     19.345
REMARK  Name = CHEMBL333258
REMARK  7 active torsions:
REMARK  status: ('A' for Active; 'I' for Inactive)
REMARK    1  A    between atoms: C1_1  and  C2_2
REMARK    2  A    between atoms: C2_2  and  C3_3
REMARK    3  A    between atoms: C2_2  and  C4_4
REMARK    4  A    between atoms: C5_5  and  C19_22
REMARK    5  A    between atoms: C6_6  and  C13_15
REMARK    6  A    between atoms: C20_23  and  C21_24
REMARK    7  A    between atoms: C23_27  and  O3_33
REMARK                            x       y       z     vdW  Elec       q    Type
REMARK                         _______ _______ _______ _____ _____    ______ ____
ROOT
ATOM      1  C4  <0> A   1     -15.221   6.478  46.075  0.00  0.00    +0.189 A 
ATOM      2  C5  <0> A   1     -14.511   7.683  45.958  0.00  0.00    -0.092 A 
ATOM      3  C6  <0> A   1     -14.629   8.649  46.967  0.00  0.00    +0.028 A 
ATOM      4  C7  <0> A   1     -15.471   8.354  48.068  0.00  0.00    -0.083 A 
ATOM      5  C8  <0> A   1     -15.642   9.267  49.117  0.00  0.00    +0.057 A 
ATOM      6  C9  <0> A   1     -16.461   8.949  50.160  0.00  0.00    -0.031 A 
ATOM      7  C10 <0> A   1     -17.128   7.725  50.196  0.00  0.00    +0.049 A 
ATOM      8  C11 <0> A   1     -16.982   6.817  49.193  0.00  0.00    +0.071 A 
ATOM      9  C12 <0> A   1     -16.148   7.110  48.100  0.00  0.00    +0.137 A 
ATOM     10  N1  <0> A   1     -15.996   6.233  47.100  0.00  0.00    -0.462 NA
ATOM     11 Cl1  <0> A   1     -16.673  10.081  51.460  0.00  0.00    -0.060 Cl
ENDROOT
BRANCH   3  12
ATOM     12  C13 <0> A   1     -13.900   9.933  46.885  0.00  0.00    -0.067 A 
ATOM     13  C14 <0> A   1     -14.512  11.051  46.317  0.00  0.00    +0.073 A 
ATOM     14  C15 <0> A   1     -13.828  12.246  46.243  0.00  0.00    -0.011 A 
ATOM     15  C16 <0> A   1     -12.534  12.337  46.732  0.00  0.00    +0.110 A 
ATOM     16  C17 <0> A   1     -11.920  11.230  47.296  0.00  0.00    -0.009 A 
ATOM     17  C18 <0> A   1     -12.598  10.031  47.380  0.00  0.00    +0.067 A 
ATOM     18  F1  <0> A   1     -11.867  13.511  46.657  0.00  0.00    -0.136 F 
ENDBRANCH   3  12
BRANCH   1  20
ATOM     19  C1  <0> A   1     -14.547   4.142  45.586  0.00  0.00    +0.042 C 
ATOM     20  C2  <0> A   1     -15.091   5.441  44.989  0.00  0.00    +0.037 C 
ATOM     21  C3  <0> A   1     -16.465   5.181  44.366  0.00  0.00    +0.041 C 
ENDBRANCH   1  20
BRANCH   2  22
ATOM     22  C19 <0> A   1     -13.650   7.930  44.786  0.00  0.00    +0.056 C 
ATOM     23  C20 <0> A   1     -14.136   8.568  43.727  0.00  0.00    -0.014 C 
BRANCH  23  24
ATOM     24  C21 <0> A   1     -13.257   8.821  42.530  0.00  0.00    +0.243 C 
ATOM     25  C22 <0> A   1     -13.711  10.102  41.824  0.00  0.00    +0.051 C 
ATOM     26  C23 <0> A   1     -12.841  10.333  40.583  0.00  0.00    +0.186 C 
ATOM     27  C24 <0> A   1     -12.986   9.129  39.645  0.00  0.00    +0.023 C 
ATOM     28  C25 <0> A   1     -12.721   7.870  40.442  0.00  0.00    +0.497 C 
ATOM     29  O1  <0> A   1     -11.960   7.025  40.034  0.00  0.00    -0.449 OA
ATOM     30  O2  <0> A   1     -13.358   7.718  41.622  0.00  0.00    -0.368 OA
BRANCH  26  31
ATOM     31  O3  <0> A   1     -11.476  10.475  40.976  0.00  0.00    -0.564 OA
ATOM     32  H23 <0> A   1     -10.940   9.683  40.833  0.00  0.00    +0.388 HD
ENDBRANCH  26  31
ENDBRANCH  23  24
ENDBRANCH   2  22
TORSDOF 5
ENDMDL
MODEL 4
REMARK VINA RESULT:      -7.9      0.971      1.067
REMARK  Name = CHEMBL333258
REMARK  7 active torsions:
REMARK  status: ('A' for Active; 'I' for Inactive)
REMARK    1  A    between atoms: C1_1  and  C2_2
REMARK    2  A    between atoms: C2_2  and  C3_3
REMARK    3  A    between atoms: C2_2  and  C4_4
REMARK    4  A    between atoms: C5_5  and  C19_22
REMARK    5  A    between atoms: C6_6  and  C13_15
REMARK    6  A    between atoms: C20_23  and  C21_24
REMARK    7  A    between atoms: C23_27  and  O3_33
REMARK                            x       y       z     vdW  Elec       q    Type
REMARK                         _______ _______ _______ _____ _____    ______ ____
ROOT
ATOM      1  C4  <0> A   1     -29.113  -3.578  52.047  0.00  0.00    +0.189 A 
ATOM      2  C5  <0> A   1     -27.766  -3.227  51.870  0.00  0.00    -0.092 A 
ATOM      3  C6  <0> A   1     -27.415  -1.873  51.790  0.00  0.00    +0.028 A 
ATOM      4  C7  <0> A   1     -28.454  -0.915  51.893  0.00  0.00    -0.083 A 
ATOM      5  C8  <0> A   1     -28.186   0.459  51.822  0.00  0.00    +0.057 A 
ATOM      6  C9  <0> A   1     -29.211   1.352  51.925  0.00  0.00    -0.031 A 
ATOM      7  C10 <0> A   1     -30.523   0.914  52.102  0.00  0.00    +0.049 A 
ATOM      8  C11 <0> A   1     -30.816  -0.412  52.175  0.00  0.00    +0.071 A 
ATOM      9  C12 <0> A   1     -29.786  -1.363  52.071  0.00  0.00    +0.137 A 
ATOM     10  N1  <0> A   1     -30.053  -2.673  52.135  0.00  0.00    -0.462 NA
ATOM     11 Cl1  <0> A   1     -28.879   3.054  51.837  0.00  0.00    -0.060 Cl
ENDROOT
BRANCH   3  12
ATOM     12  C13 <0> A   1     -26.008  -1.457  51.603  0.00  0.00    -0.067 A 
ATOM     13  C14 <0> A   1     -25.520  -1.192  50.323  0.00  0.00    +0.073 A 
ATOM     14  C15 <0> A   1     -24.208  -0.804  50.154  0.00  0.00    -0.011 A 
ATOM     15  C16 <0> A   1     -23.373  -0.679  51.255  0.00  0.00    +0.110 A 
ATOM     16  C17 <0> A   1     -23.852  -0.942  52.528  0.00  0.00    -0.009 A 
ATOM     17  C18 <0> A   1     -25.165  -1.324  52.708  0.00  0.00    +0.067 A 
ATOM     18  F1  <0> A   1     -22.087  -0.299  51.084  0.00  0.00    -0.136 F 
ENDBRANCH   3  12
BRANCH   1  20
ATOM     19  C1  <0> A   1     -29.807  -5.395  53.586  0.00  0.00    +0.042 C 
ATOM     20  C2  <0> A   1     -29.486  -5.036  52.134  0.00  0.00    +0.037 C 
ATOM     21  C3  <0> A   1     -30.715  -5.300  51.260  0.00  0.00    +0.041 C 
ENDBRANCH   1  20
BRANCH   2  22
ATOM     22  C19 <0> A   1     -26.730  -4.273  51.770  0.00  0.00    +0.056 C 
ATOM     23  C20 <0> A   1     -26.413  -4.783  50.585  0.00  0.00    -0.014 C 
BRANCH  23  24
ATOM     24  C21 <0> A   1     -25.356  -5.850  50.482  0.00  0.00    +0.243 C 
ATOM     25  C22 <0> A   1     -25.839  -6.961  49.545  0.00  0.00    +0.051 C 
ATOM     26  C23 <0> A   1     -24.779  -8.065  49.475  0.00  0.00    +0.186 C 
ATOM     27  C24 <0> A   1     -24.551  -8.623  50.885  0.00  0.00    +0.023 C 
ATOM     28  C25 <0> A   1     -24.272  -7.463  51.816  0.00  0.00    +0.497 C 
ATOM     29  O1  <0> A   1     -23.327  -7.484  52.570  0.00  0.00    -0.449 OA
ATOM     30  O2  <0> A   1     -25.106  -6.403  51.780  0.00  0.00    -0.368 OA
BRANCH  26  31
ATOM     31  O3  <0> A   1     -23.558  -7.524  48.968  0.00  0.00    -0.564 OA
ATOM     32  H23 <0> A   1     -23.680  -6.866  48.270  0.00  0.00    +0.388 HD
ENDBRANCH  26  31
ENDBRANCH  23  24
ENDBRANCH   2  22
TORSDOF 5
ENDMDL
MODEL 5
REMARK VINA RESULT:      -7.9      2.664      4.768
REMARK  Name = CHEMBL333258
REMARK  7 active torsions:
REMARK  status: ('A' for Active; 'I' for Inactive)
REMARK    1  A    between atoms: C1_1  and  C2_2
REMARK    2  A    between atoms: C2_2  and  C3_3
REMARK    3  A    between atoms: C2_2  and  C4_4
REMARK    4  A    between atoms: C5_5  and  C19_22
REMARK    5  A    between atoms: C6_6  and  C13_15
REMARK    6  A    between atoms: C20_23  and  C21_24
REMARK    7  A    between atoms: C23_27  and  O3_33
REMARK                            x       y       z     vdW  Elec       q    Type
REMARK                         _______ _______ _______ _____ _____    ______ ____
ROOT
ATOM      1  C4  <0> A   1     -24.416  -2.277  51.842  0.00  0.00    +0.189 A 
ATOM      2  C5  <0> A   1     -25.537  -3.092  51.624  0.00  0.00    -0.092 A 
ATOM      3  C6  <0> A   1     -26.798  -2.499  51.474  0.00  0.00    +0.028 A 
ATOM      4  C7  <0> A   1     -26.875  -1.086  51.550  0.00  0.00    -0.083 A 
ATOM      5  C8  <0> A   1     -28.099  -0.416  51.410  0.00  0.00    +0.057 A 
ATOM      6  C9  <0> A   1     -28.135   0.945  51.490  0.00  0.00    -0.031 A 
ATOM      7  C10 <0> A   1     -26.969   1.677  51.708  0.00  0.00    +0.049 A 
ATOM      8  C11 <0> A   1     -25.766   1.057  51.847  0.00  0.00    +0.071 A 
ATOM      9  C12 <0> A   1     -25.689  -0.344  51.773  0.00  0.00    +0.137 A 
ATOM     10  N1  <0> A   1     -24.517  -0.974  51.914  0.00  0.00    -0.462 NA
ATOM     11 Cl1  <0> A   1     -29.651   1.774  51.316  0.00  0.00    -0.060 Cl
ENDROOT
BRANCH   3  12
ATOM     12  C13 <0> A   1     -28.007  -3.319  51.243  0.00  0.00    -0.067 A 
ATOM     13  C14 <0> A   1     -28.434  -3.585  49.941  0.00  0.00    +0.073 A 
ATOM     14  C15 <0> A   1     -29.561  -4.350  49.731  0.00  0.00    -0.011 A 
ATOM     15  C16 <0> A   1     -30.270  -4.855  50.810  0.00  0.00    +0.110 A 
ATOM     16  C17 <0> A   1     -29.851  -4.593  52.105  0.00  0.00    -0.009 A 
ATOM     17  C18 <0> A   1     -28.721  -3.834  52.326  0.00  0.00    +0.067 A 
ATOM     18  F1  <0> A   1     -31.376  -5.604  50.599  0.00  0.00    -0.136 F 
ENDBRANCH   3  12
BRANCH   1  20
ATOM     19  C1  <0> A   1     -22.229  -2.676  50.743  0.00  0.00    +0.042 C 
ATOM     20  C2  <0> A   1     -23.062  -2.919  52.004  0.00  0.00    +0.037 C 
ATOM     21  C3  <0> A   1     -22.349  -2.308  53.212  0.00  0.00    +0.041 C 
ENDBRANCH   1  20
BRANCH   2  22
ATOM     22  C19 <0> A   1     -25.390  -4.559  51.555  0.00  0.00    +0.056 C 
ATOM     23  C20 <0> A   1     -25.128  -5.146  50.393  0.00  0.00    -0.014 C 
BRANCH  23  24
ATOM     24  C21 <0> A   1     -24.978  -6.643  50.322  0.00  0.00    +0.243 C 
ATOM     25  C22 <0> A   1     -24.143  -7.130  51.510  0.00  0.00    +0.051 C 
ATOM     26  C23 <0> A   1     -23.957  -8.648  51.412  0.00  0.00    +0.186 C 
ATOM     27  C24 <0> A   1     -23.247  -8.976  50.094  0.00  0.00    +0.023 C 
ATOM     28  C25 <0> A   1     -24.001  -8.305  48.967  0.00  0.00    +0.497 C 
ATOM     29  O1  <0> A   1     -24.313  -8.919  47.974  0.00  0.00    -0.449 OA
ATOM     30  O2  <0> A   1     -24.319  -7.001  49.102  0.00  0.00    -0.368 OA
BRANCH  26  31
ATOM     31  O3  <0> A   1     -25.233  -9.289  51.444  0.00  0.00    -0.564 OA
ATOM     32  H23 <0> A   1     -25.895  -8.877  50.871  0.00  0.00    +0.388 HD
ENDBRANCH  26  31
ENDBRANCH  23  24
ENDBRANCH   2  22
TORSDOF 5
ENDMDL
MODEL 6
REMARK VINA RESULT:      -7.9      3.537      5.644
REMARK  Name = CHEMBL333258
REMARK  7 active torsions:
REMARK  status: ('A' for Active; 'I' for Inactive)
REMARK    1  A    between atoms: C1_1  and  C2_2
REMARK    2  A    between atoms: C2_2  and  C3_3
REMARK    3  A    between atoms: C2_2  and  C4_4
REMARK    4  A    between atoms: C5_5  and  C19_22
REMARK    5  A    between atoms: C6_6  and  C13_15
REMARK    6  A    between atoms: C20_23  and  C21_24
REMARK    7  A    between atoms: C23_27  and  O3_33
REMARK                            x       y       z     vdW  Elec       q    Type
REMARK                         _______ _______ _______ _____ _____    ______ ____
ROOT
ATOM      1  C4  <0> A   1     -28.013  -4.784  52.144  0.00  0.00    +0.189 A 
ATOM      2  C5  <0> A   1     -27.261  -5.885  51.707  0.00  0.00    -0.092 A 
ATOM      3  C6  <0> A   1     -25.896  -5.720  51.436  0.00  0.00    +0.028 A 
ATOM      4  C7  <0> A   1     -25.338  -4.430  51.622  0.00  0.00    -0.083 A 
ATOM      5  C8  <0> A   1     -23.982  -4.183  51.374  0.00  0.00    +0.057 A 
ATOM      6  C9  <0> A   1     -23.480  -2.929  51.564  0.00  0.00    -0.031 A 
ATOM      7  C10 <0> A   1     -24.300  -1.892  52.003  0.00  0.00    +0.049 A 
ATOM      8  C11 <0> A   1     -25.621  -2.100  52.253  0.00  0.00    +0.071 A 
ATOM      9  C12 <0> A   1     -26.175  -3.378  52.068  0.00  0.00    +0.137 A 
ATOM     10  N1  <0> A   1     -27.474  -3.603  52.302  0.00  0.00    -0.462 NA
ATOM     11 Cl1  <0> A   1     -21.799  -2.623  51.256  0.00  0.00    -0.060 Cl
ENDROOT
BRANCH   3  12
ATOM     12  C13 <0> A   1     -25.065  -6.853  50.973  0.00  0.00    -0.067 A 
ATOM     13  C14 <0> A   1     -24.424  -7.675  51.900  0.00  0.00    +0.073 A 
ATOM     14  C15 <0> A   1     -23.651  -8.730  51.463  0.00  0.00    -0.011 A 
ATOM     15  C16 <0> A   1     -23.510  -8.973  50.106  0.00  0.00    +0.110 A 
ATOM     16  C17 <0> A   1     -24.144  -8.159  49.181  0.00  0.00    -0.009 A 
ATOM     17  C18 <0> A   1     -24.925  -7.105  49.607  0.00  0.00    +0.067 A 
ATOM     18  F1  <0> A   1     -22.750 -10.008  49.682  0.00  0.00    -0.136 F 
ENDBRANCH   3  12
BRANCH   1  20
ATOM     19  C1  <0> A   1     -29.808  -4.374  53.806  0.00  0.00    +0.042 C 
ATOM     20  C2  <0> A   1     -29.481  -4.966  52.434  0.00  0.00    +0.037 C 
ATOM     21  C3  <0> A   1     -30.305  -4.250  51.360  0.00  0.00    +0.041 C 
ENDBRANCH   1  20
BRANCH   2  22
ATOM     22  C19 <0> A   1     -27.902  -7.204  51.532  0.00  0.00    +0.056 C 
ATOM     23  C20 <0> A   1     -28.465  -7.520  50.372  0.00  0.00    -0.014 C 
BRANCH  23  24
ATOM     24  C21 <0> A   1     -29.119  -8.866  50.194  0.00  0.00    +0.243 C 
ATOM     25  C22 <0> A   1     -30.578  -8.673  49.772  0.00  0.00    +0.051 C 
ATOM     26  C23 <0> A   1     -31.252 -10.043  49.633  0.00  0.00    +0.186 C 
ATOM     27  C24 <0> A   1     -31.180 -10.770  50.981  0.00  0.00    +0.023 C 
ATOM     28  C25 <0> A   1     -29.742 -10.759  51.452  0.00  0.00    +0.497 C 
ATOM     29  O1  <0> A   1     -29.205 -11.771  51.834  0.00  0.00    -0.449 OA
ATOM     30  O2  <0> A   1     -29.075  -9.586  51.431  0.00  0.00    -0.368 OA
BRANCH  26  31
ATOM     31  O3  <0> A   1     -30.574 -10.809  48.636  0.00  0.00    -0.564 OA
ATOM     32  H23 <0> A   1     -29.724 -10.437  48.365  0.00  0.00    +0.388 HD
ENDBRANCH  26  31
ENDBRANCH  23  24
ENDBRANCH   2  22
TORSDOF 5
ENDMDL
MODEL 7
REMARK VINA RESULT:      -7.8      2.156      3.006
REMARK  Name = CHEMBL333258
REMARK  7 active torsions:
REMARK  status: ('A' for Active; 'I' for Inactive)
REMARK    1  A    between atoms: C1_1  and  C2_2
REMARK    2  A    between atoms: C2_2  and  C3_3
REMARK    3  A    between atoms: C2_2  and  C4_4
REMARK    4  A    between atoms: C5_5  and  C19_22
REMARK    5  A    between atoms: C6_6  and  C13_15
REMARK    6  A    between atoms: C20_23  and  C21_24
REMARK    7  A    between atoms: C23_27  and  O3_33
REMARK                            x       y       z     vdW  Elec       q    Type
REMARK                         _______ _______ _______ _____ _____    ______ ____
ROOT
ATOM      1  C4  <0> A   1     -27.009  -3.571  51.021  0.00  0.00    +0.189 A 
ATOM      2  C5  <0> A   1     -25.659  -3.678  51.390  0.00  0.00    -0.092 A 
ATOM      3  C6  <0> A   1     -24.917  -2.513  51.623  0.00  0.00    +0.028 A 
ATOM      4  C7  <0> A   1     -25.579  -1.268  51.473  0.00  0.00    -0.083 A 
ATOM      5  C8  <0> A   1     -24.908  -0.057  51.688  0.00  0.00    +0.057 A 
ATOM      6  C9  <0> A   1     -25.577   1.121  51.533  0.00  0.00    -0.031 A 
ATOM      7  C10 <0> A   1     -26.921   1.134  51.165  0.00  0.00    +0.049 A 
ATOM      8  C11 <0> A   1     -27.601  -0.024  50.949  0.00  0.00    +0.071 A 
ATOM      9  C12 <0> A   1     -26.945  -1.258  51.097  0.00  0.00    +0.137 A 
ATOM     10  N1  <0> A   1     -27.594  -2.409  50.883  0.00  0.00    -0.462 NA
ATOM     11 Cl1  <0> A   1     -24.744   2.621  51.800  0.00  0.00    -0.060 Cl
ENDROOT
BRANCH   3  12
ATOM     12  C13 <0> A   1     -23.492  -2.578  52.014  0.00  0.00    -0.067 A 
ATOM     13  C14 <0> A   1     -23.117  -2.332  53.336  0.00  0.00    +0.073 A 
ATOM     14  C15 <0> A   1     -21.788  -2.394  53.695  0.00  0.00    -0.011 A 
ATOM     15  C16 <0> A   1     -20.824  -2.700  52.746  0.00  0.00    +0.110 A 
ATOM     16  C17 <0> A   1     -21.191  -2.944  51.432  0.00  0.00    -0.009 A 
ATOM     17  C18 <0> A   1     -22.519  -2.890  51.063  0.00  0.00    +0.067 A 
ATOM     18  F1  <0> A   1     -19.522  -2.759  53.103  0.00  0.00    -0.136 F 
ENDBRANCH   3  12
BRANCH   1  20
ATOM     19  C1  <0> A   1     -28.783  -5.050  51.925  0.00  0.00    +0.042 C 
ATOM     20  C2  <0> A   1     -27.803  -4.828  50.770  0.00  0.00    +0.037 C 
ATOM     21  C3  <0> A   1     -28.582  -4.686  49.460  0.00  0.00    +0.041 C 
ENDBRANCH   1  20
BRANCH   2  22
ATOM     22  C19 <0> A   1     -25.027  -5.005  51.530  0.00  0.00    +0.056 C 
ATOM     23  C20 <0> A   1     -24.792  -5.745  50.454  0.00  0.00    -0.014 C 
BRANCH  23  24
ATOM     24  C21 <0> A   1     -24.147  -7.099  50.597  0.00  0.00    +0.243 C 
ATOM     25  C22 <0> A   1     -25.142  -8.186  50.179  0.00  0.00    +0.051 C 
ATOM     26  C23 <0> A   1     -24.497  -9.564  50.366  0.00  0.00    +0.186 C 
ATOM     27  C24 <0> A   1     -24.112  -9.735  51.840  0.00  0.00    +0.023 C 
ATOM     28  C25 <0> A   1     -23.293  -8.534  52.260  0.00  0.00    +0.497 C 
ATOM     29  O1  <0> A   1     -22.244  -8.669  52.845  0.00  0.00    -0.449 OA
ATOM     30  O2  <0> A   1     -23.766  -7.306  51.962  0.00  0.00    -0.368 OA
BRANCH  26  31
ATOM     31  O3  <0> A   1     -23.330  -9.660  49.549  0.00  0.00    -0.564 OA
ATOM     32  H23 <0> A   1     -23.084 -10.567  49.320  0.00  0.00    +0.388 HD
ENDBRANCH  26  31
ENDBRANCH  23  24
ENDBRANCH   2  22
TORSDOF 5
ENDMDL
MODEL 8
REMARK VINA RESULT:      -7.7      2.612      4.568
REMARK  Name = CHEMBL333258
REMARK  7 active torsions:
REMARK  status: ('A' for Active; 'I' for Inactive)
REMARK    1  A    between atoms: C1_1  and  C2_2
REMARK    2  A    between atoms: C2_2  and  C3_3
REMARK    3  A    between atoms: C2_2  and  C4_4
REMARK    4  A    between atoms: C5_5  and  C19_22
REMARK    5  A    between atoms: C6_6  and  C13_15
REMARK    6  A    between atoms: C20_23  and  C21_24
REMARK    7  A    between atoms: C23_27  and  O3_33
REMARK                            x       y       z     vdW  Elec       q    Type
REMARK                         _______ _______ _______ _____ _____    ______ ____
ROOT
ATOM      1  C4  <0> A   1     -24.489  -2.314  52.600  0.00  0.00    +0.189 A 
ATOM      2  C5  <0> A   1     -25.440  -3.183  52.043  0.00  0.00    -0.092 A 
ATOM      3  C6  <0> A   1     -26.802  -2.951  52.279  0.00  0.00    +0.028 A 
ATOM      4  C7  <0> A   1     -27.152  -1.835  53.080  0.00  0.00    -0.083 A 
ATOM      5  C8  <0> A   1     -28.491  -1.536  53.363  0.00  0.00    +0.057 A 
ATOM      6  C9  <0> A   1     -28.790  -0.454  54.137  0.00  0.00    -0.031 A 
ATOM      7  C10 <0> A   1     -27.780   0.358  54.649  0.00  0.00    +0.049 A 
ATOM      8  C11 <0> A   1     -26.470   0.094  54.392  0.00  0.00    +0.071 A 
ATOM      9  C12 <0> A   1     -26.122  -1.014  53.600  0.00  0.00    +0.137 A 
ATOM     10  N1  <0> A   1     -24.839  -1.294  53.340  0.00  0.00    -0.462 NA
ATOM     11 Cl1  <0> A   1     -30.450  -0.083  54.488  0.00  0.00    -0.060 Cl
ENDROOT
BRANCH   3  12
ATOM     12  C13 <0> A   1     -27.838  -3.841  51.713  0.00  0.00    -0.067 A 
ATOM     13  C14 <0> A   1     -28.359  -3.589  50.443  0.00  0.00    +0.073 A 
ATOM     14  C15 <0> A   1     -29.325  -4.421  49.919  0.00  0.00    -0.011 A 
ATOM     15  C16 <0> A   1     -29.780  -5.507  50.652  0.00  0.00    +0.110 A 
ATOM     16  C17 <0> A   1     -29.267  -5.761  51.914  0.00  0.00    -0.009 A 
ATOM     17  C18 <0> A   1     -28.296  -4.938  52.445  0.00  0.00    +0.067 A 
ATOM     18  F1  <0> A   1     -30.728  -6.320  50.134  0.00  0.00    -0.136 F 
ENDBRANCH   3  12
BRANCH   1  20
ATOM     19  C1  <0> A   1     -22.568  -1.738  51.141  0.00  0.00    +0.042 C 
ATOM     20  C2  <0> A   1     -23.025  -2.567  52.343  0.00  0.00    +0.037 C 
ATOM     21  C3  <0> A   1     -22.215  -2.166  53.578  0.00  0.00    +0.041 C 
ENDBRANCH   1  20
BRANCH   2  22
ATOM     22  C19 <0> A   1     -25.010  -4.329  51.217  0.00  0.00    +0.056 C 
ATOM     23  C20 <0> A   1     -24.791  -5.509  51.783  0.00  0.00    -0.014 C 
BRANCH  23  24
ATOM     24  C21 <0> A   1     -24.353  -6.679  50.940  0.00  0.00    +0.243 C 
ATOM     25  C22 <0> A   1     -25.173  -6.714  49.648  0.00  0.00    +0.051 C 
ATOM     26  C23 <0> A   1     -24.754  -7.928  48.812  0.00  0.00    +0.186 C 
ATOM     27  C24 <0> A   1     -24.999  -9.201  49.631  0.00  0.00    +0.023 C 
ATOM     28  C25 <0> A   1     -24.333  -9.035  50.979  0.00  0.00    +0.497 C 
ATOM     29  O1  <0> A   1     -23.615  -9.897  51.429  0.00  0.00    -0.449 OA
ATOM     30  O2  <0> A   1     -24.561  -7.896  51.666  0.00  0.00    -0.368 OA
BRANCH  26  31
ATOM     31  O3  <0> A   1     -23.368  -7.826  48.483  0.00  0.00    -0.564 OA
ATOM     32  H23 <0> A   1     -23.197  -7.409  47.627  0.00  0.00    +0.388 HD
ENDBRANCH  26  31
ENDBRANCH  23  24
ENDBRANCH   2  22
TORSDOF 5
ENDMDL
MODEL 9
REMARK VINA RESULT:      -7.7      2.559      4.731
REMARK  Name = CHEMBL333258
REMARK  7 active torsions:
REMARK  status: ('A' for Active; 'I' for Inactive)
REMARK    1  A    between atoms: C1_1  and  C2_2
REMARK    2  A    between atoms: C2_2  and  C3_3
REMARK    3  A    between atoms: C2_2  and  C4_4
REMARK    4  A    between atoms: C5_5  and  C19_22
REMARK    5  A    between atoms: C6_6  and  C13_15
REMARK    6  A    between atoms: C20_23  and  C21_24
REMARK    7  A    between atoms: C23_27  and  O3_33
REMARK                            x       y       z     vdW  Elec       q    Type
REMARK                         _______ _______ _______ _____ _____    ______ ____
ROOT
ATOM      1  C4  <0> A   1     -24.833  -2.778  51.902  0.00  0.00    +0.189 A 
ATOM      2  C5  <0> A   1     -25.620  -3.939  51.953  0.00  0.00    -0.092 A 
ATOM      3  C6  <0> A   1     -27.015  -3.820  52.026  0.00  0.00    +0.028 A 
ATOM      4  C7  <0> A   1     -27.565  -2.514  52.045  0.00  0.00    -0.083 A 
ATOM      5  C8  <0> A   1     -28.950  -2.310  52.117  0.00  0.00    +0.057 A 
ATOM      6  C9  <0> A   1     -29.443  -1.039  52.134  0.00  0.00    -0.031 A 
ATOM      7  C10 <0> A   1     -28.587   0.060  52.078  0.00  0.00    +0.049 A 
ATOM      8  C11 <0> A   1     -27.238  -0.105  52.006  0.00  0.00    +0.071 A 
ATOM      9  C12 <0> A   1     -26.692  -1.400  51.989  0.00  0.00    +0.137 A 
ATOM     10  N1  <0> A   1     -25.367  -1.584  51.926  0.00  0.00    -0.462 NA
ATOM     11 Cl1  <0> A   1     -31.159  -0.786  52.223  0.00  0.00    -0.060 Cl
ENDROOT
BRANCH   3  12
ATOM     12  C13 <0> A   1     -27.883  -5.016  52.082  0.00  0.00    -0.067 A 
ATOM     13  C14 <0> A   1     -28.161  -5.623  53.308  0.00  0.00    +0.073 A 
ATOM     14  C15 <0> A   1     -28.971  -6.737  53.354  0.00  0.00    -0.011 A 
ATOM     15  C16 <0> A   1     -29.508  -7.256  52.186  0.00  0.00    +0.110 A 
ATOM     16  C17 <0> A   1     -29.234  -6.658  50.966  0.00  0.00    -0.009 A 
ATOM     17  C18 <0> A   1     -28.430  -5.539  50.909  0.00  0.00    +0.067 A 
ATOM     18  F1  <0> A   1     -30.301  -8.349  52.237  0.00  0.00    -0.136 F 
ENDBRANCH   3  12
BRANCH   1  20
ATOM     19  C1  <0> A   1     -22.829  -2.237  50.545  0.00  0.00    +0.042 C 
ATOM     20  C2  <0> A   1     -23.334  -2.910  51.823  0.00  0.00    +0.037 C 
ATOM     21  C3  <0> A   1     -22.698  -2.236  53.040  0.00  0.00    +0.041 C 
ENDBRANCH   1  20
BRANCH   2  22
ATOM     22  C19 <0> A   1     -24.986  -5.271  51.930  0.00  0.00    +0.056 C 
ATOM     23  C20 <0> A   1     -24.829  -5.913  50.778  0.00  0.00    -0.014 C 
BRANCH  23  24
ATOM     24  C21 <0> A   1     -24.182  -7.273  50.754  0.00  0.00    +0.243 C 
ATOM     25  C22 <0> A   1     -25.201  -8.316  50.289  0.00  0.00    +0.051 C 
ATOM     26  C23 <0> A   1     -24.551  -9.704  50.306  0.00  0.00    +0.186 C 
ATOM     27  C24 <0> A   1     -24.087 -10.016  51.733  0.00  0.00    +0.023 C 
ATOM     28  C25 <0> A   1     -23.243  -8.859  52.222  0.00  0.00    +0.497 C 
ATOM     29  O1  <0> A   1     -22.164  -9.048  52.733  0.00  0.00    -0.449 OA
ATOM     30  O2  <0> A   1     -23.728  -7.609  52.070  0.00  0.00    -0.368 OA
BRANCH  26  31
ATOM     31  O3  <0> A   1     -23.431  -9.718  49.421  0.00  0.00    -0.564 OA
ATOM     32  H23 <0> A   1     -22.841 -10.475  49.544  0.00  0.00    +0.388 HD
ENDBRANCH  26  31
ENDBRANCH  23  24
ENDBRANCH   2  22
TORSDOF 5
ENDMDL
MODEL 10
REMARK VINA RESULT:      -7.7     25.092     28.319
REMARK  Name = CHEMBL333258
REMARK  7 active torsions:
REMARK  status: ('A' for Active; 'I' for Inactive)
REMARK    1  A    between atoms: C1_1  and  C2_2
REMARK    2  A    between atoms: C2_2  and  C3_3
REMARK    3  A    between atoms: C2_2  and  C4_4
REMARK    4  A    between atoms: C5_5  and  C19_22
REMARK    5  A    between atoms: C6_6  and  C13_15
REMARK    6  A    between atoms: C20_23  and  C21_24
REMARK    7  A    between atoms: C23_27  and  O3_33
REMARK                            x       y       z     vdW  Elec       q    Type
REMARK                         _______ _______ _______ _____ _____    ______ ____
ROOT
ATOM      1  C4  <0> A   1      -0.394  10.475  52.167  0.00  0.00    +0.189 A 
ATOM      2  C5  <0> A   1      -1.762  10.161  52.156  0.00  0.00    -0.092 A 
ATOM      3  C6  <0> A   1      -2.575  10.602  53.208  0.00  0.00    +0.028 A 
ATOM      4  C7  <0> A   1      -1.965  11.355  54.243  0.00  0.00    -0.083 A 
ATOM      5  C8  <0> A   1      -2.710  11.832  55.329  0.00  0.00    +0.057 A 
ATOM      6  C9  <0> A   1      -2.089  12.552  56.307  0.00  0.00    -0.031 A 
ATOM      7  C10 <0> A   1      -0.723  12.820  56.237  0.00  0.00    +0.049 A 
ATOM      8  C11 <0> A   1       0.027  12.371  55.195  0.00  0.00    +0.071 A 
ATOM      9  C12 <0> A   1      -0.577  11.624  54.169  0.00  0.00    +0.137 A 
ATOM     10  N1  <0> A   1       0.145  11.167  53.138  0.00  0.00    -0.462 NA
ATOM     11 Cl1  <0> A   1      -3.012  13.144  57.654  0.00  0.00    -0.060 Cl
ENDROOT
BRANCH   3  12
ATOM     12  C13 <0> A   1      -4.022  10.294  53.238  0.00  0.00    -0.067 A 
ATOM     13  C14 <0> A   1      -4.462   9.040  53.665  0.00  0.00    +0.073 A 
ATOM     14  C15 <0> A   1      -5.811   8.758  53.691  0.00  0.00    -0.011 A 
ATOM     15  C16 <0> A   1      -6.730   9.717  53.293  0.00  0.00    +0.110 A 
ATOM     16  C17 <0> A   1      -6.298  10.963  52.866  0.00  0.00    -0.009 A 
ATOM     17  C18 <0> A   1      -4.951  11.258  52.842  0.00  0.00    +0.067 A 
ATOM     18  F1  <0> A   1      -8.052   9.435  53.319  0.00  0.00    -0.136 F 
ENDBRANCH   3  12
BRANCH   1  20
ATOM     19  C1  <0> A   1       1.230  11.189  50.434  0.00  0.00    +0.042 C 
ATOM     20  C2  <0> A   1       0.478   9.999  51.034  0.00  0.00    +0.037 C 
ATOM     21  C3  <0> A   1       1.484   8.973  51.561  0.00  0.00    +0.041 C 
ENDBRANCH   1  20
BRANCH   2  22
ATOM     22  C19 <0> A   1      -2.337   9.373  51.048  0.00  0.00    +0.056 C 
ATOM     23  C20 <0> A   1      -2.139   8.061  50.994  0.00  0.00    -0.014 C 
BRANCH  23  24
ATOM     24  C21 <0> A   1      -2.726   7.257  49.863  0.00  0.00    +0.243 C 
ATOM     25  C22 <0> A   1      -1.707   6.215  49.394  0.00  0.00    +0.051 C 
ATOM     26  C23 <0> A   1      -2.291   5.427  48.217  0.00  0.00    +0.186 C 
ATOM     27  C24 <0> A   1      -2.615   6.402  47.079  0.00  0.00    +0.023 C 
ATOM     28  C25 <0> A   1      -3.462   7.523  47.640  0.00  0.00    +0.497 C 
ATOM     29  O1  <0> A   1      -4.482   7.867  47.091  0.00  0.00    -0.449 OA
ATOM     30  O2  <0> A   1      -3.048   8.128  48.773  0.00  0.00    -0.368 OA
BRANCH  26  31
ATOM     31  O3  <0> A   1      -3.484   4.760  48.633  0.00  0.00    -0.564 OA
ATOM     32  H23 <0> A   1      -3.333   3.879  49.004  0.00  0.00    +0.388 HD
ENDBRANCH  26  31
ENDBRANCH  23  24
ENDBRANCH   2  22
TORSDOF 5
ENDMDL
