REMARK VINA RESULT:      -7.7      2.196      4.309
REMARK  Name = CHEMBL468205
REMARK  13 active torsions:
REMARK  status: ('A' for Active; 'I' for Inactive)
REMARK    1  A    between atoms: C1_1  and  C2_2
REMARK    2  A    between atoms: C2_2  and  C3_3
REMARK    3  A    between atoms: C2_2  and  C4_4
REMARK    4  A    between atoms: C5_5  and  C18_24
REMARK    5  A    between atoms: C6_6  and  C12_17
REMARK    6  A    between atoms: N4_14  and  C11_16
REMARK    7  A    between atoms: C19_25  and  C20_26
REMARK    8  A    between atoms: C20_26  and  C21_28
REMARK    9  A    between atoms: C20_26  and  O4_36
REMARK   10  A    between atoms: C21_28  and  C22_29
REMARK   11  A    between atoms: C22_29  and  C23_31
REMARK   12  A    between atoms: C22_29  and  O3_35
REMARK   13  A    between atoms: C23_31  and  C24_32
REMARK                            x       y       z     vdW  Elec       q    Type
REMARK                         _______ _______ _______ _____ _____    ______ ____
ROOT
ATOM      1  C4  <0> A   1     -13.321   9.856  46.629  0.00  0.00    +0.240 A 
ATOM      2  C5  <0> A   1     -13.696   8.655  46.019  0.00  0.00    -0.186 A 
ATOM      3  C6  <0> A   1     -14.813   7.968  46.535  0.00  0.00    +0.263 A 
ATOM      4  N1  <0> A   1     -15.462   8.486  47.574  0.00  0.00    -0.541 NA
ATOM      5  C7  <0> A   1     -15.068   9.628  48.116  0.00  0.00    +0.571 A 
ATOM      6  N2  <0> A   1     -14.018  10.297  47.660  0.00  0.00    -0.551 NA
ATOM      7  N3  <0> A   1     -15.769  10.134  49.197  0.00  0.00    -0.600 N 
ATOM      8  C8  <0> A   1     -16.878   9.442  49.699  0.00  0.00    +0.316 C 
ATOM      9  C9  <0> A   1     -17.381   8.225  49.210  0.00  0.00    -0.084 C 
ATOM     10  C10 <0> A   1     -18.454   7.888  49.961  0.00  0.00    +0.234 C 
ATOM     11  N4  <0> A   1     -18.626   8.851  50.892  0.00  0.00    -0.374 N 
ATOM     12  N5  <0> A   1     -17.623   9.812  50.713  0.00  0.00    -0.332 NA
ATOM     13  C11 <0> A   1     -19.676   8.881  51.913  0.00  0.00    +0.353 C 
ATOM     14  H10 <0> A   1     -15.493  10.969  49.605  0.00  0.00    +0.428 HD
ENDROOT
BRANCH   3  15
ATOM     15  C12 <0> A   1     -15.258   6.690  45.930  0.00  0.00    -0.072 A 
ATOM     16  C13 <0> A   1     -16.300   6.680  45.003  0.00  0.00    +0.099 A 
ATOM     17  C14 <0> A   1     -16.711   5.489  44.444  0.00  0.00    -0.014 A 
ATOM     18  C15 <0> A   1     -16.090   4.302  44.800  0.00  0.00    +0.120 A 
ATOM     19  C16 <0> A   1     -15.054   4.307  45.721  0.00  0.00    -0.024 A 
ATOM     20  C17 <0> A   1     -14.632   5.495  46.283  0.00  0.00    +0.090 A 
ATOM     21  F1  <0> A   1     -16.495   3.138  44.250  0.00  0.00    -0.136 F 
ENDBRANCH   3  15
BRANCH   1  23
ATOM     22  C1  <0> A   1     -12.610  11.962  45.528  0.00  0.00    +0.043 C 
ATOM     23  C2  <0> A   1     -12.134  10.633  46.119  0.00  0.00    +0.050 C 
ATOM     24  C3  <0> A   1     -11.169  10.905  47.275  0.00  0.00    +0.043 C 
ENDBRANCH   1  23
BRANCH   2  25
ATOM     25  C18 <0> A   1     -12.942   8.121  44.867  0.00  0.00    +0.014 C 
ATOM     26  C19 <0> A   1     -13.367   8.350  43.632  0.00  0.00    -0.039 C 
BRANCH  26  27
ATOM     27  C20 <0> A   1     -12.598   7.805  42.456  0.00  0.00    +0.252 C 
BRANCH  27  28
ATOM     28  O4  <0> A   1     -12.432   6.393  42.610  0.00  0.00    -0.537 OA
ATOM     29  H27 <0> A   1     -12.941   6.015  43.340  0.00  0.00    +0.366 HD
ENDBRANCH  27  28
BRANCH  27  30
ATOM     30  C21 <0> A   1     -13.367   8.091  41.165  0.00  0.00    -0.041 C 
BRANCH  30  31
ATOM     31  C22 <0> A   1     -12.593   9.106  40.323  0.00  0.00    +0.231 C 
BRANCH  31  32
ATOM     32  O3  <0> A   1     -12.873   8.889  38.939  0.00  0.00    -0.528 OA
ATOM     33  H26 <0> A   1     -12.502   8.069  38.586  0.00  0.00    +0.350 HD
ENDBRANCH  31  32
BRANCH  31  34
ATOM     34  C23 <0> A   1     -13.017  10.523  40.715  0.00  0.00    -0.102 C 
BRANCH  34  35
ATOM     35  C24 <0> A   1     -13.330  11.315  39.471  0.00  0.00    +0.490 C 
ATOM     36  O1  <0> A   1     -14.482  11.412  39.083  0.00  0.00    -0.681 OA
ATOM     37  O2  <0> A   1     -12.431  11.859  38.853  0.00  0.00    -0.713 OA
ENDBRANCH  34  35
ENDBRANCH  31  34
ENDBRANCH  30  31
ENDBRANCH  27  30
ENDBRANCH  26  27
ENDBRANCH   2  25
TORSDOF 10
