REMARK VINA RESULT:      -7.3      2.588      7.614
REMARK  Name = CHEMBL401949
REMARK  16 active torsions:
REMARK  status: ('A' for Active; 'I' for Inactive)
REMARK    1  A    between atoms: C1_1  and  C2_2
REMARK    2  A    between atoms: C2_2  and  C3_3
REMARK    3  A    between atoms: C2_2  and  C4_4
REMARK    4  A    between atoms: C5_5  and  S1_35
REMARK    5  A    between atoms: C6_6  and  C21_29
REMARK    6  A    between atoms: C7_7  and  C15_22
REMARK    7  A    between atoms: N1_8  and  C8_9
REMARK    8  A    between atoms: C8_9  and  C9_10
REMARK    9  A    between atoms: C9_10  and  C10_11
REMARK   10  A    between atoms: C10_11  and  C11_13
REMARK   11  A    between atoms: C10_11  and  O4_21
REMARK   12  A    between atoms: C11_13  and  C12_14
REMARK   13  A    between atoms: C12_14  and  C13_16
REMARK   14  A    between atoms: C12_14  and  O3_20
REMARK   15  A    between atoms: C13_16  and  C14_17
REMARK   16  A    between atoms: S1_35  and  N2_38
REMARK                            x       y       z     vdW  Elec       q    Type
REMARK                         _______ _______ _______ _____ _____    ______ ____
ROOT
ATOM      1  C4  <0> A   1     -13.853   7.395  45.376  0.00  0.00    +0.174 C 
ATOM      2  C5  <0> A   1     -13.051   8.461  45.565  0.00  0.00    -0.733 C 
ATOM      3  C6  <0> A   1     -13.496   9.132  46.729  0.00  0.00    -0.027 C 
ATOM      4  C7  <0> A   1     -14.583   8.422  47.211  0.00  0.00    +0.063 C 
ATOM      5  N1  <0> A   1     -14.792   7.363  46.367  0.00  0.00    -0.415 N 
ENDROOT
BRANCH   4   6
ATOM      6  C15 <0> A   1     -15.376   8.749  48.413  0.00  0.00    -0.029 A 
ATOM      7  C16 <0> A   1     -15.153   8.061  49.608  0.00  0.00    +0.046 A 
ATOM      8  C17 <0> A   1     -15.897   8.372  50.728  0.00  0.00    -0.007 A 
ATOM      9  C18 <0> A   1     -16.862   9.363  50.668  0.00  0.00    +0.106 A 
ATOM     10  C19 <0> A   1     -17.087  10.050  49.485  0.00  0.00    -0.008 A 
ATOM     11  C20 <0> A   1     -16.345   9.752  48.361  0.00  0.00    +0.075 A 
ATOM     12  F1  <0> A   1     -17.588   9.663  51.768  0.00  0.00    -0.137 F 
ENDBRANCH   4   6
BRANCH   3  13
ATOM     13  C21 <0> A   1     -12.911  10.360  47.318  0.00  0.00    -0.042 A 
ATOM     14  C22 <0> A   1     -11.891  10.264  48.264  0.00  0.00    +0.052 A 
ATOM     15  C23 <0> A   1     -11.350  11.410  48.809  0.00  0.00    +0.004 A 
ATOM     16  C24 <0> A   1     -11.818  12.653  48.420  0.00  0.00    +0.008 A 
ATOM     17  C25 <0> A   1     -12.831  12.754  47.483  0.00  0.00    -0.003 A 
ATOM     18  C26 <0> A   1     -13.376  11.614  46.926  0.00  0.00    +0.020 A 
ENDBRANCH   3  13
BRANCH   1  20
ATOM     19  C1  <0> A   1     -14.008   4.993  44.781  0.00  0.00    +0.045 C 
ATOM     20  C2  <0> A   1     -13.737   6.402  44.250  0.00  0.00    +0.043 C 
ATOM     21  C3  <0> A   1     -14.761   6.741  43.163  0.00  0.00    +0.050 C 
ENDBRANCH   1  20
BRANCH   2  22
ATOM     22  S1  <0> A   1     -11.693   8.934  44.547  0.00  0.00    +2.707 S 
ATOM     23  O5  <0> A   1     -10.871   9.783  45.335  0.00  0.00    -0.953 OA
ATOM     24  O6  <0> A   1     -11.204   7.743  43.945  0.00  0.00    -0.948 OA
BRANCH  22  25
ATOM     25  N2  <0> A   1     -12.301   9.868  43.322  0.00  0.00    -0.998 NA
ATOM     26  C27 <0> A   1     -12.118   9.483  41.913  0.00  0.00    +0.268 C 
ATOM     27  C28 <0> A   1     -13.484   9.529  41.218  0.00  0.00    +0.209 C 
ATOM     28  O7  <0> A   1     -14.091  10.800  41.455  0.00  0.00    -0.376 OA
ATOM     29  C29 <0> A   1     -14.362  11.072  42.832  0.00  0.00    +0.212 C 
ATOM     30  C30 <0> A   1     -13.047  11.104  43.610  0.00  0.00    +0.265 C 
ENDBRANCH  22  25
ENDBRANCH   2  22
BRANCH   5  31
ATOM     31  C8  <0> A   1     -15.849   6.359  46.506  0.00  0.00    +0.296 C 
BRANCH  31  32
ATOM     32  C9  <0> A   1     -17.177   6.946  46.022  0.00  0.00    -0.014 C 
BRANCH  32  33
ATOM     33  C10 <0> A   1     -18.174   6.977  47.183  0.00  0.00    +0.218 C 
BRANCH  33  34
ATOM     34  O4  <0> A   1     -19.492   6.737  46.685  0.00  0.00    -0.541 OA
ATOM     35  H19 <0> A   1     -19.877   7.489  46.213  0.00  0.00    +0.367 HD
ENDBRANCH  33  34
BRANCH  33  36
ATOM     36  C11 <0> A   1     -17.807   5.892  48.197  0.00  0.00    -0.047 C 
BRANCH  36  37
ATOM     37  C12 <0> A   1     -18.549   6.150  49.510  0.00  0.00    +0.231 C 
BRANCH  37  38
ATOM     38  O3  <0> A   1     -19.399   7.290  49.361  0.00  0.00    -0.528 OA
ATOM     39  H18 <0> A   1     -19.861   7.545  50.171  0.00  0.00    +0.350 HD
ENDBRANCH  37  38
BRANCH  37  40
ATOM     40  C13 <0> A   1     -19.395   4.927  49.867  0.00  0.00    -0.102 C 
BRANCH  40  41
ATOM     41  C14 <0> A   1     -20.831   5.180  49.485  0.00  0.00    +0.491 C 
ATOM     42  O1  <0> A   1     -21.183   5.057  48.323  0.00  0.00    -0.681 OA
ATOM     43  O2  <0> A   1     -21.642   5.504  50.335  0.00  0.00    -0.712 OA
ENDBRANCH  40  41
ENDBRANCH  37  40
ENDBRANCH  36  37
ENDBRANCH  33  36
ENDBRANCH  32  33
ENDBRANCH  31  32
ENDBRANCH   5  31
TORSDOF 14
