REMARK VINA RESULT:      -8.0     17.469     20.820
REMARK  Name = CHEMBL295717
REMARK  7 active torsions:
REMARK  status: ('A' for Active; 'I' for Inactive)
REMARK    1  A    between atoms: C1_1  and  C2_2
REMARK    2  A    between atoms: C4_4  and  C23_28
REMARK    3  A    between atoms: C5_5  and  C16_17
REMARK    4  A    between atoms: C6_6  and  C8_8
REMARK    5  A    between atoms: C9_9  and  C10_10
REMARK    6  A    between atoms: C17_18  and  C18_19
REMARK    7  A    between atoms: C20_21  and  O3_27
REMARK                            x       y       z     vdW  Elec       q    Type
REMARK                         _______ _______ _______ _____ _____    ______ ____
ROOT
ATOM      1  C1  <0> A   1     -25.463   2.250  52.142  0.00  0.00    +0.090 C 
ATOM      2  C2  <0> A   1     -25.175   0.837  51.710  0.00  0.00    -0.077 A 
ATOM      3  C3  <0> A   1     -26.115   0.136  50.972  0.00  0.00    +0.006 A 
ATOM      4  C4  <0> A   1     -25.866  -1.160  50.568  0.00  0.00    -0.068 A 
ATOM      5  C5  <0> A   1     -24.660  -1.774  50.902  0.00  0.00    -0.056 A 
ATOM      6  C6  <0> A   1     -23.702  -1.063  51.652  0.00  0.00    -0.038 A 
ATOM      7  C7  <0> A   1     -23.972   0.250  52.046  0.00  0.00    +0.009 A 
ATOM      8  C23 <0> A   1     -26.898  -1.911  49.767  0.00  0.00    +0.092 C 
ENDROOT
BRANCH   6   9
ATOM      9  C8  <0> A   1     -22.424  -1.696  52.013  0.00  0.00    +0.028 C 
ATOM     10  C9  <0> A   1     -22.160  -1.993  53.298  0.00  0.00    +0.016 C 
BRANCH  10  11
ATOM     11  C10 <0> A   1     -20.880  -2.627  53.658  0.00  0.00    -0.050 A 
ATOM     12  C11 <0> A   1     -19.679  -1.937  53.475  0.00  0.00    +0.034 A 
ATOM     13  C12 <0> A   1     -18.485  -2.537  53.814  0.00  0.00    +0.029 A 
ATOM     14  C13 <0> A   1     -18.473  -3.820  54.336  0.00  0.00    -0.035 A 
ATOM     15  C14 <0> A   1     -19.660  -4.510  54.520  0.00  0.00    +0.027 A 
ATOM     16  C15 <0> A   1     -20.863  -3.920  54.191  0.00  0.00    +0.038 A 
ATOM     17 Cl1  <0> A   1     -16.966  -4.567  54.760  0.00  0.00    -0.069 Cl
ENDBRANCH  10  11
ENDBRANCH   6   9
BRANCH   5  18
ATOM     18  C16 <0> A   1     -24.388  -3.160  50.474  0.00  0.00    +0.047 C 
ATOM     19  C17 <0> A   1     -24.706  -4.173  51.271  0.00  0.00    -0.022 C 
BRANCH  19  20
ATOM     20  C18 <0> A   1     -24.316  -5.579  50.892  0.00  0.00    +0.239 C 
ATOM     21  C19 <0> A   1     -25.372  -6.167  49.951  0.00  0.00    +0.052 C 
ATOM     22  C20 <0> A   1     -24.993  -7.609  49.602  0.00  0.00    +0.186 C 
ATOM     23  C21 <0> A   1     -24.918  -8.430  50.895  0.00  0.00    +0.023 C 
ATOM     24  C22 <0> A   1     -24.015  -7.702  51.868  0.00  0.00    +0.497 C 
ATOM     25  O1  <0> A   1     -23.127  -8.284  52.445  0.00  0.00    -0.450 OA
ATOM     26  O2  <0> A   1     -24.231  -6.386  52.071  0.00  0.00    -0.369 OA
BRANCH  22  27
ATOM     27  O3  <0> A   1     -23.723  -7.626  48.947  0.00  0.00    -0.564 OA
ATOM     28  H20 <0> A   1     -23.757  -7.942  48.033  0.00  0.00    +0.387 HD
ENDBRANCH  22  27
ENDBRANCH  19  20
ENDBRANCH   5  18
TORSDOF 5
