REMARK VINA RESULT:      -7.0     10.493     13.724
REMARK  Name = CHEMBL83483
REMARK  14 active torsions:
REMARK  status: ('A' for Active; 'I' for Inactive)
REMARK    1  A    between atoms: C1_1  and  C2_2
REMARK    2  A    between atoms: C2_2  and  C3_3
REMARK    3  A    between atoms: C3_3  and  C4_4
REMARK    4  A    between atoms: C3_3  and  C5_5
REMARK    5  A    between atoms: C3_3  and  C6_6
REMARK    6  A    between atoms: C6_6  and  O2_8
REMARK    7  A    between atoms: O2_8  and  C7_9
REMARK    8  A    between atoms: C9_12  and  C24_35
REMARK    9  A    between atoms: C9_12  and  C25_36
REMARK   10  A    between atoms: C12_17  and  C17_24
REMARK   11  A    between atoms: C13_19  and  C16_23
REMARK   12  A    between atoms: C17_24  and  C18_25
REMARK   13  A    between atoms: C18_25  and  C19_26
REMARK   14  A    between atoms: C21_28  and  O6_34
REMARK                            x       y       z     vdW  Elec       q    Type
REMARK                         _______ _______ _______ _____ _____    ______ ____
ROOT
ATOM      1  C7  <0> A   1      -0.270   7.816  51.803  0.00  0.00    +0.187 C 
ATOM      2  C8  <0> A   1       1.129   7.222  51.553  0.00  0.00    -0.010 C 
ATOM      3  C9  <0> A   1       2.215   8.171  52.051  0.00  0.00    +0.130 C 
ATOM      4  O3  <0> A   1       1.998   9.504  51.624  0.00  0.00    -0.370 OA
ATOM      5  C10 <0> A   1       0.711  10.083  51.669  0.00  0.00    +0.218 C 
ATOM      6  C11 <0> A   1      -0.343   9.143  51.062  0.00  0.00    -0.016 C 
ATOM      7  C12 <0> A   1      -1.688   9.832  51.060  0.00  0.00    -0.002 C 
ATOM      8  C13 <0> A   1      -2.120  10.399  52.402  0.00  0.00    -0.016 C 
ATOM      9  C14 <0> A   1      -1.018  11.227  53.053  0.00  0.00    +0.020 C 
ATOM     10  C15 <0> A   1       0.297  10.447  53.093  0.00  0.00    -0.013 C 
ATOM     11  C16 <0> A   1      -2.619   9.309  53.346  0.00  0.00    +0.014 C 
ATOM     12  C24 <0> A   1       3.558   7.698  51.454  0.00  0.00    +0.055 C 
ATOM     13  C25 <0> A   1       2.335   8.084  53.573  0.00  0.00    +0.016 C 
ENDROOT
BRANCH   1  14
ATOM     14  O2  <0> A   1      -1.228   6.873  51.319  0.00  0.00    -0.333 OA
BRANCH  14  15
ATOM     15  C6  <0> A   1      -1.397   5.753  52.038  0.00  0.00    +0.471 C 
ATOM     16  O1  <0> A   1      -0.454   5.034  52.268  0.00  0.00    -0.507 OA
BRANCH  15  17
ATOM     17  C3  <0> A   1      -2.764   5.392  52.560  0.00  0.00    -0.056 C 
ATOM     18  C4  <0> A   1      -2.883   5.828  54.022  0.00  0.00    +0.057 C 
ATOM     19  C5  <0> A   1      -2.964   3.878  52.462  0.00  0.00    +0.077 C 
BRANCH  17  21
ATOM     20  C1  <0> A   1      -4.996   6.512  52.634  0.00  0.00    +0.023 C 
ATOM     21  C2  <0> A   1      -3.833   6.103  51.728  0.00  0.00    +0.033 C 
ENDBRANCH  17  21
ENDBRANCH  15  17
ENDBRANCH  14  15
ENDBRANCH   1  14
BRANCH   7  22
ATOM     22  C17 <0> A   1      -2.797   8.965  50.468  0.00  0.00    +0.037 C 
BRANCH  22  23
ATOM     23  C18 <0> A   1      -2.628   8.887  48.949  0.00  0.00    +0.044 C 
BRANCH  23  24
ATOM     24  C19 <0> A   1      -3.273   7.602  48.429  0.00  0.00    +0.196 C 
ATOM     25  C20 <0> A   1      -2.180   6.593  48.064  0.00  0.00    +0.037 C 
ATOM     26  C21 <0> A   1      -2.828   5.322  47.505  0.00  0.00    +0.182 C 
ATOM     27  C22 <0> A   1      -3.650   5.689  46.262  0.00  0.00    +0.016 C 
ATOM     28  C23 <0> A   1      -4.577   6.828  46.626  0.00  0.00    +0.495 C 
ATOM     29  O4  <0> A   1      -5.754   6.785  46.352  0.00  0.00    -0.447 OA
ATOM     30  O5  <0> A   1      -4.053   7.895  47.266  0.00  0.00    -0.361 OA
BRANCH  26  31
ATOM     31  O6  <0> A   1      -3.684   4.747  48.494  0.00  0.00    -0.563 OA
ATOM     32  H36 <0> A   1      -3.222   4.190  49.137  0.00  0.00    +0.386 HD
ENDBRANCH  26  31
ENDBRANCH  23  24
ENDBRANCH  22  23
ENDBRANCH   7  22
TORSDOF 8
