MODEL 1
REMARK VINA RESULT:      -7.7      0.000      0.000
REMARK  Name = CHEMBL318102
REMARK  13 active torsions:
REMARK  status: ('A' for Active; 'I' for Inactive)
REMARK    1  A    between atoms: C1_1  and  C2_2
REMARK    2  A    between atoms: C2_2  and  C3_3
REMARK    3  A    between atoms: C2_2  and  C4_4
REMARK    4  A    between atoms: C4_4  and  C18_20
REMARK    5  A    between atoms: C5_5  and  C6_6
REMARK    6  A    between atoms: C5_5  and  C12_13
REMARK    7  A    between atoms: C19_21  and  C20_22
REMARK    8  A    between atoms: C20_22  and  C21_24
REMARK    9  A    between atoms: C20_22  and  O4_32
REMARK   10  A    between atoms: C21_24  and  C22_25
REMARK   11  A    between atoms: C22_25  and  C23_27
REMARK   12  A    between atoms: C22_25  and  O3_31
REMARK   13  A    between atoms: C23_27  and  C24_28
REMARK                            x       y       z     vdW  Elec       q    Type
REMARK                         _______ _______ _______ _____ _____    ______ ____
ROOT
ATOM      1  C4  <0> A   1     -14.570   6.514  45.145  0.00  0.00    -0.029 C 
ATOM      2  C5  <0> A   1     -14.854   7.363  46.168  0.00  0.00    -0.073 C 
ENDROOT
BRANCH   2   3
ATOM      3  C6  <0> A   1     -14.039   8.581  46.366  0.00  0.00    -0.043 A 
ATOM      4  C7  <0> A   1     -14.443   9.794  45.806  0.00  0.00    +0.057 A 
ATOM      5  C8  <0> A   1     -13.678  10.926  45.994  0.00  0.00    -0.011 A 
ATOM      6  C9  <0> A   1     -12.510  10.860  46.736  0.00  0.00    +0.099 A 
ATOM      7  C10 <0> A   1     -12.102   9.659  47.293  0.00  0.00    -0.017 A 
ATOM      8  C11 <0> A   1     -12.864   8.522  47.117  0.00  0.00    +0.054 A 
ATOM      9  F1  <0> A   1     -11.764  11.972  46.916  0.00  0.00    -0.140 F 
ENDBRANCH   2   3
BRANCH   2  10
ATOM     10  C12 <0> A   1     -15.977   7.068  47.084  0.00  0.00    -0.039 A 
ATOM     11  C13 <0> A   1     -17.273   7.472  46.756  0.00  0.00    +0.055 A 
ATOM     12  C14 <0> A   1     -18.316   7.195  47.614  0.00  0.00    -0.016 A 
ATOM     13  C15 <0> A   1     -18.081   6.515  48.799  0.00  0.00    +0.095 A 
ATOM     14  C16 <0> A   1     -16.797   6.113  49.129  0.00  0.00    -0.016 A 
ATOM     15  C17 <0> A   1     -15.747   6.379  48.276  0.00  0.00    +0.057 A 
ATOM     16  F2  <0> A   1     -19.108   6.246  49.636  0.00  0.00    -0.141 F 
ENDBRANCH   2  10
BRANCH   1  18
ATOM     17  C1  <0> A   1     -16.405   5.509  43.813  0.00  0.00    +0.027 C 
ATOM     18  C2  <0> A   1     -15.401   5.273  44.944  0.00  0.00    +0.017 C 
ATOM     19  C3  <0> A   1     -14.487   4.102  44.577  0.00  0.00    +0.027 C 
ENDBRANCH   1  18
BRANCH   1  20
ATOM     20  C18 <0> A   1     -13.460   6.807  44.240  0.00  0.00    -0.007 C 
ATOM     21  C19 <0> A   1     -13.704   7.282  43.017  0.00  0.00    -0.035 C 
BRANCH  21  22
ATOM     22  C20 <0> A   1     -12.569   7.488  42.048  0.00  0.00    +0.245 C 
BRANCH  22  23
ATOM     23  O4  <0> A   1     -11.780   6.298  41.978  0.00  0.00    -0.537 OA
ATOM     24  H25 <0> A   1     -12.206   5.521  42.364  0.00  0.00    +0.365 HD
ENDBRANCH  22  23
BRANCH  22  25
ATOM     25  C21 <0> A   1     -13.132   7.808  40.662  0.00  0.00    -0.040 C 
BRANCH  25  26
ATOM     26  C22 <0> A   1     -12.366   8.988  40.060  0.00  0.00    +0.231 C 
BRANCH  26  27
ATOM     27  O3  <0> A   1     -12.523   8.984  38.640  0.00  0.00    -0.527 OA
ATOM     28  H24 <0> A   1     -13.014   8.225  38.301  0.00  0.00    +0.350 HD
ENDBRANCH  26  27
BRANCH  26  29
ATOM     29  C23 <0> A   1     -12.916  10.297  40.631  0.00  0.00    -0.102 C 
BRANCH  29  30
ATOM     30  C24 <0> A   1     -13.313  11.211  39.499  0.00  0.00    +0.490 C 
ATOM     31  O1  <0> A   1     -12.468  11.885  38.935  0.00  0.00    -0.681 OA
ATOM     32  O2  <0> A   1     -14.478  11.275  39.147  0.00  0.00    -0.713 OA
ENDBRANCH  29  30
ENDBRANCH  26  29
ENDBRANCH  25  26
ENDBRANCH  22  25
ENDBRANCH  21  22
ENDBRANCH   1  20
TORSDOF 11
ENDMDL
MODEL 2
REMARK VINA RESULT:      -7.7      0.060      1.036
REMARK  Name = CHEMBL318102
REMARK  13 active torsions:
REMARK  status: ('A' for Active; 'I' for Inactive)
REMARK    1  A    between atoms: C1_1  and  C2_2
REMARK    2  A    between atoms: C2_2  and  C3_3
REMARK    3  A    between atoms: C2_2  and  C4_4
REMARK    4  A    between atoms: C4_4  and  C18_20
REMARK    5  A    between atoms: C5_5  and  C6_6
REMARK    6  A    between atoms: C5_5  and  C12_13
REMARK    7  A    between atoms: C19_21  and  C20_22
REMARK    8  A    between atoms: C20_22  and  C21_24
REMARK    9  A    between atoms: C20_22  and  O4_32
REMARK   10  A    between atoms: C21_24  and  C22_25
REMARK   11  A    between atoms: C22_25  and  C23_27
REMARK   12  A    between atoms: C22_25  and  O3_31
REMARK   13  A    between atoms: C23_27  and  C24_28
REMARK                            x       y       z     vdW  Elec       q    Type
REMARK                         _______ _______ _______ _____ _____    ______ ____
ROOT
ATOM      1  C4  <0> A   1     -14.538   6.522  45.165  0.00  0.00    -0.029 C 
ATOM      2  C5  <0> A   1     -14.815   7.382  46.180  0.00  0.00    -0.073 C 
ENDROOT
BRANCH   2   3
ATOM      3  C6  <0> A   1     -13.994   8.599  46.363  0.00  0.00    -0.043 A 
ATOM      4  C7  <0> A   1     -14.427   9.821  45.846  0.00  0.00    +0.057 A 
ATOM      5  C8  <0> A   1     -13.656  10.952  46.020  0.00  0.00    -0.011 A 
ATOM      6  C9  <0> A   1     -12.454  10.875  46.704  0.00  0.00    +0.099 A 
ATOM      7  C10 <0> A   1     -12.019   9.665  47.219  0.00  0.00    -0.017 A 
ATOM      8  C11 <0> A   1     -12.785   8.529  47.057  0.00  0.00    +0.054 A 
ATOM      9  F1  <0> A   1     -11.703  11.986  46.870  0.00  0.00    -0.140 F 
ENDBRANCH   2   3
BRANCH   2  10
ATOM     10  C12 <0> A   1     -15.936   7.101  47.102  0.00  0.00    -0.039 A 
ATOM     11  C13 <0> A   1     -15.698   6.461  48.320  0.00  0.00    +0.055 A 
ATOM     12  C14 <0> A   1     -16.748   6.201  49.176  0.00  0.00    -0.016 A 
ATOM     13  C15 <0> A   1     -18.037   6.575  48.830  0.00  0.00    +0.095 A 
ATOM     14  C16 <0> A   1     -18.279   7.210  47.623  0.00  0.00    -0.016 A 
ATOM     15  C17 <0> A   1     -17.236   7.481  46.762  0.00  0.00    +0.057 A 
ATOM     16  F2  <0> A   1     -19.061   6.317  49.673  0.00  0.00    -0.141 F 
ENDBRANCH   2  10
BRANCH   1  18
ATOM     17  C1  <0> A   1     -16.357   5.498  43.826  0.00  0.00    +0.027 C 
ATOM     18  C2  <0> A   1     -15.374   5.282  44.979  0.00  0.00    +0.017 C 
ATOM     19  C3  <0> A   1     -14.463   4.096  44.656  0.00  0.00    +0.027 C 
ENDBRANCH   1  18
BRANCH   1  20
ATOM     20  C18 <0> A   1     -13.429   6.800  44.253  0.00  0.00    -0.007 C 
ATOM     21  C19 <0> A   1     -13.672   7.310  43.044  0.00  0.00    -0.035 C 
BRANCH  21  22
ATOM     22  C20 <0> A   1     -12.542   7.503  42.067  0.00  0.00    +0.245 C 
BRANCH  22  23
ATOM     23  O4  <0> A   1     -11.750   6.314  42.013  0.00  0.00    -0.537 OA
ATOM     24  H25 <0> A   1     -12.236   5.508  42.235  0.00  0.00    +0.365 HD
ENDBRANCH  22  23
BRANCH  22  25
ATOM     25  C21 <0> A   1     -13.112   7.799  40.678  0.00  0.00    -0.040 C 
BRANCH  25  26
ATOM     26  C22 <0> A   1     -12.367   8.985  40.063  0.00  0.00    +0.231 C 
BRANCH  26  27
ATOM     27  O3  <0> A   1     -12.540   8.974  38.645  0.00  0.00    -0.527 OA
ATOM     28  H24 <0> A   1     -13.361   8.556  38.353  0.00  0.00    +0.350 HD
ENDBRANCH  26  27
BRANCH  26  29
ATOM     29  C23 <0> A   1     -12.927  10.290  40.635  0.00  0.00    -0.102 C 
BRANCH  29  30
ATOM     30  C24 <0> A   1     -13.316  11.208  39.504  0.00  0.00    +0.490 C 
ATOM     31  O1  <0> A   1     -14.480  11.275  39.148  0.00  0.00    -0.681 OA
ATOM     32  O2  <0> A   1     -12.468  11.882  38.946  0.00  0.00    -0.713 OA
ENDBRANCH  29  30
ENDBRANCH  26  29
ENDBRANCH  25  26
ENDBRANCH  22  25
ENDBRANCH  21  22
ENDBRANCH   1  20
TORSDOF 11
ENDMDL
MODEL 3
REMARK VINA RESULT:      -7.7      0.096      1.246
REMARK  Name = CHEMBL318102
REMARK  13 active torsions:
REMARK  status: ('A' for Active; 'I' for Inactive)
REMARK    1  A    between atoms: C1_1  and  C2_2
REMARK    2  A    between atoms: C2_2  and  C3_3
REMARK    3  A    between atoms: C2_2  and  C4_4
REMARK    4  A    between atoms: C4_4  and  C18_20
REMARK    5  A    between atoms: C5_5  and  C6_6
REMARK    6  A    between atoms: C5_5  and  C12_13
REMARK    7  A    between atoms: C19_21  and  C20_22
REMARK    8  A    between atoms: C20_22  and  C21_24
REMARK    9  A    between atoms: C20_22  and  O4_32
REMARK   10  A    between atoms: C21_24  and  C22_25
REMARK   11  A    between atoms: C22_25  and  C23_27
REMARK   12  A    between atoms: C22_25  and  O3_31
REMARK   13  A    between atoms: C23_27  and  C24_28
REMARK                            x       y       z     vdW  Elec       q    Type
REMARK                         _______ _______ _______ _____ _____    ______ ____
ROOT
ATOM      1  C4  <0> A   1     -14.533   6.522  45.136  0.00  0.00    -0.029 C 
ATOM      2  C5  <0> A   1     -14.844   7.365  46.156  0.00  0.00    -0.073 C 
ENDROOT
BRANCH   2   3
ATOM      3  C6  <0> A   1     -14.045   8.592  46.371  0.00  0.00    -0.043 A 
ATOM      4  C7  <0> A   1     -12.814   8.520  47.024  0.00  0.00    +0.057 A 
ATOM      5  C8  <0> A   1     -12.073   9.667  47.221  0.00  0.00    -0.011 A 
ATOM      6  C9  <0> A   1     -12.551  10.888  46.773  0.00  0.00    +0.099 A 
ATOM      7  C10 <0> A   1     -13.773  10.966  46.124  0.00  0.00    -0.017 A 
ATOM      8  C11 <0> A   1     -14.518   9.823  45.915  0.00  0.00    +0.054 A 
ATOM      9  F1  <0> A   1     -11.822  12.009  46.969  0.00  0.00    -0.140 F 
ENDBRANCH   2   3
BRANCH   2  10
ATOM     10  C12 <0> A   1     -15.980   7.056  47.051  0.00  0.00    -0.039 A 
ATOM     11  C13 <0> A   1     -15.755   6.424  48.276  0.00  0.00    +0.055 A 
ATOM     12  C14 <0> A   1     -16.818   6.138  49.106  0.00  0.00    -0.016 A 
ATOM     13  C15 <0> A   1     -18.107   6.477  48.728  0.00  0.00    +0.095 A 
ATOM     14  C16 <0> A   1     -18.336   7.104  47.514  0.00  0.00    -0.016 A 
ATOM     15  C17 <0> A   1     -17.280   7.401  46.678  0.00  0.00    +0.057 A 
ATOM     16  F2  <0> A   1     -19.145   6.194  49.546  0.00  0.00    -0.141 F 
ENDBRANCH   2  10
BRANCH   1  18
ATOM     17  C1  <0> A   1     -16.309   5.489  43.747  0.00  0.00    +0.027 C 
ATOM     18  C2  <0> A   1     -15.347   5.273  44.918  0.00  0.00    +0.017 C 
ATOM     19  C3  <0> A   1     -14.412   4.104  44.598  0.00  0.00    +0.027 C 
ENDBRANCH   1  18
BRANCH   1  20
ATOM     20  C18 <0> A   1     -13.410   6.828  44.251  0.00  0.00    -0.007 C 
ATOM     21  C19 <0> A   1     -13.636   7.329  43.036  0.00  0.00    -0.035 C 
BRANCH  21  22
ATOM     22  C20 <0> A   1     -12.487   7.551  42.086  0.00  0.00    +0.245 C 
BRANCH  22  23
ATOM     23  O4  <0> A   1     -11.672   6.377  42.042  0.00  0.00    -0.537 OA
ATOM     24  H25 <0> A   1     -11.605   5.978  41.164  0.00  0.00    +0.365 HD
ENDBRANCH  22  23
BRANCH  22  25
ATOM     25  C21 <0> A   1     -13.031   7.845  40.686  0.00  0.00    -0.040 C 
BRANCH  25  26
ATOM     26  C22 <0> A   1     -12.315   9.067  40.107  0.00  0.00    +0.231 C 
BRANCH  26  27
ATOM     27  O3  <0> A   1     -12.449   9.069  38.685  0.00  0.00    -0.527 OA
ATOM     28  H24 <0> A   1     -11.703   9.472  38.221  0.00  0.00    +0.350 HD
ENDBRANCH  26  27
BRANCH  26  29
ATOM     29  C23 <0> A   1     -12.938  10.342  40.680  0.00  0.00    -0.102 C 
BRANCH  29  30
ATOM     30  C24 <0> A   1     -13.373  11.240  39.550  0.00  0.00    +0.490 C 
ATOM     31  O1  <0> A   1     -12.564  11.976  39.010  0.00  0.00    -0.681 OA
ATOM     32  O2  <0> A   1     -14.532  11.229  39.174  0.00  0.00    -0.713 OA
ENDBRANCH  29  30
ENDBRANCH  26  29
ENDBRANCH  25  26
ENDBRANCH  22  25
ENDBRANCH  21  22
ENDBRANCH   1  20
TORSDOF 11
ENDMDL
MODEL 4
REMARK VINA RESULT:      -7.4      2.230      4.299
REMARK  Name = CHEMBL318102
REMARK  13 active torsions:
REMARK  status: ('A' for Active; 'I' for Inactive)
REMARK    1  A    between atoms: C1_1  and  C2_2
REMARK    2  A    between atoms: C2_2  and  C3_3
REMARK    3  A    between atoms: C2_2  and  C4_4
REMARK    4  A    between atoms: C4_4  and  C18_20
REMARK    5  A    between atoms: C5_5  and  C6_6
REMARK    6  A    between atoms: C5_5  and  C12_13
REMARK    7  A    between atoms: C19_21  and  C20_22
REMARK    8  A    between atoms: C20_22  and  C21_24
REMARK    9  A    between atoms: C20_22  and  O4_32
REMARK   10  A    between atoms: C21_24  and  C22_25
REMARK   11  A    between atoms: C22_25  and  C23_27
REMARK   12  A    between atoms: C22_25  and  O3_31
REMARK   13  A    between atoms: C23_27  and  C24_28
REMARK                            x       y       z     vdW  Elec       q    Type
REMARK                         _______ _______ _______ _____ _____    ______ ____
ROOT
ATOM      1  C4  <0> A   1     -13.560   9.181  45.222  0.00  0.00    -0.029 C 
ATOM      2  C5  <0> A   1     -14.179   8.445  46.183  0.00  0.00    -0.073 C 
ENDROOT
BRANCH   2   3
ATOM      3  C6  <0> A   1     -14.665   7.083  45.873  0.00  0.00    -0.043 A 
ATOM      4  C7  <0> A   1     -13.802   5.991  45.972  0.00  0.00    +0.057 A 
ATOM      5  C8  <0> A   1     -14.262   4.723  45.681  0.00  0.00    -0.011 A 
ATOM      6  C9  <0> A   1     -15.577   4.534  45.289  0.00  0.00    +0.099 A 
ATOM      7  C10 <0> A   1     -16.438   5.615  45.187  0.00  0.00    -0.017 A 
ATOM      8  C11 <0> A   1     -15.991   6.886  45.483  0.00  0.00    +0.054 A 
ATOM      9  F1  <0> A   1     -16.022   3.290  45.004  0.00  0.00    -0.140 F 
ENDBRANCH   2   3
BRANCH   2  10
ATOM     10  C12 <0> A   1     -14.366   9.006  47.538  0.00  0.00    -0.039 A 
ATOM     11  C13 <0> A   1     -15.505   9.760  47.833  0.00  0.00    +0.055 A 
ATOM     12  C14 <0> A   1     -15.674  10.282  49.098  0.00  0.00    -0.016 A 
ATOM     13  C15 <0> A   1     -14.718  10.059  50.076  0.00  0.00    +0.095 A 
ATOM     14  C16 <0> A   1     -13.587   9.312  49.789  0.00  0.00    -0.016 A 
ATOM     15  C17 <0> A   1     -13.410   8.780  48.529  0.00  0.00    +0.057 A 
ATOM     16  F2  <0> A   1     -14.890  10.572  51.315  0.00  0.00    -0.141 F 
ENDBRANCH   2  10
BRANCH   1  18
ATOM     17  C1  <0> A   1     -11.544  10.541  45.708  0.00  0.00    +0.027 C 
ATOM     18  C2  <0> A   1     -13.065  10.569  45.538  0.00  0.00    +0.017 C 
ATOM     19  C3  <0> A   1     -13.433  11.515  44.393  0.00  0.00    +0.027 C 
ENDBRANCH   1  18
BRANCH   1  20
ATOM     20  C18 <0> A   1     -13.375   8.625  43.882  0.00  0.00    -0.007 C 
ATOM     21  C19 <0> A   1     -12.191   8.123  43.527  0.00  0.00    -0.035 C 
BRANCH  21  22
ATOM     22  C20 <0> A   1     -11.969   7.643  42.116  0.00  0.00    +0.245 C 
BRANCH  22  23
ATOM     23  O4  <0> A   1     -11.880   6.216  42.106  0.00  0.00    -0.537 OA
ATOM     24  H25 <0> A   1     -12.647   5.773  42.493  0.00  0.00    +0.365 HD
ENDBRANCH  22  23
BRANCH  22  25
ATOM     25  C21 <0> A   1     -13.139   8.087  41.235  0.00  0.00    -0.040 C 
BRANCH  25  26
ATOM     26  C22 <0> A   1     -12.680   9.210  40.304  0.00  0.00    +0.231 C 
BRANCH  26  27
ATOM     27  O3  <0> A   1     -13.156   8.958  38.981  0.00  0.00    -0.527 OA
ATOM     28  H24 <0> A   1     -14.091   8.717  38.939  0.00  0.00    +0.350 HD
ENDBRANCH  26  27
BRANCH  26  29
ATOM     29  C23 <0> A   1     -13.238  10.545  40.801  0.00  0.00    -0.102 C 
BRANCH  29  30
ATOM     30  C24 <0> A   1     -13.955  11.241  39.672  0.00  0.00    +0.490 C 
ATOM     31  O1  <0> A   1     -13.323  11.896  38.861  0.00  0.00    -0.681 OA
ATOM     32  O2  <0> A   1     -15.166  11.150  39.571  0.00  0.00    -0.713 OA
ENDBRANCH  29  30
ENDBRANCH  26  29
ENDBRANCH  25  26
ENDBRANCH  22  25
ENDBRANCH  21  22
ENDBRANCH   1  20
TORSDOF 11
ENDMDL
MODEL 5
REMARK VINA RESULT:      -7.3     16.084     19.155
REMARK  Name = CHEMBL318102
REMARK  13 active torsions:
REMARK  status: ('A' for Active; 'I' for Inactive)
REMARK    1  A    between atoms: C1_1  and  C2_2
REMARK    2  A    between atoms: C2_2  and  C3_3
REMARK    3  A    between atoms: C2_2  and  C4_4
REMARK    4  A    between atoms: C4_4  and  C18_20
REMARK    5  A    between atoms: C5_5  and  C6_6
REMARK    6  A    between atoms: C5_5  and  C12_13
REMARK    7  A    between atoms: C19_21  and  C20_22
REMARK    8  A    between atoms: C20_22  and  C21_24
REMARK    9  A    between atoms: C20_22  and  O4_32
REMARK   10  A    between atoms: C21_24  and  C22_25
REMARK   11  A    between atoms: C22_25  and  C23_27
REMARK   12  A    between atoms: C22_25  and  O3_31
REMARK   13  A    between atoms: C23_27  and  C24_28
REMARK                            x       y       z     vdW  Elec       q    Type
REMARK                         _______ _______ _______ _____ _____    ______ ____
ROOT
ATOM      1  C4  <0> A   1     -26.161  -1.916  51.976  0.00  0.00    -0.029 C 
ATOM      2  C5  <0> A   1     -27.393  -1.634  51.475  0.00  0.00    -0.073 C 
ENDROOT
BRANCH   2   3
ATOM      3  C6  <0> A   1     -28.186  -2.697  50.820  0.00  0.00    -0.043 A 
ATOM      4  C7  <0> A   1     -27.979  -2.997  49.473  0.00  0.00    +0.057 A 
ATOM      5  C8  <0> A   1     -28.722  -3.990  48.868  0.00  0.00    -0.011 A 
ATOM      6  C9  <0> A   1     -29.672  -4.688  49.596  0.00  0.00    +0.099 A 
ATOM      7  C10 <0> A   1     -29.882  -4.395  50.934  0.00  0.00    -0.017 A 
ATOM      8  C11 <0> A   1     -29.140  -3.408  51.550  0.00  0.00    +0.054 A 
ATOM      9  F1  <0> A   1     -30.397  -5.659  48.998  0.00  0.00    -0.140 F 
ENDBRANCH   2   3
BRANCH   2  10
ATOM     10  C12 <0> A   1     -27.939  -0.265  51.584  0.00  0.00    -0.039 A 
ATOM     11  C13 <0> A   1     -27.642   0.688  50.607  0.00  0.00    +0.055 A 
ATOM     12  C14 <0> A   1     -28.153   1.964  50.714  0.00  0.00    -0.016 A 
ATOM     13  C15 <0> A   1     -28.963   2.301  51.787  0.00  0.00    +0.095 A 
ATOM     14  C16 <0> A   1     -29.261   1.360  52.759  0.00  0.00    -0.016 A 
ATOM     15  C17 <0> A   1     -28.760   0.079  52.659  0.00  0.00    +0.057 A 
ATOM     16  F2  <0> A   1     -29.462   3.554  51.887  0.00  0.00    -0.141 F 
ENDBRANCH   2  10
BRANCH   1  18
ATOM     17  C1  <0> A   1     -24.692  -1.393  53.904  0.00  0.00    +0.027 C 
ATOM     18  C2  <0> A   1     -25.353  -0.833  52.642  0.00  0.00    +0.017 C 
ATOM     19  C3  <0> A   1     -24.272  -0.337  51.679  0.00  0.00    +0.027 C 
ENDBRANCH   1  18
BRANCH   1  20
ATOM     20  C18 <0> A   1     -25.621  -3.271  51.868  0.00  0.00    -0.007 C 
ATOM     21  C19 <0> A   1     -24.825  -3.592  50.846  0.00  0.00    -0.035 C 
BRANCH  21  22
ATOM     22  C20 <0> A   1     -24.350  -5.012  50.679  0.00  0.00    +0.245 C 
BRANCH  22  23
ATOM     23  O4  <0> A   1     -23.547  -5.382  51.802  0.00  0.00    -0.537 OA
ATOM     24  H25 <0> A   1     -22.712  -5.807  51.566  0.00  0.00    +0.365 HD
ENDBRANCH  22  23
BRANCH  22  25
ATOM     25  C21 <0> A   1     -25.557  -5.947  50.585  0.00  0.00    -0.040 C 
BRANCH  25  26
ATOM     26  C22 <0> A   1     -25.195  -7.166  49.734  0.00  0.00    +0.231 C 
BRANCH  26  27
ATOM     27  O3  <0> A   1     -23.891  -6.988  49.178  0.00  0.00    -0.527 OA
ATOM     28  H24 <0> A   1     -23.427  -7.815  48.992  0.00  0.00    +0.350 HD
ENDBRANCH  26  27
BRANCH  26  29
ATOM     29  C23 <0> A   1     -25.210  -8.421  50.609  0.00  0.00    -0.102 C 
BRANCH  29  30
ATOM     30  C24 <0> A   1     -23.795  -8.818  50.942  0.00  0.00    +0.490 C 
ATOM     31  O1  <0> A   1     -23.205  -9.621  50.240  0.00  0.00    -0.681 OA
ATOM     32  O2  <0> A   1     -23.239  -8.335  51.914  0.00  0.00    -0.713 OA
ENDBRANCH  29  30
ENDBRANCH  26  29
ENDBRANCH  25  26
ENDBRANCH  22  25
ENDBRANCH  21  22
ENDBRANCH   1  20
TORSDOF 11
ENDMDL
MODEL 6
REMARK VINA RESULT:      -7.2     16.118     19.231
REMARK  Name = CHEMBL318102
REMARK  13 active torsions:
REMARK  status: ('A' for Active; 'I' for Inactive)
REMARK    1  A    between atoms: C1_1  and  C2_2
REMARK    2  A    between atoms: C2_2  and  C3_3
REMARK    3  A    between atoms: C2_2  and  C4_4
REMARK    4  A    between atoms: C4_4  and  C18_20
REMARK    5  A    between atoms: C5_5  and  C6_6
REMARK    6  A    between atoms: C5_5  and  C12_13
REMARK    7  A    between atoms: C19_21  and  C20_22
REMARK    8  A    between atoms: C20_22  and  C21_24
REMARK    9  A    between atoms: C20_22  and  O4_32
REMARK   10  A    between atoms: C21_24  and  C22_25
REMARK   11  A    between atoms: C22_25  and  C23_27
REMARK   12  A    between atoms: C22_25  and  O3_31
REMARK   13  A    between atoms: C23_27  and  C24_28
REMARK                            x       y       z     vdW  Elec       q    Type
REMARK                         _______ _______ _______ _____ _____    ______ ____
ROOT
ATOM      1  C4  <0> A   1     -26.126  -2.085  51.887  0.00  0.00    -0.029 C 
ATOM      2  C5  <0> A   1     -27.348  -1.805  51.362  0.00  0.00    -0.073 C 
ENDROOT
BRANCH   2   3
ATOM      3  C6  <0> A   1     -28.148  -2.881  50.736  0.00  0.00    -0.043 A 
ATOM      4  C7  <0> A   1     -29.023  -3.645  51.510  0.00  0.00    +0.057 A 
ATOM      5  C8  <0> A   1     -29.766  -4.647  50.920  0.00  0.00    -0.011 A 
ATOM      6  C9  <0> A   1     -29.642  -4.896  49.563  0.00  0.00    +0.099 A 
ATOM      7  C10 <0> A   1     -28.774  -4.143  48.790  0.00  0.00    -0.017 A 
ATOM      8  C11 <0> A   1     -28.032  -3.133  49.368  0.00  0.00    +0.054 A 
ATOM      9  F1  <0> A   1     -30.371  -5.880  48.991  0.00  0.00    -0.140 F 
ENDBRANCH   2   3
BRANCH   2  10
ATOM     10  C12 <0> A   1     -27.878  -0.426  51.415  0.00  0.00    -0.039 A 
ATOM     11  C13 <0> A   1     -28.719  -0.038  52.460  0.00  0.00    +0.055 A 
ATOM     12  C14 <0> A   1     -29.211   1.249  52.504  0.00  0.00    -0.016 A 
ATOM     13  C15 <0> A   1     -28.870   2.158  51.515  0.00  0.00    +0.095 A 
ATOM     14  C16 <0> A   1     -28.036   1.779  50.476  0.00  0.00    -0.016 A 
ATOM     15  C17 <0> A   1     -27.534   0.496  50.424  0.00  0.00    +0.057 A 
ATOM     16  F2  <0> A   1     -29.355   3.419  51.564  0.00  0.00    -0.141 F 
ENDBRANCH   2  10
BRANCH   1  18
ATOM     17  C1  <0> A   1     -24.647  -1.521  53.796  0.00  0.00    +0.027 C 
ATOM     18  C2  <0> A   1     -25.312  -0.989  52.524  0.00  0.00    +0.017 C 
ATOM     19  C3  <0> A   1     -24.234  -0.520  51.545  0.00  0.00    +0.027 C 
ENDBRANCH   1  18
BRANCH   1  20
ATOM     20  C18 <0> A   1     -25.603  -3.449  51.835  0.00  0.00    -0.007 C 
ATOM     21  C19 <0> A   1     -24.762  -3.804  50.861  0.00  0.00    -0.035 C 
BRANCH  21  22
ATOM     22  C20 <0> A   1     -24.301  -5.234  50.747  0.00  0.00    +0.245 C 
BRANCH  22  23
ATOM     23  O4  <0> A   1     -23.532  -5.581  51.901  0.00  0.00    -0.537 OA
ATOM     24  H25 <0> A   1     -23.377  -6.530  51.999  0.00  0.00    +0.365 HD
ENDBRANCH  22  23
BRANCH  22  25
ATOM     25  C21 <0> A   1     -25.519  -6.156  50.651  0.00  0.00    -0.040 C 
BRANCH  25  26
ATOM     26  C22 <0> A   1     -25.188  -7.345  49.746  0.00  0.00    +0.231 C 
BRANCH  26  27
ATOM     27  O3  <0> A   1     -23.907  -7.146  49.146  0.00  0.00    -0.527 OA
ATOM     28  H24 <0> A   1     -23.201  -6.961  49.779  0.00  0.00    +0.350 HD
ENDBRANCH  26  27
BRANCH  26  29
ATOM     29  C23 <0> A   1     -25.166  -8.629  50.579  0.00  0.00    -0.102 C 
BRANCH  29  30
ATOM     30  C24 <0> A   1     -23.738  -9.034  50.841  0.00  0.00    +0.490 C 
ATOM     31  O1  <0> A   1     -23.167  -9.787  50.072  0.00  0.00    -0.681 OA
ATOM     32  O2  <0> A   1     -23.155  -8.607  51.823  0.00  0.00    -0.713 OA
ENDBRANCH  29  30
ENDBRANCH  26  29
ENDBRANCH  25  26
ENDBRANCH  22  25
ENDBRANCH  21  22
ENDBRANCH   1  20
TORSDOF 11
ENDMDL
MODEL 7
REMARK VINA RESULT:      -7.2      2.350      4.012
REMARK  Name = CHEMBL318102
REMARK  13 active torsions:
REMARK  status: ('A' for Active; 'I' for Inactive)
REMARK    1  A    between atoms: C1_1  and  C2_2
REMARK    2  A    between atoms: C2_2  and  C3_3
REMARK    3  A    between atoms: C2_2  and  C4_4
REMARK    4  A    between atoms: C4_4  and  C18_20
REMARK    5  A    between atoms: C5_5  and  C6_6
REMARK    6  A    between atoms: C5_5  and  C12_13
REMARK    7  A    between atoms: C19_21  and  C20_22
REMARK    8  A    between atoms: C20_22  and  C21_24
REMARK    9  A    between atoms: C20_22  and  O4_32
REMARK   10  A    between atoms: C21_24  and  C22_25
REMARK   11  A    between atoms: C22_25  and  C23_27
REMARK   12  A    between atoms: C22_25  and  O3_31
REMARK   13  A    between atoms: C23_27  and  C24_28
REMARK                            x       y       z     vdW  Elec       q    Type
REMARK                         _______ _______ _______ _____ _____    ______ ____
ROOT
ATOM      1  C4  <0> A   1     -15.130   8.715  46.803  0.00  0.00    -0.029 C 
ATOM      2  C5  <0> A   1     -15.812   7.540  46.732  0.00  0.00    -0.073 C 
ENDROOT
BRANCH   2   3
ATOM      3  C6  <0> A   1     -15.286   6.430  45.908  0.00  0.00    -0.043 A 
ATOM      4  C7  <0> A   1     -15.543   6.392  44.537  0.00  0.00    +0.057 A 
ATOM      5  C8  <0> A   1     -15.050   5.354  43.774  0.00  0.00    -0.011 A 
ATOM      6  C9  <0> A   1     -14.301   4.350  44.367  0.00  0.00    +0.099 A 
ATOM      7  C10 <0> A   1     -14.043   4.382  45.728  0.00  0.00    -0.017 A 
ATOM      8  C11 <0> A   1     -14.526   5.419  46.499  0.00  0.00    +0.054 A 
ATOM      9  F1  <0> A   1     -13.821   3.335  43.615  0.00  0.00    -0.140 F 
ENDBRANCH   2   3
BRANCH   2  10
ATOM     10  C12 <0> A   1     -17.078   7.373  47.477  0.00  0.00    -0.039 A 
ATOM     11  C13 <0> A   1     -18.280   7.205  46.787  0.00  0.00    +0.055 A 
ATOM     12  C14 <0> A   1     -19.458   7.051  47.487  0.00  0.00    -0.016 A 
ATOM     13  C15 <0> A   1     -19.450   7.060  48.873  0.00  0.00    +0.095 A 
ATOM     14  C16 <0> A   1     -18.260   7.226  49.563  0.00  0.00    -0.016 A 
ATOM     15  C17 <0> A   1     -17.075   7.376  48.873  0.00  0.00    +0.057 A 
ATOM     16  F2  <0> A   1     -20.608   6.908  49.553  0.00  0.00    -0.141 F 
ENDBRANCH   2  10
BRANCH   1  18
ATOM     17  C1  <0> A   1     -14.526  10.460  48.459  0.00  0.00    +0.027 C 
ATOM     18  C2  <0> A   1     -15.667   9.846  47.643  0.00  0.00    +0.017 C 
ATOM     19  C3  <0> A   1     -16.272  10.915  46.731  0.00  0.00    +0.027 C 
ENDBRANCH   1  18
BRANCH   1  20
ATOM     20  C18 <0> A   1     -13.879   8.880  46.067  0.00  0.00    -0.007 C 
ATOM     21  C19 <0> A   1     -13.859   9.587  44.935  0.00  0.00    -0.035 C 
BRANCH  21  22
ATOM     22  C20 <0> A   1     -12.593   9.673  44.123  0.00  0.00    +0.245 C 
BRANCH  22  23
ATOM     23  O4  <0> A   1     -11.573   8.888  44.744  0.00  0.00    -0.537 OA
ATOM     24  H25 <0> A   1     -11.453   9.074  45.685  0.00  0.00    +0.365 HD
ENDBRANCH  22  23
BRANCH  22  25
ATOM     25  C21 <0> A   1     -12.855   9.143  42.711  0.00  0.00    -0.040 C 
BRANCH  25  26
ATOM     26  C22 <0> A   1     -13.354  10.284  41.822  0.00  0.00    +0.231 C 
BRANCH  26  27
ATOM     27  O3  <0> A   1     -12.647  11.483  42.143  0.00  0.00    -0.527 OA
ATOM     28  H24 <0> A   1     -13.220  12.229  42.366  0.00  0.00    +0.350 HD
ENDBRANCH  26  27
BRANCH  26  29
ATOM     29  C23 <0> A   1     -13.114   9.928  40.353  0.00  0.00    -0.102 C 
BRANCH  29  30
ATOM     30  C24 <0> A   1     -13.298  11.159  39.502  0.00  0.00    +0.490 C 
ATOM     31  O1  <0> A   1     -14.400  11.434  39.058  0.00  0.00    -0.681 OA
ATOM     32  O2  <0> A   1     -12.345  11.879  39.258  0.00  0.00    -0.713 OA
ENDBRANCH  29  30
ENDBRANCH  26  29
ENDBRANCH  25  26
ENDBRANCH  22  25
ENDBRANCH  21  22
ENDBRANCH   1  20
TORSDOF 11
ENDMDL
MODEL 8
REMARK VINA RESULT:      -7.1      4.414      7.386
REMARK  Name = CHEMBL318102
REMARK  13 active torsions:
REMARK  status: ('A' for Active; 'I' for Inactive)
REMARK    1  A    between atoms: C1_1  and  C2_2
REMARK    2  A    between atoms: C2_2  and  C3_3
REMARK    3  A    between atoms: C2_2  and  C4_4
REMARK    4  A    between atoms: C4_4  and  C18_20
REMARK    5  A    between atoms: C5_5  and  C6_6
REMARK    6  A    between atoms: C5_5  and  C12_13
REMARK    7  A    between atoms: C19_21  and  C20_22
REMARK    8  A    between atoms: C20_22  and  C21_24
REMARK    9  A    between atoms: C20_22  and  O4_32
REMARK   10  A    between atoms: C21_24  and  C22_25
REMARK   11  A    between atoms: C22_25  and  C23_27
REMARK   12  A    between atoms: C22_25  and  O3_31
REMARK   13  A    between atoms: C23_27  and  C24_28
REMARK                            x       y       z     vdW  Elec       q    Type
REMARK                         _______ _______ _______ _____ _____    ______ ____
ROOT
ATOM      1  C4  <0> A   1     -13.627   8.422  44.214  0.00  0.00    -0.029 C 
ATOM      2  C5  <0> A   1     -13.472   9.757  44.003  0.00  0.00    -0.073 C 
ENDROOT
BRANCH   2   3
ATOM      3  C6  <0> A   1     -13.317  10.673  45.154  0.00  0.00    -0.043 A 
ATOM      4  C7  <0> A   1     -14.444  11.198  45.788  0.00  0.00    +0.057 A 
ATOM      5  C8  <0> A   1     -14.293  12.052  46.861  0.00  0.00    -0.011 A 
ATOM      6  C9  <0> A   1     -13.025  12.390  47.307  0.00  0.00    +0.099 A 
ATOM      7  C10 <0> A   1     -11.903  11.872  46.681  0.00  0.00    -0.017 A 
ATOM      8  C11 <0> A   1     -12.043  11.012  45.612  0.00  0.00    +0.054 A 
ATOM      9  F1  <0> A   1     -12.883  13.228  48.358  0.00  0.00    -0.140 F 
ENDBRANCH   2   3
BRANCH   2  10
ATOM     10  C12 <0> A   1     -13.460  10.291  42.625  0.00  0.00    -0.039 A 
ATOM     11  C13 <0> A   1     -14.552  11.017  42.145  0.00  0.00    +0.055 A 
ATOM     12  C14 <0> A   1     -14.536  11.512  40.858  0.00  0.00    -0.016 A 
ATOM     13  C15 <0> A   1     -13.437  11.293  40.042  0.00  0.00    +0.095 A 
ATOM     14  C16 <0> A   1     -12.351  10.574  40.513  0.00  0.00    -0.016 A 
ATOM     15  C17 <0> A   1     -12.353  10.079  41.800  0.00  0.00    +0.057 A 
ATOM     16  F2  <0> A   1     -13.427  11.782  38.782  0.00  0.00    -0.141 F 
ENDBRANCH   2  10
BRANCH   1  18
ATOM     17  C1  <0> A   1     -12.434   6.846  42.715  0.00  0.00    +0.027 C 
ATOM     18  C2  <0> A   1     -13.785   7.489  43.041  0.00  0.00    +0.017 C 
ATOM     19  C3  <0> A   1     -14.797   6.396  43.392  0.00  0.00    +0.027 C 
ENDBRANCH   1  18
BRANCH   1  20
ATOM     20  C18 <0> A   1     -13.639   7.894  45.577  0.00  0.00    -0.007 C 
ATOM     21  C19 <0> A   1     -12.530   7.364  46.096  0.00  0.00    -0.035 C 
BRANCH  21  22
ATOM     22  C20 <0> A   1     -12.566   6.729  47.462  0.00  0.00    +0.245 C 
BRANCH  22  23
ATOM     23  O4  <0> A   1     -12.919   5.350  47.337  0.00  0.00    -0.537 OA
ATOM     24  H25 <0> A   1     -12.332   4.749  47.816  0.00  0.00    +0.365 HD
ENDBRANCH  22  23
BRANCH  22  25
ATOM     25  C21 <0> A   1     -11.188   6.845  48.117  0.00  0.00    -0.040 C 
BRANCH  25  26
ATOM     26  C22 <0> A   1     -10.277   5.734  47.590  0.00  0.00    +0.231 C 
BRANCH  26  27
ATOM     27  O3  <0> A   1      -9.086   6.309  47.051  0.00  0.00    -0.527 OA
ATOM     28  H24 <0> A   1      -8.670   5.776  46.361  0.00  0.00    +0.350 HD
ENDBRANCH  26  27
BRANCH  26  29
ATOM     29  C23 <0> A   1      -9.914   4.787  48.735  0.00  0.00    -0.102 C 
BRANCH  29  30
ATOM     30  C24 <0> A   1      -8.640   4.055  48.396  0.00  0.00    +0.490 C 
ATOM     31  O1  <0> A   1      -8.649   3.174  47.554  0.00  0.00    -0.681 OA
ATOM     32  O2  <0> A   1      -7.601   4.345  48.965  0.00  0.00    -0.713 OA
ENDBRANCH  29  30
ENDBRANCH  26  29
ENDBRANCH  25  26
ENDBRANCH  22  25
ENDBRANCH  21  22
ENDBRANCH   1  20
TORSDOF 11
ENDMDL
MODEL 9
REMARK VINA RESULT:      -7.1      4.022      7.454
REMARK  Name = CHEMBL318102
REMARK  13 active torsions:
REMARK  status: ('A' for Active; 'I' for Inactive)
REMARK    1  A    between atoms: C1_1  and  C2_2
REMARK    2  A    between atoms: C2_2  and  C3_3
REMARK    3  A    between atoms: C2_2  and  C4_4
REMARK    4  A    between atoms: C4_4  and  C18_20
REMARK    5  A    between atoms: C5_5  and  C6_6
REMARK    6  A    between atoms: C5_5  and  C12_13
REMARK    7  A    between atoms: C19_21  and  C20_22
REMARK    8  A    between atoms: C20_22  and  C21_24
REMARK    9  A    between atoms: C20_22  and  O4_32
REMARK   10  A    between atoms: C21_24  and  C22_25
REMARK   11  A    between atoms: C22_25  and  C23_27
REMARK   12  A    between atoms: C22_25  and  O3_31
REMARK   13  A    between atoms: C23_27  and  C24_28
REMARK                            x       y       z     vdW  Elec       q    Type
REMARK                         _______ _______ _______ _____ _____    ______ ____
ROOT
ATOM      1  C4  <0> A   1     -13.685   8.422  44.149  0.00  0.00    -0.029 C 
ATOM      2  C5  <0> A   1     -13.555   9.761  43.948  0.00  0.00    -0.073 C 
ENDROOT
BRANCH   2   3
ATOM      3  C6  <0> A   1     -13.485  10.678  45.107  0.00  0.00    -0.043 A 
ATOM      4  C7  <0> A   1     -12.246  11.053  45.629  0.00  0.00    +0.057 A 
ATOM      5  C8  <0> A   1     -12.187  11.909  46.709  0.00  0.00    -0.011 A 
ATOM      6  C9  <0> A   1     -13.354  12.394  47.276  0.00  0.00    +0.099 A 
ATOM      7  C10 <0> A   1     -14.587  12.024  46.763  0.00  0.00    -0.017 A 
ATOM      8  C11 <0> A   1     -14.658  11.175  45.678  0.00  0.00    +0.054 A 
ATOM      9  F1  <0> A   1     -13.291  13.231  48.335  0.00  0.00    -0.140 F 
ENDBRANCH   2   3
BRANCH   2  10
ATOM     10  C12 <0> A   1     -13.486  10.299  42.573  0.00  0.00    -0.039 A 
ATOM     11  C13 <0> A   1     -14.562  11.018  42.047  0.00  0.00    +0.055 A 
ATOM     12  C14 <0> A   1     -14.493  11.517  40.764  0.00  0.00    -0.016 A 
ATOM     13  C15 <0> A   1     -13.357  11.308  39.997  0.00  0.00    +0.095 A 
ATOM     14  C16 <0> A   1     -12.287  10.596  40.513  0.00  0.00    -0.016 A 
ATOM     15  C17 <0> A   1     -12.343  10.097  41.798  0.00  0.00    +0.057 A 
ATOM     16  F2  <0> A   1     -13.295  11.801  38.739  0.00  0.00    -0.141 F 
ENDBRANCH   2  10
BRANCH   1  18
ATOM     17  C1  <0> A   1     -12.399   6.812  42.769  0.00  0.00    +0.027 C 
ATOM     18  C2  <0> A   1     -13.758   7.488  42.968  0.00  0.00    +0.017 C 
ATOM     19  C3  <0> A   1     -14.823   6.421  43.227  0.00  0.00    +0.027 C 
ENDBRANCH   1  18
BRANCH   1  20
ATOM     20  C18 <0> A   1     -13.753   7.890  45.509  0.00  0.00    -0.007 C 
ATOM     21  C19 <0> A   1     -14.939   7.651  46.073  0.00  0.00    -0.035 C 
BRANCH  21  22
ATOM     22  C20 <0> A   1     -15.013   7.199  47.508  0.00  0.00    +0.245 C 
BRANCH  22  23
ATOM     23  O4  <0> A   1     -15.347   8.311  48.342  0.00  0.00    -0.537 OA
ATOM     24  H25 <0> A   1     -16.268   8.594  48.269  0.00  0.00    +0.365 HD
ENDBRANCH  22  23
BRANCH  22  25
ATOM     25  C21 <0> A   1     -16.086   6.117  47.648  0.00  0.00    -0.040 C 
BRANCH  25  26
ATOM     26  C22 <0> A   1     -17.472   6.756  47.538  0.00  0.00    +0.231 C 
BRANCH  26  27
ATOM     27  O3  <0> A   1     -17.985   6.557  46.220  0.00  0.00    -0.527 OA
ATOM     28  H24 <0> A   1     -17.378   6.093  45.627  0.00  0.00    +0.350 HD
ENDBRANCH  26  27
BRANCH  26  29
ATOM     29  C23 <0> A   1     -18.414   6.109  48.556  0.00  0.00    -0.102 C 
BRANCH  29  30
ATOM     30  C24 <0> A   1     -19.815   6.623  48.340  0.00  0.00    +0.490 C 
ATOM     31  O1  <0> A   1     -20.291   7.435  49.114  0.00  0.00    -0.681 OA
ATOM     32  O2  <0> A   1     -20.471   6.226  47.393  0.00  0.00    -0.713 OA
ENDBRANCH  29  30
ENDBRANCH  26  29
ENDBRANCH  25  26
ENDBRANCH  22  25
ENDBRANCH  21  22
ENDBRANCH   1  20
TORSDOF 11
ENDMDL
MODEL 10
REMARK VINA RESULT:      -7.0     15.528     18.159
REMARK  Name = CHEMBL318102
REMARK  13 active torsions:
REMARK  status: ('A' for Active; 'I' for Inactive)
REMARK    1  A    between atoms: C1_1  and  C2_2
REMARK    2  A    between atoms: C2_2  and  C3_3
REMARK    3  A    between atoms: C2_2  and  C4_4
REMARK    4  A    between atoms: C4_4  and  C18_20
REMARK    5  A    between atoms: C5_5  and  C6_6
REMARK    6  A    between atoms: C5_5  and  C12_13
REMARK    7  A    between atoms: C19_21  and  C20_22
REMARK    8  A    between atoms: C20_22  and  C21_24
REMARK    9  A    between atoms: C20_22  and  O4_32
REMARK   10  A    between atoms: C21_24  and  C22_25
REMARK   11  A    between atoms: C22_25  and  C23_27
REMARK   12  A    between atoms: C22_25  and  O3_31
REMARK   13  A    between atoms: C23_27  and  C24_28
REMARK                            x       y       z     vdW  Elec       q    Type
REMARK                         _______ _______ _______ _____ _____    ______ ____
ROOT
ATOM      1  C4  <0> A   1     -26.933  -2.851  50.777  0.00  0.00    -0.029 C 
ATOM      2  C5  <0> A   1     -26.412  -1.678  51.226  0.00  0.00    -0.073 C 
ENDROOT
BRANCH   2   3
ATOM      3  C6  <0> A   1     -24.998  -1.615  51.655  0.00  0.00    -0.043 A 
ATOM      4  C7  <0> A   1     -23.983  -1.476  50.707  0.00  0.00    +0.057 A 
ATOM      5  C8  <0> A   1     -22.666  -1.417  51.114  0.00  0.00    -0.011 A 
ATOM      6  C9  <0> A   1     -22.351  -1.499  52.460  0.00  0.00    +0.099 A 
ATOM      7  C10 <0> A   1     -23.354  -1.639  53.406  0.00  0.00    -0.017 A 
ATOM      8  C11 <0> A   1     -24.674  -1.691  53.011  0.00  0.00    +0.054 A 
ATOM      9  F1  <0> A   1     -21.059  -1.443  52.853  0.00  0.00    -0.140 F 
ENDBRANCH   2   3
BRANCH   2  10
ATOM     10  C12 <0> A   1     -27.258  -0.467  51.285  0.00  0.00    -0.039 A 
ATOM     11  C13 <0> A   1     -27.248   0.447  50.230  0.00  0.00    +0.055 A 
ATOM     12  C14 <0> A   1     -28.038   1.576  50.291  0.00  0.00    -0.016 A 
ATOM     13  C15 <0> A   1     -28.842   1.802  51.397  0.00  0.00    +0.095 A 
ATOM     14  C16 <0> A   1     -28.856   0.899  52.447  0.00  0.00    -0.016 A 
ATOM     15  C17 <0> A   1     -28.074  -0.237  52.394  0.00  0.00    +0.057 A 
ATOM     16  F2  <0> A   1     -29.615   2.910  51.452  0.00  0.00    -0.141 F 
ENDBRANCH   2  10
BRANCH   1  18
ATOM     17  C1  <0> A   1     -28.482  -3.745  49.058  0.00  0.00    +0.027 C 
ATOM     18  C2  <0> A   1     -28.374  -2.915  50.340  0.00  0.00    +0.017 C 
ATOM     19  C3  <0> A   1     -29.212  -3.568  51.441  0.00  0.00    +0.027 C 
ENDBRANCH   1  18
BRANCH   1  20
ATOM     20  C18 <0> A   1     -26.097  -4.048  50.717  0.00  0.00    -0.007 C 
ATOM     21  C19 <0> A   1     -25.939  -4.806  51.804  0.00  0.00    -0.035 C 
BRANCH  21  22
ATOM     22  C20 <0> A   1     -24.997  -5.982  51.773  0.00  0.00    +0.245 C 
BRANCH  22  23
ATOM     23  O4  <0> A   1     -25.686  -7.155  52.212  0.00  0.00    -0.537 OA
ATOM     24  H25 <0> A   1     -26.463  -6.973  52.758  0.00  0.00    +0.365 HD
ENDBRANCH  22  23
BRANCH  22  25
ATOM     25  C21 <0> A   1     -24.491  -6.193  50.344  0.00  0.00    -0.040 C 
BRANCH  25  26
ATOM     26  C22 <0> A   1     -24.932  -7.570  49.845  0.00  0.00    +0.231 C 
BRANCH  26  27
ATOM     27  O3  <0> A   1     -26.055  -7.425  48.975  0.00  0.00    -0.527 OA
ATOM     28  H24 <0> A   1     -26.805  -6.963  49.374  0.00  0.00    +0.350 HD
ENDBRANCH  26  27
BRANCH  26  29
ATOM     29  C23 <0> A   1     -23.779  -8.230  49.084  0.00  0.00    -0.102 C 
BRANCH  29  30
ATOM     30  C24 <0> A   1     -24.293  -8.793  47.784  0.00  0.00    +0.490 C 
ATOM     31  O1  <0> A   1     -24.885  -9.859  47.774  0.00  0.00    -0.681 OA
ATOM     32  O2  <0> A   1     -24.117  -8.184  46.743  0.00  0.00    -0.713 OA
ENDBRANCH  29  30
ENDBRANCH  26  29
ENDBRANCH  25  26
ENDBRANCH  22  25
ENDBRANCH  21  22
ENDBRANCH   1  20
TORSDOF 11
ENDMDL
