MODEL 1
REMARK VINA RESULT:      -7.2      0.000      0.000
REMARK  Name = CHEMBL39312
REMARK  12 active torsions:
REMARK  status: ('A' for Active; 'I' for Inactive)
REMARK    1  A    between atoms: C4_4  and  C7_7
REMARK    2  A    between atoms: C7_7  and  O1_8
REMARK    3  A    between atoms: O1_8  and  C8_9
REMARK    4  A    between atoms: C13_14  and  C14_15
REMARK    5  A    between atoms: C14_15  and  C15_16
REMARK    6  A    between atoms: C15_16  and  C16_17
REMARK    7  A    between atoms: C16_17  and  C17_19
REMARK    8  A    between atoms: C16_17  and  O5_27
REMARK    9  A    between atoms: C17_19  and  C18_20
REMARK   10  A    between atoms: C18_20  and  C19_22
REMARK   11  A    between atoms: C18_20  and  O4_26
REMARK   12  A    between atoms: C19_22  and  C20_23
REMARK                            x       y       z     vdW  Elec       q    Type
REMARK                         _______ _______ _______ _____ _____    ______ ____
ROOT
ATOM      1  C8  <0> A   1     -14.204   8.847  46.668  0.00  0.00    +0.159 A 
ATOM      2  C9  <0> A   1     -15.185   9.698  47.156  0.00  0.00    -0.056 A 
ATOM      3  C10 <0> A   1     -15.423  10.908  46.530  0.00  0.00    +0.009 A 
ATOM      4  C11 <0> A   1     -14.684  11.270  45.417  0.00  0.00    +0.006 A 
ATOM      5  C12 <0> A   1     -13.705  10.422  44.929  0.00  0.00    +0.011 A 
ATOM      6  C13 <0> A   1     -13.460   9.213  45.556  0.00  0.00    -0.094 A 
ATOM      7 Cl1  <0> A   1     -12.780  10.878  43.533  0.00  0.00    -0.040 Cl
ATOM      8 Cl2  <0> A   1     -16.650  11.974  47.139  0.00  0.00    -0.057 Cl
ENDROOT
BRANCH   1   9
ATOM      9  O1  <0> A   1     -13.969   7.657  47.282  0.00  0.00    -0.289 OA
BRANCH   9  10
ATOM     10  C7  <0> A   1     -15.102   6.826  47.540  0.00  0.00    +0.246 C 
BRANCH  10  14
ATOM     11  C1  <0> A   1     -15.809   4.293  44.174  0.00  0.00    +0.019 A 
ATOM     12  C2  <0> A   1     -14.776   4.009  45.048  0.00  0.00    +0.003 A 
ATOM     13  C3  <0> A   1     -14.547   4.829  46.137  0.00  0.00    +0.030 A 
ATOM     14  C4  <0> A   1     -15.350   5.932  46.352  0.00  0.00    -0.099 A 
ATOM     15  C5  <0> A   1     -16.384   6.217  45.478  0.00  0.00    +0.031 A 
ATOM     16  C6  <0> A   1     -16.613   5.396  44.390  0.00  0.00    +0.005 A 
ENDBRANCH  10  14
ENDBRANCH   9  10
ENDBRANCH   1   9
BRANCH   6  17
ATOM     17  C14 <0> A   1     -12.390   8.294  45.028  0.00  0.00    +0.097 C 
BRANCH  17  18
ATOM     18  C15 <0> A   1     -13.012   7.296  44.049  0.00  0.00    -0.007 C 
BRANCH  18  19
ATOM     19  C16 <0> A   1     -12.367   7.465  42.671  0.00  0.00    +0.211 C 
BRANCH  19  20
ATOM     20  O5  <0> A   1     -11.802   6.219  42.255  0.00  0.00    -0.540 OA
ATOM     21  H21 <0> A   1     -11.109   5.886  42.841  0.00  0.00    +0.364 HD
ENDBRANCH  19  20
BRANCH  19  22
ATOM     22  C17 <0> A   1     -13.428   7.907  41.662  0.00  0.00    -0.053 C 
BRANCH  22  23
ATOM     23  C18 <0> A   1     -12.795   8.850  40.637  0.00  0.00    +0.230 C 
BRANCH  23  24
ATOM     24  O4  <0> A   1     -12.220   8.083  39.576  0.00  0.00    -0.528 OA
ATOM     25  H20 <0> A   1     -12.111   8.574  38.751  0.00  0.00    +0.349 HD
ENDBRANCH  23  24
BRANCH  23  26
ATOM     26  C19 <0> A   1     -13.868   9.781  40.070  0.00  0.00    -0.103 C 
BRANCH  26  27
ATOM     27  C20 <0> A   1     -13.221  11.046  39.568  0.00  0.00    +0.490 C 
ATOM     28  O2  <0> A   1     -12.037  11.249  39.775  0.00  0.00    -0.681 OA
ATOM     29  O3  <0> A   1     -13.882  11.866  38.955  0.00  0.00    -0.714 OA
ENDBRANCH  26  27
ENDBRANCH  23  26
ENDBRANCH  22  23
ENDBRANCH  19  22
ENDBRANCH  18  19
ENDBRANCH  17  18
ENDBRANCH   6  17
TORSDOF 12
ENDMDL
MODEL 2
REMARK VINA RESULT:      -7.0      2.177      4.356
REMARK  Name = CHEMBL39312
REMARK  12 active torsions:
REMARK  status: ('A' for Active; 'I' for Inactive)
REMARK    1  A    between atoms: C4_4  and  C7_7
REMARK    2  A    between atoms: C7_7  and  O1_8
REMARK    3  A    between atoms: O1_8  and  C8_9
REMARK    4  A    between atoms: C13_14  and  C14_15
REMARK    5  A    between atoms: C14_15  and  C15_16
REMARK    6  A    between atoms: C15_16  and  C16_17
REMARK    7  A    between atoms: C16_17  and  C17_19
REMARK    8  A    between atoms: C16_17  and  O5_27
REMARK    9  A    between atoms: C17_19  and  C18_20
REMARK   10  A    between atoms: C18_20  and  C19_22
REMARK   11  A    between atoms: C18_20  and  O4_26
REMARK   12  A    between atoms: C19_22  and  C20_23
REMARK                            x       y       z     vdW  Elec       q    Type
REMARK                         _______ _______ _______ _____ _____    ______ ____
ROOT
ATOM      1  C8  <0> A   1     -14.427   7.423  45.958  0.00  0.00    +0.159 A 
ATOM      2  C9  <0> A   1     -15.318   7.782  46.958  0.00  0.00    -0.056 A 
ATOM      3  C10 <0> A   1     -16.568   7.192  47.014  0.00  0.00    +0.009 A 
ATOM      4  C11 <0> A   1     -16.928   6.243  46.073  0.00  0.00    +0.006 A 
ATOM      5  C12 <0> A   1     -16.040   5.883  45.075  0.00  0.00    +0.011 A 
ATOM      6  C13 <0> A   1     -14.791   6.476  45.012  0.00  0.00    -0.094 A 
ATOM      7 Cl1  <0> A   1     -16.495   4.693  43.896  0.00  0.00    -0.040 Cl
ATOM      8 Cl2  <0> A   1     -17.684   7.640  48.265  0.00  0.00    -0.057 Cl
ENDROOT
BRANCH   1   9
ATOM      9  O1  <0> A   1     -13.198   8.002  45.901  0.00  0.00    -0.289 OA
BRANCH   9  10
ATOM     10  C7  <0> A   1     -12.991   9.163  46.709  0.00  0.00    +0.246 C 
BRANCH  10  14
ATOM     11  C1  <0> A   1     -13.220  12.659  44.266  0.00  0.00    +0.019 A 
ATOM     12  C2  <0> A   1     -13.783  11.474  43.831  0.00  0.00    +0.003 A 
ATOM     13  C3  <0> A   1     -13.708  10.342  44.621  0.00  0.00    +0.030 A 
ATOM     14  C4  <0> A   1     -13.071  10.396  45.847  0.00  0.00    -0.099 A 
ATOM     15  C5  <0> A   1     -12.508  11.582  46.282  0.00  0.00    +0.031 A 
ATOM     16  C6  <0> A   1     -12.584  12.713  45.492  0.00  0.00    +0.005 A 
ENDBRANCH  10  14
ENDBRANCH   9  10
ENDBRANCH   1   9
BRANCH   6  17
ATOM     17  C14 <0> A   1     -13.827   6.090  43.921  0.00  0.00    +0.097 C 
BRANCH  17  18
ATOM     18  C15 <0> A   1     -13.869   7.139  42.808  0.00  0.00    -0.007 C 
BRANCH  18  19
ATOM     19  C16 <0> A   1     -12.454   7.373  42.275  0.00  0.00    +0.211 C 
BRANCH  19  20
ATOM     20  O5  <0> A   1     -11.768   6.122  42.180  0.00  0.00    -0.540 OA
ATOM     21  H21 <0> A   1     -11.794   5.597  42.991  0.00  0.00    +0.364 HD
ENDBRANCH  19  20
BRANCH  19  22
ATOM     22  C17 <0> A   1     -12.531   8.019  40.890  0.00  0.00    -0.053 C 
BRANCH  22  23
ATOM     23  C18 <0> A   1     -12.990   9.471  41.030  0.00  0.00    +0.230 C 
BRANCH  23  24
ATOM     24  O4  <0> A   1     -11.850  10.333  41.025  0.00  0.00    -0.528 OA
ATOM     25  H20 <0> A   1     -11.420  10.421  41.887  0.00  0.00    +0.349 HD
ENDBRANCH  23  24
BRANCH  23  26
ATOM     26  C19 <0> A   1     -13.907   9.831  39.859  0.00  0.00    -0.103 C 
BRANCH  26  27
ATOM     27  C20 <0> A   1     -13.937  11.328  39.686  0.00  0.00    +0.490 C 
ATOM     28  O2  <0> A   1     -14.597  12.017  40.444  0.00  0.00    -0.681 OA
ATOM     29  O3  <0> A   1     -13.300  11.850  38.787  0.00  0.00    -0.714 OA
ENDBRANCH  26  27
ENDBRANCH  23  26
ENDBRANCH  22  23
ENDBRANCH  19  22
ENDBRANCH  18  19
ENDBRANCH  17  18
ENDBRANCH   6  17
TORSDOF 12
ENDMDL
MODEL 3
REMARK VINA RESULT:      -7.0      2.124      4.568
REMARK  Name = CHEMBL39312
REMARK  12 active torsions:
REMARK  status: ('A' for Active; 'I' for Inactive)
REMARK    1  A    between atoms: C4_4  and  C7_7
REMARK    2  A    between atoms: C7_7  and  O1_8
REMARK    3  A    between atoms: O1_8  and  C8_9
REMARK    4  A    between atoms: C13_14  and  C14_15
REMARK    5  A    between atoms: C14_15  and  C15_16
REMARK    6  A    between atoms: C15_16  and  C16_17
REMARK    7  A    between atoms: C16_17  and  C17_19
REMARK    8  A    between atoms: C16_17  and  O5_27
REMARK    9  A    between atoms: C17_19  and  C18_20
REMARK   10  A    between atoms: C18_20  and  C19_22
REMARK   11  A    between atoms: C18_20  and  O4_26
REMARK   12  A    between atoms: C19_22  and  C20_23
REMARK                            x       y       z     vdW  Elec       q    Type
REMARK                         _______ _______ _______ _____ _____    ______ ____
ROOT
ATOM      1  C8  <0> A   1     -14.642   7.829  46.079  0.00  0.00    +0.159 A 
ATOM      2  C9  <0> A   1     -15.768   7.656  46.870  0.00  0.00    -0.056 A 
ATOM      3  C10 <0> A   1     -16.556   6.531  46.713  0.00  0.00    +0.009 A 
ATOM      4  C11 <0> A   1     -16.222   5.578  45.767  0.00  0.00    +0.006 A 
ATOM      5  C12 <0> A   1     -15.099   5.748  44.976  0.00  0.00    +0.011 A 
ATOM      6  C13 <0> A   1     -14.311   6.875  45.126  0.00  0.00    -0.094 A 
ATOM      7 Cl1  <0> A   1     -14.683   4.551  43.791  0.00  0.00    -0.040 Cl
ATOM      8 Cl2  <0> A   1     -17.965   6.313  47.702  0.00  0.00    -0.057 Cl
ENDROOT
BRANCH   1   9
ATOM      9  O1  <0> A   1     -13.866   8.934  46.232  0.00  0.00    -0.289 OA
BRANCH   9  10
ATOM     10  C7  <0> A   1     -14.233  10.094  45.481  0.00  0.00    +0.246 C 
BRANCH  10  14
ATOM     11  C1  <0> A   1     -15.803  13.059  48.124  0.00  0.00    +0.019 A 
ATOM     12  C2  <0> A   1     -16.662  12.239  47.417  0.00  0.00    +0.003 A 
ATOM     13  C3  <0> A   1     -16.154  11.280  46.561  0.00  0.00    +0.030 A 
ATOM     14  C4  <0> A   1     -14.787  11.140  46.412  0.00  0.00    -0.099 A 
ATOM     15  C5  <0> A   1     -13.927  11.961  47.120  0.00  0.00    +0.031 A 
ATOM     16  C6  <0> A   1     -14.436  12.919  47.976  0.00  0.00    +0.005 A 
ENDBRANCH  10  14
ENDBRANCH   9  10
ENDBRANCH   1   9
BRANCH   6  17
ATOM     17  C14 <0> A   1     -13.093   7.065  44.261  0.00  0.00    +0.097 C 
BRANCH  17  18
ATOM     18  C15 <0> A   1     -13.523   7.540  42.872  0.00  0.00    -0.007 C 
BRANCH  18  19
ATOM     19  C16 <0> A   1     -12.334   7.453  41.913  0.00  0.00    +0.211 C 
BRANCH  19  20
ATOM     20  O5  <0> A   1     -11.662   6.205  42.099  0.00  0.00    -0.540 OA
ATOM     21  H21 <0> A   1     -10.728   6.220  41.849  0.00  0.00    +0.364 HD
ENDBRANCH  19  20
BRANCH  19  22
ATOM     22  C17 <0> A   1     -12.833   7.552  40.470  0.00  0.00    -0.053 C 
BRANCH  22  23
ATOM     23  C18 <0> A   1     -12.457   8.918  39.893  0.00  0.00    +0.230 C 
BRANCH  23  24
ATOM     24  O4  <0> A   1     -12.307   8.811  38.476  0.00  0.00    -0.528 OA
ATOM     25  H20 <0> A   1     -11.484   8.385  38.199  0.00  0.00    +0.349 HD
ENDBRANCH  23  24
BRANCH  23  26
ATOM     26  C19 <0> A   1     -13.559   9.929  40.215  0.00  0.00    -0.103 C 
BRANCH  26  27
ATOM     27  C20 <0> A   1     -13.297  11.212  39.470  0.00  0.00    +0.490 C 
ATOM     28  O2  <0> A   1     -14.204  11.767  38.873  0.00  0.00    -0.681 OA
ATOM     29  O3  <0> A   1     -12.179  11.696  39.464  0.00  0.00    -0.714 OA
ENDBRANCH  26  27
ENDBRANCH  23  26
ENDBRANCH  22  23
ENDBRANCH  19  22
ENDBRANCH  18  19
ENDBRANCH  17  18
ENDBRANCH   6  17
TORSDOF 12
ENDMDL
MODEL 4
REMARK VINA RESULT:      -6.9     10.149     13.264
REMARK  Name = CHEMBL39312
REMARK  12 active torsions:
REMARK  status: ('A' for Active; 'I' for Inactive)
REMARK    1  A    between atoms: C4_4  and  C7_7
REMARK    2  A    between atoms: C7_7  and  O1_8
REMARK    3  A    between atoms: O1_8  and  C8_9
REMARK    4  A    between atoms: C13_14  and  C14_15
REMARK    5  A    between atoms: C14_15  and  C15_16
REMARK    6  A    between atoms: C15_16  and  C16_17
REMARK    7  A    between atoms: C16_17  and  C17_19
REMARK    8  A    between atoms: C16_17  and  O5_27
REMARK    9  A    between atoms: C17_19  and  C18_20
REMARK   10  A    between atoms: C18_20  and  C19_22
REMARK   11  A    between atoms: C18_20  and  O4_26
REMARK   12  A    between atoms: C19_22  and  C20_23
REMARK                            x       y       z     vdW  Elec       q    Type
REMARK                         _______ _______ _______ _____ _____    ______ ____
ROOT
ATOM      1  C8  <0> A   1      -3.816   4.263  45.701  0.00  0.00    +0.159 A 
ATOM      2  C9  <0> A   1      -2.447   4.084  45.574  0.00  0.00    -0.056 A 
ATOM      3  C10 <0> A   1      -1.954   2.981  44.901  0.00  0.00    +0.009 A 
ATOM      4  C11 <0> A   1      -2.827   2.057  44.353  0.00  0.00    +0.006 A 
ATOM      5  C12 <0> A   1      -4.194   2.234  44.478  0.00  0.00    +0.011 A 
ATOM      6  C13 <0> A   1      -4.690   3.333  45.156  0.00  0.00    -0.094 A 
ATOM      7 Cl1  <0> A   1      -5.285   1.074  43.790  0.00  0.00    -0.040 Cl
ATOM      8 Cl2  <0> A   1      -0.241   2.755  44.742  0.00  0.00    -0.057 Cl
ENDROOT
BRANCH   1   9
ATOM      9  O1  <0> A   1      -4.303   5.346  46.362  0.00  0.00    -0.289 OA
BRANCH   9  10
ATOM     10  C7  <0> A   1      -3.470   6.508  46.405  0.00  0.00    +0.246 C 
BRANCH  10  14
ATOM     11  C1  <0> A   1      -3.034   7.799  50.454  0.00  0.00    +0.019 A 
ATOM     12  C2  <0> A   1      -3.494   6.523  50.181  0.00  0.00    +0.003 A 
ATOM     13  C3  <0> A   1      -3.635   6.106  48.870  0.00  0.00    +0.030 A 
ATOM     14  C4  <0> A   1      -3.317   6.963  47.834  0.00  0.00    -0.099 A 
ATOM     15  C5  <0> A   1      -2.857   8.238  48.107  0.00  0.00    +0.031 A 
ATOM     16  C6  <0> A   1      -2.715   8.655  49.417  0.00  0.00    +0.005 A 
ENDBRANCH  10  14
ENDBRANCH   9  10
ENDBRANCH   1   9
BRANCH   6  17
ATOM     17  C14 <0> A   1      -6.178   3.523  45.298  0.00  0.00    +0.097 C 
BRANCH  17  18
ATOM     18  C15 <0> A   1      -6.692   2.671  46.461  0.00  0.00    -0.007 C 
BRANCH  18  19
ATOM     19  C16 <0> A   1      -7.269   3.584  47.545  0.00  0.00    +0.211 C 
BRANCH  19  20
ATOM     20  O5  <0> A   1      -8.546   3.090  47.953  0.00  0.00    -0.540 OA
ATOM     21  H21 <0> A   1      -8.598   2.858  48.891  0.00  0.00    +0.364 HD
ENDBRANCH  19  20
BRANCH  19  22
ATOM     22  C17 <0> A   1      -6.323   3.608  48.748  0.00  0.00    -0.053 C 
BRANCH  22  23
ATOM     23  C18 <0> A   1      -6.924   2.778  49.885  0.00  0.00    +0.230 C 
BRANCH  23  24
ATOM     24  O4  <0> A   1      -6.736   1.389  49.611  0.00  0.00    -0.528 OA
ATOM     25  H20 <0> A   1      -7.559   0.902  49.468  0.00  0.00    +0.349 HD
ENDBRANCH  23  24
BRANCH  23  26
ATOM     26  C19 <0> A   1      -6.230   3.138  51.200  0.00  0.00    -0.103 C 
BRANCH  26  27
ATOM     27  C20 <0> A   1      -5.477   1.939  51.716  0.00  0.00    +0.490 C 
ATOM     28  O2  <0> A   1      -4.341   1.720  51.331  0.00  0.00    -0.681 OA
ATOM     29  O3  <0> A   1      -6.004   1.187  52.518  0.00  0.00    -0.714 OA
ENDBRANCH  26  27
ENDBRANCH  23  26
ENDBRANCH  22  23
ENDBRANCH  19  22
ENDBRANCH  18  19
ENDBRANCH  17  18
ENDBRANCH   6  17
TORSDOF 12
ENDMDL
MODEL 5
REMARK VINA RESULT:      -6.9     22.480     24.127
REMARK  Name = CHEMBL39312
REMARK  12 active torsions:
REMARK  status: ('A' for Active; 'I' for Inactive)
REMARK    1  A    between atoms: C4_4  and  C7_7
REMARK    2  A    between atoms: C7_7  and  O1_8
REMARK    3  A    between atoms: O1_8  and  C8_9
REMARK    4  A    between atoms: C13_14  and  C14_15
REMARK    5  A    between atoms: C14_15  and  C15_16
REMARK    6  A    between atoms: C15_16  and  C16_17
REMARK    7  A    between atoms: C16_17  and  C17_19
REMARK    8  A    between atoms: C16_17  and  O5_27
REMARK    9  A    between atoms: C17_19  and  C18_20
REMARK   10  A    between atoms: C18_20  and  C19_22
REMARK   11  A    between atoms: C18_20  and  O4_26
REMARK   12  A    between atoms: C19_22  and  C20_23
REMARK                            x       y       z     vdW  Elec       q    Type
REMARK                         _______ _______ _______ _____ _____    ______ ____
ROOT
ATOM      1  C8  <0> A   1     -31.194  21.554  34.630  0.00  0.00    +0.159 A 
ATOM      2  C9  <0> A   1     -31.152  20.712  33.528  0.00  0.00    -0.056 A 
ATOM      3  C10 <0> A   1     -31.994  19.617  33.463  0.00  0.00    +0.009 A 
ATOM      4  C11 <0> A   1     -32.878  19.361  34.496  0.00  0.00    +0.006 A 
ATOM      5  C12 <0> A   1     -32.922  20.199  35.596  0.00  0.00    +0.011 A 
ATOM      6  C13 <0> A   1     -32.077  21.293  35.668  0.00  0.00    -0.094 A 
ATOM      7 Cl1  <0> A   1     -34.032  19.876  36.890  0.00  0.00    -0.040 Cl
ATOM      8 Cl2  <0> A   1     -31.942  18.564  32.085  0.00  0.00    -0.057 Cl
ENDROOT
BRANCH   1   9
ATOM      9  O1  <0> A   1     -30.367  22.631  34.696  0.00  0.00    -0.289 OA
BRANCH   9  10
ATOM     10  C7  <0> A   1     -29.861  23.136  33.458  0.00  0.00    +0.246 C 
BRANCH  10  14
ATOM     11  C1  <0> A   1     -25.772  24.269  33.951  0.00  0.00    +0.019 A 
ATOM     12  C2  <0> A   1     -26.259  23.970  32.692  0.00  0.00    +0.003 A 
ATOM     13  C3  <0> A   1     -27.582  23.603  32.533  0.00  0.00    +0.030 A 
ATOM     14  C4  <0> A   1     -28.418  23.535  33.632  0.00  0.00    -0.099 A 
ATOM     15  C5  <0> A   1     -27.931  23.834  34.891  0.00  0.00    +0.031 A 
ATOM     16  C6  <0> A   1     -26.608  24.202  35.050  0.00  0.00    +0.005 A 
ENDBRANCH  10  14
ENDBRANCH   9  10
ENDBRANCH   1   9
BRANCH   6  17
ATOM     17  C14 <0> A   1     -32.119  22.201  36.868  0.00  0.00    +0.097 C 
BRANCH  17  18
ATOM     18  C15 <0> A   1     -30.980  21.838  37.823  0.00  0.00    -0.007 C 
BRANCH  18  19
ATOM     19  C16 <0> A   1     -30.367  23.118  38.394  0.00  0.00    +0.211 C 
BRANCH  19  20
ATOM     20  O5  <0> A   1     -28.981  23.177  38.049  0.00  0.00    -0.540 OA
ATOM     21  H21 <0> A   1     -28.616  24.073  38.036  0.00  0.00    +0.364 HD
ENDBRANCH  19  20
BRANCH  19  22
ATOM     22  C17 <0> A   1     -31.089  24.334  37.812  0.00  0.00    -0.053 C 
BRANCH  22  23
ATOM     23  C18 <0> A   1     -30.881  25.540  38.731  0.00  0.00    +0.230 C 
BRANCH  23  24
ATOM     24  O4  <0> A   1     -29.943  25.201  39.754  0.00  0.00    -0.528 OA
ATOM     25  H20 <0> A   1     -29.205  24.657  39.447  0.00  0.00    +0.349 HD
ENDBRANCH  23  24
BRANCH  23  26
ATOM     26  C19 <0> A   1     -30.344  26.717  37.914  0.00  0.00    -0.103 C 
BRANCH  26  27
ATOM     27  C20 <0> A   1     -28.872  26.889  38.189  0.00  0.00    +0.490 C 
ATOM     28  O2  <0> A   1     -28.496  27.715  39.003  0.00  0.00    -0.681 OA
ATOM     29  O3  <0> A   1     -28.057  26.202  37.597  0.00  0.00    -0.714 OA
ENDBRANCH  26  27
ENDBRANCH  23  26
ENDBRANCH  22  23
ENDBRANCH  19  22
ENDBRANCH  18  19
ENDBRANCH  17  18
ENDBRANCH   6  17
TORSDOF 12
ENDMDL
MODEL 6
REMARK VINA RESULT:      -6.8     10.299     12.481
REMARK  Name = CHEMBL39312
REMARK  12 active torsions:
REMARK  status: ('A' for Active; 'I' for Inactive)
REMARK    1  A    between atoms: C4_4  and  C7_7
REMARK    2  A    between atoms: C7_7  and  O1_8
REMARK    3  A    between atoms: O1_8  and  C8_9
REMARK    4  A    between atoms: C13_14  and  C14_15
REMARK    5  A    between atoms: C14_15  and  C15_16
REMARK    6  A    between atoms: C15_16  and  C16_17
REMARK    7  A    between atoms: C16_17  and  C17_19
REMARK    8  A    between atoms: C16_17  and  O5_27
REMARK    9  A    between atoms: C17_19  and  C18_20
REMARK   10  A    between atoms: C18_20  and  C19_22
REMARK   11  A    between atoms: C18_20  and  O4_26
REMARK   12  A    between atoms: C19_22  and  C20_23
REMARK                            x       y       z     vdW  Elec       q    Type
REMARK                         _______ _______ _______ _____ _____    ______ ____
ROOT
ATOM      1  C8  <0> A   1      -5.267   3.958  46.436  0.00  0.00    +0.159 A 
ATOM      2  C9  <0> A   1      -6.079   3.089  45.722  0.00  0.00    -0.056 A 
ATOM      3  C10 <0> A   1      -5.539   2.310  44.715  0.00  0.00    +0.009 A 
ATOM      4  C11 <0> A   1      -4.190   2.398  44.420  0.00  0.00    +0.006 A 
ATOM      5  C12 <0> A   1      -3.378   3.264  45.131  0.00  0.00    +0.011 A 
ATOM      6  C13 <0> A   1      -3.916   4.049  46.135  0.00  0.00    -0.094 A 
ATOM      7 Cl1  <0> A   1      -1.687   3.371  44.758  0.00  0.00    -0.040 Cl
ATOM      8 Cl2  <0> A   1      -6.553   1.222  43.821  0.00  0.00    -0.057 Cl
ENDROOT
BRANCH   1   9
ATOM      9  O1  <0> A   1      -5.796   4.724  47.427  0.00  0.00    -0.289 OA
BRANCH   9  10
ATOM     10  C7  <0> A   1      -6.712   4.087  48.320  0.00  0.00    +0.246 C 
BRANCH  10  14
ATOM     11  C1  <0> A   1      -4.623   2.803  51.818  0.00  0.00    +0.019 A 
ATOM     12  C2  <0> A   1      -5.603   2.000  51.265  0.00  0.00    +0.003 A 
ATOM     13  C3  <0> A   1      -6.280   2.416  50.134  0.00  0.00    +0.030 A 
ATOM     14  C4  <0> A   1      -5.976   3.634  49.555  0.00  0.00    -0.099 A 
ATOM     15  C5  <0> A   1      -4.995   4.437  50.108  0.00  0.00    +0.031 A 
ATOM     16  C6  <0> A   1      -4.318   4.021  51.239  0.00  0.00    +0.005 A 
ENDBRANCH  10  14
ENDBRANCH   9  10
ENDBRANCH   1   9
BRANCH   6  17
ATOM     17  C14 <0> A   1      -3.034   4.997  46.905  0.00  0.00    +0.097 C 
BRANCH  17  18
ATOM     18  C15 <0> A   1      -2.968   6.339  46.174  0.00  0.00    -0.007 C 
BRANCH  18  19
ATOM     19  C16 <0> A   1      -3.423   7.456  47.115  0.00  0.00    +0.211 C 
BRANCH  19  20
ATOM     20  O5  <0> A   1      -4.829   7.661  46.965  0.00  0.00    -0.540 OA
ATOM     21  H21 <0> A   1      -5.084   8.028  46.107  0.00  0.00    +0.364 HD
ENDBRANCH  19  20
BRANCH  19  22
ATOM     22  C17 <0> A   1      -3.116   7.061  48.561  0.00  0.00    -0.053 C 
BRANCH  22  23
ATOM     23  C18 <0> A   1      -2.421   8.224  49.272  0.00  0.00    +0.230 C 
BRANCH  23  24
ATOM     24  O4  <0> A   1      -2.888   9.460  48.728  0.00  0.00    -0.528 OA
ATOM     25  H20 <0> A   1      -2.431  10.239  49.076  0.00  0.00    +0.349 HD
ENDBRANCH  23  24
BRANCH  23  26
ATOM     26  C19 <0> A   1      -2.739   8.170  50.767  0.00  0.00    -0.103 C 
BRANCH  26  27
ATOM     27  C20 <0> A   1      -2.580   9.545  51.364  0.00  0.00    +0.490 C 
ATOM     28  O2  <0> A   1      -1.467   9.983  51.599  0.00  0.00    -0.681 OA
ATOM     29  O3  <0> A   1      -3.564  10.219  51.611  0.00  0.00    -0.714 OA
ENDBRANCH  26  27
ENDBRANCH  23  26
ENDBRANCH  22  23
ENDBRANCH  19  22
ENDBRANCH  18  19
ENDBRANCH  17  18
ENDBRANCH   6  17
TORSDOF 12
ENDMDL
MODEL 7
REMARK VINA RESULT:      -6.7      2.310      3.876
REMARK  Name = CHEMBL39312
REMARK  12 active torsions:
REMARK  status: ('A' for Active; 'I' for Inactive)
REMARK    1  A    between atoms: C4_4  and  C7_7
REMARK    2  A    between atoms: C7_7  and  O1_8
REMARK    3  A    between atoms: O1_8  and  C8_9
REMARK    4  A    between atoms: C13_14  and  C14_15
REMARK    5  A    between atoms: C14_15  and  C15_16
REMARK    6  A    between atoms: C15_16  and  C16_17
REMARK    7  A    between atoms: C16_17  and  C17_19
REMARK    8  A    between atoms: C16_17  and  O5_27
REMARK    9  A    between atoms: C17_19  and  C18_20
REMARK   10  A    between atoms: C18_20  and  C19_22
REMARK   11  A    between atoms: C18_20  and  O4_26
REMARK   12  A    between atoms: C19_22  and  C20_23
REMARK                            x       y       z     vdW  Elec       q    Type
REMARK                         _______ _______ _______ _____ _____    ______ ____
ROOT
ATOM      1  C8  <0> A   1     -14.348   8.811  46.846  0.00  0.00    +0.159 A 
ATOM      2  C9  <0> A   1     -15.222   7.801  47.221  0.00  0.00    -0.056 A 
ATOM      3  C10 <0> A   1     -16.330   8.097  47.994  0.00  0.00    +0.009 A 
ATOM      4  C11 <0> A   1     -16.567   9.401  48.392  0.00  0.00    +0.006 A 
ATOM      5  C12 <0> A   1     -15.697  10.410  48.019  0.00  0.00    +0.011 A 
ATOM      6  C13 <0> A   1     -14.584  10.117  47.252  0.00  0.00    -0.094 A 
ATOM      7 Cl1  <0> A   1     -15.997  12.044  48.521  0.00  0.00    -0.040 Cl
ATOM      8 Cl2  <0> A   1     -17.423   6.835  48.463  0.00  0.00    -0.057 Cl
ENDROOT
BRANCH   1   9
ATOM      9  O1  <0> A   1     -13.259   8.521  46.087  0.00  0.00    -0.289 OA
BRANCH   9  10
ATOM     10  C7  <0> A   1     -13.206   7.220  45.498  0.00  0.00    +0.246 C 
BRANCH  10  14
ATOM     11  C1  <0> A   1     -12.452   7.588  41.309  0.00  0.00    +0.019 A 
ATOM     12  C2  <0> A   1     -13.727   7.296  41.759  0.00  0.00    +0.003 A 
ATOM     13  C3  <0> A   1     -13.970   7.177  43.115  0.00  0.00    +0.030 A 
ATOM     14  C4  <0> A   1     -12.940   7.348  44.020  0.00  0.00    -0.099 A 
ATOM     15  C5  <0> A   1     -11.665   7.640  43.570  0.00  0.00    +0.031 A 
ATOM     16  C6  <0> A   1     -11.422   7.760  42.215  0.00  0.00    +0.005 A 
ENDBRANCH  10  14
ENDBRANCH   9  10
ENDBRANCH   1   9
BRANCH   6  17
ATOM     17  C14 <0> A   1     -13.633  11.214  46.851  0.00  0.00    +0.097 C 
BRANCH  17  18
ATOM     18  C15 <0> A   1     -14.164  11.919  45.601  0.00  0.00    -0.007 C 
BRANCH  18  19
ATOM     19  C16 <0> A   1     -13.184  11.713  44.445  0.00  0.00    +0.211 C 
BRANCH  19  20
ATOM     20  O5  <0> A   1     -12.072  10.937  44.896  0.00  0.00    -0.540 OA
ATOM     21  H21 <0> A   1     -12.060  10.784  45.850  0.00  0.00    +0.364 HD
ENDBRANCH  19  20
BRANCH  19  22
ATOM     22  C17 <0> A   1     -13.890  10.978  43.303  0.00  0.00    -0.053 C 
BRANCH  22  23
ATOM     23  C18 <0> A   1     -13.312  11.440  41.965  0.00  0.00    +0.230 C 
BRANCH  23  24
ATOM     24  O4  <0> A   1     -11.980  10.941  41.823  0.00  0.00    -0.528 OA
ATOM     25  H20 <0> A   1     -11.777  10.195  42.403  0.00  0.00    +0.349 HD
ENDBRANCH  23  24
BRANCH  23  26
ATOM     26  C19 <0> A   1     -14.181  10.908  40.823  0.00  0.00    -0.103 C 
BRANCH  26  27
ATOM     27  C20 <0> A   1     -13.441  11.053  39.519  0.00  0.00    +0.490 C 
ATOM     28  O2  <0> A   1     -13.622  12.037  38.821  0.00  0.00    -0.681 OA
ATOM     29  O3  <0> A   1     -12.661  10.188  39.161  0.00  0.00    -0.714 OA
ENDBRANCH  26  27
ENDBRANCH  23  26
ENDBRANCH  22  23
ENDBRANCH  19  22
ENDBRANCH  18  19
ENDBRANCH  17  18
ENDBRANCH   6  17
TORSDOF 12
ENDMDL
MODEL 8
REMARK VINA RESULT:      -6.7     16.087     18.276
REMARK  Name = CHEMBL39312
REMARK  12 active torsions:
REMARK  status: ('A' for Active; 'I' for Inactive)
REMARK    1  A    between atoms: C4_4  and  C7_7
REMARK    2  A    between atoms: C7_7  and  O1_8
REMARK    3  A    between atoms: O1_8  and  C8_9
REMARK    4  A    between atoms: C13_14  and  C14_15
REMARK    5  A    between atoms: C14_15  and  C15_16
REMARK    6  A    between atoms: C15_16  and  C16_17
REMARK    7  A    between atoms: C16_17  and  C17_19
REMARK    8  A    between atoms: C16_17  and  O5_27
REMARK    9  A    between atoms: C17_19  and  C18_20
REMARK   10  A    between atoms: C18_20  and  C19_22
REMARK   11  A    between atoms: C18_20  and  O4_26
REMARK   12  A    between atoms: C19_22  and  C20_23
REMARK                            x       y       z     vdW  Elec       q    Type
REMARK                         _______ _______ _______ _____ _____    ______ ____
ROOT
ATOM      1  C8  <0> A   1     -24.686  -3.785  50.932  0.00  0.00    +0.159 A 
ATOM      2  C9  <0> A   1     -26.066  -3.804  50.797  0.00  0.00    -0.056 A 
ATOM      3  C10 <0> A   1     -26.746  -2.642  50.481  0.00  0.00    +0.009 A 
ATOM      4  C11 <0> A   1     -26.049  -1.460  50.300  0.00  0.00    +0.006 A 
ATOM      5  C12 <0> A   1     -24.672  -1.438  50.434  0.00  0.00    +0.011 A 
ATOM      6  C13 <0> A   1     -23.989  -2.598  50.755  0.00  0.00    -0.094 A 
ATOM      7 Cl1  <0> A   1     -23.801   0.045  50.205  0.00  0.00    -0.040 Cl
ATOM      8 Cl2  <0> A   1     -28.472  -2.666  50.311  0.00  0.00    -0.057 Cl
ENDROOT
BRANCH   1   9
ATOM      9  O1  <0> A   1     -24.016  -4.926  51.242  0.00  0.00    -0.289 OA
BRANCH   9  10
ATOM     10  C7  <0> A   1     -24.795  -6.027  51.717  0.00  0.00    +0.246 C 
BRANCH  10  14
ATOM     11  C1  <0> A   1     -23.478  -9.623  49.825  0.00  0.00    +0.019 A 
ATOM     12  C2  <0> A   1     -23.522  -9.544  51.205  0.00  0.00    +0.003 A 
ATOM     13  C3  <0> A   1     -23.947  -8.380  51.817  0.00  0.00    +0.030 A 
ATOM     14  C4  <0> A   1     -24.329  -7.295  51.050  0.00  0.00    -0.099 A 
ATOM     15  C5  <0> A   1     -24.286  -7.375  49.670  0.00  0.00    +0.031 A 
ATOM     16  C6  <0> A   1     -23.861  -8.539  49.058  0.00  0.00    +0.005 A 
ENDBRANCH  10  14
ENDBRANCH   9  10
ENDBRANCH   1   9
BRANCH   6  17
ATOM     17  C14 <0> A   1     -22.491  -2.573  50.909  0.00  0.00    +0.097 C 
BRANCH  17  18
ATOM     18  C15 <0> A   1     -22.126  -1.941  52.254  0.00  0.00    -0.007 C 
BRANCH  18  19
ATOM     19  C16 <0> A   1     -21.561  -3.016  53.185  0.00  0.00    +0.211 C 
BRANCH  19  20
ATOM     20  O5  <0> A   1     -21.647  -4.292  52.547  0.00  0.00    -0.540 OA
ATOM     21  H21 <0> A   1     -22.479  -4.758  52.709  0.00  0.00    +0.364 HD
ENDBRANCH  19  20
BRANCH  19  22
ATOM     22  C17 <0> A   1     -20.097  -2.700  53.499  0.00  0.00    -0.053 C 
BRANCH  22  23
ATOM     23  C18 <0> A   1     -19.805  -3.037  54.962  0.00  0.00    +0.230 C 
BRANCH  23  24
ATOM     24  O4  <0> A   1     -20.937  -3.696  55.534  0.00  0.00    -0.528 OA
ATOM     25  H20 <0> A   1     -21.719  -3.696  54.966  0.00  0.00    +0.349 HD
ENDBRANCH  23  24
BRANCH  23  26
ATOM     26  C19 <0> A   1     -18.585  -3.957  55.040  0.00  0.00    -0.103 C 
BRANCH  26  27
ATOM     27  C20 <0> A   1     -18.852  -5.214  54.254  0.00  0.00    +0.490 C 
ATOM     28  O2  <0> A   1     -19.800  -5.924  54.543  0.00  0.00    -0.681 OA
ATOM     29  O3  <0> A   1     -18.121  -5.522  53.330  0.00  0.00    -0.714 OA
ENDBRANCH  26  27
ENDBRANCH  23  26
ENDBRANCH  22  23
ENDBRANCH  19  22
ENDBRANCH  18  19
ENDBRANCH  17  18
ENDBRANCH   6  17
TORSDOF 12
ENDMDL
MODEL 9
REMARK VINA RESULT:      -6.7     24.062     25.076
REMARK  Name = CHEMBL39312
REMARK  12 active torsions:
REMARK  status: ('A' for Active; 'I' for Inactive)
REMARK    1  A    between atoms: C4_4  and  C7_7
REMARK    2  A    between atoms: C7_7  and  O1_8
REMARK    3  A    between atoms: O1_8  and  C8_9
REMARK    4  A    between atoms: C13_14  and  C14_15
REMARK    5  A    between atoms: C14_15  and  C15_16
REMARK    6  A    between atoms: C15_16  and  C16_17
REMARK    7  A    between atoms: C16_17  and  C17_19
REMARK    8  A    between atoms: C16_17  and  O5_27
REMARK    9  A    between atoms: C17_19  and  C18_20
REMARK   10  A    between atoms: C18_20  and  C19_22
REMARK   11  A    between atoms: C18_20  and  O4_26
REMARK   12  A    between atoms: C19_22  and  C20_23
REMARK                            x       y       z     vdW  Elec       q    Type
REMARK                         _______ _______ _______ _____ _____    ______ ____
ROOT
ATOM      1  C8  <0> A   1       4.591  21.380  35.378  0.00  0.00    +0.159 A 
ATOM      2  C9  <0> A   1       3.714  22.061  36.209  0.00  0.00    -0.056 A 
ATOM      3  C10 <0> A   1       2.739  22.876  35.665  0.00  0.00    +0.009 A 
ATOM      4  C11 <0> A   1       2.637  23.011  34.291  0.00  0.00    +0.006 A 
ATOM      5  C12 <0> A   1       3.510  22.332  33.460  0.00  0.00    +0.011 A 
ATOM      6  C13 <0> A   1       4.491  21.521  34.001  0.00  0.00    -0.094 A 
ATOM      7 Cl1  <0> A   1       3.379  22.503  31.738  0.00  0.00    -0.040 Cl
ATOM      8 Cl2  <0> A   1       1.641  23.729  36.704  0.00  0.00    -0.057 Cl
ENDROOT
BRANCH   1   9
ATOM      9  O1  <0> A   1       5.551  20.579  35.912  0.00  0.00    -0.289 OA
BRANCH   9  10
ATOM     10  C7  <0> A   1       6.736  21.218  36.392  0.00  0.00    +0.246 C 
BRANCH  10  14
ATOM     11  C1  <0> A   1       7.838  19.522  40.154  0.00  0.00    +0.019 A 
ATOM     12  C2  <0> A   1       7.768  20.895  40.009  0.00  0.00    +0.003 A 
ATOM     13  C3  <0> A   1       7.411  21.444  38.792  0.00  0.00    +0.030 A 
ATOM     14  C4  <0> A   1       7.126  20.620  37.719  0.00  0.00    -0.099 A 
ATOM     15  C5  <0> A   1       7.196  19.246  37.864  0.00  0.00    +0.031 A 
ATOM     16  C6  <0> A   1       7.551  18.698  39.082  0.00  0.00    +0.005 A 
ENDBRANCH  10  14
ENDBRANCH   9  10
ENDBRANCH   1   9
BRANCH   6  17
ATOM     17  C14 <0> A   1       5.447  20.787  33.097  0.00  0.00    +0.097 C 
BRANCH  17  18
ATOM     18  C15 <0> A   1       4.918  19.376  32.833  0.00  0.00    -0.007 C 
BRANCH  18  19
ATOM     19  C16 <0> A   1       4.689  19.190  31.332  0.00  0.00    +0.211 C 
BRANCH  19  20
ATOM     20  O5  <0> A   1       5.528  20.093  30.607  0.00  0.00    -0.540 OA
ATOM     21  H21 <0> A   1       5.123  20.444  29.802  0.00  0.00    +0.364 HD
ENDBRANCH  19  20
BRANCH  19  22
ATOM     22  C17 <0> A   1       5.030  17.751  30.939  0.00  0.00    -0.053 C 
BRANCH  22  23
ATOM     23  C18 <0> A   1       4.267  17.375  29.667  0.00  0.00    +0.230 C 
BRANCH  23  24
ATOM     24  O4  <0> A   1       4.581  18.307  28.631  0.00  0.00    -0.528 OA
ATOM     25  H20 <0> A   1       5.031  19.104  28.943  0.00  0.00    +0.349 HD
ENDBRANCH  23  24
BRANCH  23  26
ATOM     26  C19 <0> A   1       4.671  15.967  29.228  0.00  0.00    -0.103 C 
BRANCH  26  27
ATOM     27  C20 <0> A   1       5.413  16.042  27.919  0.00  0.00    +0.490 C 
ATOM     28  O2  <0> A   1       6.624  16.179  27.911  0.00  0.00    -0.681 OA
ATOM     29  O3  <0> A   1       4.802  15.967  26.866  0.00  0.00    -0.714 OA
ENDBRANCH  26  27
ENDBRANCH  23  26
ENDBRANCH  22  23
ENDBRANCH  19  22
ENDBRANCH  18  19
ENDBRANCH  17  18
ENDBRANCH   6  17
TORSDOF 12
ENDMDL
MODEL 10
REMARK VINA RESULT:      -6.6     22.248     23.367
REMARK  Name = CHEMBL39312
REMARK  12 active torsions:
REMARK  status: ('A' for Active; 'I' for Inactive)
REMARK    1  A    between atoms: C4_4  and  C7_7
REMARK    2  A    between atoms: C7_7  and  O1_8
REMARK    3  A    between atoms: O1_8  and  C8_9
REMARK    4  A    between atoms: C13_14  and  C14_15
REMARK    5  A    between atoms: C14_15  and  C15_16
REMARK    6  A    between atoms: C15_16  and  C16_17
REMARK    7  A    between atoms: C16_17  and  C17_19
REMARK    8  A    between atoms: C16_17  and  O5_27
REMARK    9  A    between atoms: C17_19  and  C18_20
REMARK   10  A    between atoms: C18_20  and  C19_22
REMARK   11  A    between atoms: C18_20  and  O4_26
REMARK   12  A    between atoms: C19_22  and  C20_23
REMARK                            x       y       z     vdW  Elec       q    Type
REMARK                         _______ _______ _______ _____ _____    ______ ____
ROOT
ATOM      1  C8  <0> A   1     -31.553  21.712  35.170  0.00  0.00    +0.159 A 
ATOM      2  C9  <0> A   1     -32.399  20.897  35.906  0.00  0.00    -0.056 A 
ATOM      3  C10 <0> A   1     -32.475  21.041  37.279  0.00  0.00    +0.009 A 
ATOM      4  C11 <0> A   1     -31.707  21.998  37.919  0.00  0.00    +0.006 A 
ATOM      5  C12 <0> A   1     -30.862  22.813  37.186  0.00  0.00    +0.011 A 
ATOM      6  C13 <0> A   1     -30.779  22.668  35.813  0.00  0.00    -0.094 A 
ATOM      7 Cl1  <0> A   1     -29.900  24.012  37.990  0.00  0.00    -0.040 Cl
ATOM      8 Cl2  <0> A   1     -33.534  20.021  38.202  0.00  0.00    -0.057 Cl
ENDROOT
BRANCH   1   9
ATOM      9  O1  <0> A   1     -31.477  21.572  33.820  0.00  0.00    -0.289 OA
BRANCH   9  10
ATOM     10  C7  <0> A   1     -32.580  20.934  33.171  0.00  0.00    +0.246 C 
BRANCH  10  14
ATOM     11  C1  <0> A   1     -31.143  17.693  30.789  0.00  0.00    +0.019 A 
ATOM     12  C2  <0> A   1     -32.140  18.519  30.303  0.00  0.00    +0.003 A 
ATOM     13  C3  <0> A   1     -32.605  19.567  31.074  0.00  0.00    +0.030 A 
ATOM     14  C4  <0> A   1     -32.074  19.790  32.331  0.00  0.00    -0.099 A 
ATOM     15  C5  <0> A   1     -31.076  18.965  32.816  0.00  0.00    +0.031 A 
ATOM     16  C6  <0> A   1     -30.611  17.917  32.044  0.00  0.00    +0.005 A 
ENDBRANCH  10  14
ENDBRANCH   9  10
ENDBRANCH   1   9
BRANCH   6  17
ATOM     17  C14 <0> A   1     -29.854  23.550  35.015  0.00  0.00    +0.097 C 
BRANCH  17  18
ATOM     18  C15 <0> A   1     -28.444  22.956  35.030  0.00  0.00    -0.007 C 
BRANCH  18  19
ATOM     19  C16 <0> A   1     -27.416  24.084  35.136  0.00  0.00    +0.211 C 
BRANCH  19  20
ATOM     20  O5  <0> A   1     -26.868  24.107  36.456  0.00  0.00    -0.540 OA
ATOM     21  H21 <0> A   1     -27.349  23.559  37.091  0.00  0.00    +0.364 HD
ENDBRANCH  19  20
BRANCH  19  22
ATOM     22  C17 <0> A   1     -26.295  23.849  34.122  0.00  0.00    -0.053 C 
BRANCH  22  23
ATOM     23  C18 <0> A   1     -26.705  24.425  32.765  0.00  0.00    +0.230 C 
BRANCH  23  24
ATOM     24  O4  <0> A   1     -25.859  25.530  32.441  0.00  0.00    -0.528 OA
ATOM     25  H20 <0> A   1     -26.172  26.378  32.784  0.00  0.00    +0.349 HD
ENDBRANCH  23  24
BRANCH  23  26
ATOM     26  C19 <0> A   1     -26.569  23.344  31.691  0.00  0.00    -0.103 C 
BRANCH  26  27
ATOM     27  C20 <0> A   1     -25.602  23.807  30.632  0.00  0.00    +0.490 C 
ATOM     28  O2  <0> A   1     -24.405  23.627  30.778  0.00  0.00    -0.681 OA
ATOM     29  O3  <0> A   1     -26.016  24.362  29.629  0.00  0.00    -0.714 OA
ENDBRANCH  26  27
ENDBRANCH  23  26
ENDBRANCH  22  23
ENDBRANCH  19  22
ENDBRANCH  18  19
ENDBRANCH  17  18
ENDBRANCH   6  17
TORSDOF 12
ENDMDL
