REMARK VINA RESULT:      -6.6     11.041     13.752
REMARK  Name = CHEMBL101633
REMARK  11 active torsions:
REMARK  status: ('A' for Active; 'I' for Inactive)
REMARK    1  A    between atoms: C5_5  and  O1_14
REMARK    2  A    between atoms: C6_6  and  C7_7
REMARK    3  A    between atoms: C7_7  and  C8_8
REMARK    4  A    between atoms: O1_14  and  C14_15
REMARK    5  A    between atoms: C14_15  and  C15_16
REMARK    6  A    between atoms: C15_16  and  C16_17
REMARK    7  A    between atoms: C15_16  and  O5_25
REMARK    8  A    between atoms: C16_17  and  C17_18
REMARK    9  A    between atoms: C17_18  and  C18_20
REMARK   10  A    between atoms: C17_18  and  O4_24
REMARK   11  A    between atoms: C18_20  and  C19_21
REMARK                            x       y       z     vdW  Elec       q    Type
REMARK                         _______ _______ _______ _____ _____    ______ ____
ROOT
ATOM      1  C1  <0> A   1     -14.851   8.220  48.470  0.00  0.00    +0.051 A 
ATOM      2  C2  <0> A   1     -15.704   8.795  49.394  0.00  0.00    -0.030 A 
ATOM      3  C3  <0> A   1     -16.296  10.016  49.125  0.00  0.00    +0.047 A 
ATOM      4  C4  <0> A   1     -16.037  10.663  47.931  0.00  0.00    -0.047 A 
ATOM      5  C5  <0> A   1     -15.182  10.087  47.002  0.00  0.00    +0.117 A 
ATOM      6  C6  <0> A   1     -14.589   8.862  47.275  0.00  0.00    -0.069 A 
ATOM      7 Cl1  <0> A   1     -16.782  12.194  47.593  0.00  0.00    -0.041 Cl
ATOM      8 Cl2  <0> A   1     -16.032   7.986  50.894  0.00  0.00    -0.058 Cl
ENDROOT
BRANCH   6   9
ATOM      9  C7  <0> A   1     -13.658   8.234  46.269  0.00  0.00    +0.085 C 
BRANCH   9  10
ATOM     10  C8  <0> A   1     -14.348   7.033  45.618  0.00  0.00    +0.002 C 
ATOM     11  C9  <0> A   1     -13.641   5.745  46.045  0.00  0.00    +0.006 C 
ATOM     12  C10 <0> A   1     -14.331   4.545  45.393  0.00  0.00    +0.000 C 
ATOM     13  C11 <0> A   1     -14.264   4.683  43.871  0.00  0.00    -0.001 C 
ATOM     14  C12 <0> A   1     -14.971   5.971  43.444  0.00  0.00    +0.005 C 
ATOM     15  C13 <0> A   1     -14.282   7.172  44.096  0.00  0.00    +0.013 C 
ENDBRANCH   9  10
ENDBRANCH   6   9
BRANCH   5  16
ATOM     16  O1  <0> A   1     -14.925  10.720  45.827  0.00  0.00    -0.307 OA
BRANCH  16  17
ATOM     17  C14 <0> A   1     -13.939  11.753  45.849  0.00  0.00    +0.152 C 
BRANCH  17  18
ATOM     18  C15 <0> A   1     -13.121  11.705  44.557  0.00  0.00    +0.227 C 
BRANCH  18  19
ATOM     19  O5  <0> A   1     -11.986  10.855  44.742  0.00  0.00    -0.529 OA
ATOM     20  H25 <0> A   1     -12.129  10.144  45.381  0.00  0.00    +0.364 HD
ENDBRANCH  18  19
BRANCH  18  21
ATOM     21  C16 <0> A   1     -13.989  11.156  43.423  0.00  0.00    -0.043 C 
BRANCH  21  22
ATOM     22  C17 <0> A   1     -13.402  11.586  42.077  0.00  0.00    +0.235 C 
BRANCH  22  23
ATOM     23  O4  <0> A   1     -12.173  10.893  41.850  0.00  0.00    -0.527 OA
ATOM     24  H24 <0> A   1     -12.053  10.596  40.937  0.00  0.00    +0.351 HD
ENDBRANCH  22  23
BRANCH  22  25
ATOM     25  C18 <0> A   1     -14.392  11.251  40.959  0.00  0.00    -0.101 C 
BRANCH  25  26
ATOM     26  C19 <0> A   1     -13.637  11.010  39.677  0.00  0.00    +0.490 C 
ATOM     27  O2  <0> A   1     -13.268   9.885  39.389  0.00  0.00    -0.680 OA
ATOM     28  O3  <0> A   1     -13.395  11.941  38.928  0.00  0.00    -0.713 OA
ENDBRANCH  25  26
ENDBRANCH  22  25
ENDBRANCH  21  22
ENDBRANCH  18  21
ENDBRANCH  17  18
ENDBRANCH  16  17
ENDBRANCH   5  16
TORSDOF 11
