REMARK VINA RESULT:      -8.3      0.000      0.000
REMARK  Name = CHEMBL296915
REMARK  7 active torsions:
REMARK  status: ('A' for Active; 'I' for Inactive)
REMARK    1  A    between atoms: C5_5  and  C14_15
REMARK    2  A    between atoms: C6_6  and  O1_7
REMARK    3  A    between atoms: O1_7  and  C7_8
REMARK    4  A    between atoms: C7_8  and  C8_9
REMARK    5  A    between atoms: C14_15  and  C15_16
REMARK    6  A    between atoms: C15_16  and  C16_17
REMARK    7  A    between atoms: C18_19  and  O4_25
REMARK                            x       y       z     vdW  Elec       q    Type
REMARK                         _______ _______ _______ _____ _____    ______ ____
ROOT
ATOM      1  C1  <0> A   1     -31.732  21.706  35.760  0.00  0.00    -0.053 A 
ATOM      2  C2  <0> A   1     -32.812  21.101  36.377  0.00  0.00    +0.013 A 
ATOM      3  C3  <0> A   1     -33.469  20.055  35.754  0.00  0.00    +0.007 A 
ATOM      4  C4  <0> A   1     -33.047  19.611  34.513  0.00  0.00    +0.013 A 
ATOM      5  C5  <0> A   1     -31.968  20.212  33.892  0.00  0.00    -0.102 A 
ATOM      6  C6  <0> A   1     -31.308  21.262  34.516  0.00  0.00    +0.162 A 
ATOM      7 Cl1  <0> A   1     -33.874  18.298  33.735  0.00  0.00    -0.038 Cl
ATOM      8 Cl2  <0> A   1     -33.343  21.655  37.933  0.00  0.00    -0.052 Cl
ENDROOT
BRANCH   6   9
ATOM      9  O1  <0> A   1     -30.247  21.855  33.908  0.00  0.00    -0.297 OA
BRANCH   9  10
ATOM     10  C7  <0> A   1     -30.375  23.241  33.586  0.00  0.00    +0.191 C 
BRANCH  10  11
ATOM     11  C8  <0> A   1     -29.036  23.945  33.821  0.00  0.00    +0.000 C 
ATOM     12  C9  <0> A   1     -27.991  23.389  32.853  0.00  0.00    +0.017 C 
ATOM     13  C10 <0> A   1     -26.652  24.092  33.088  0.00  0.00    +0.005 C 
ATOM     14  C11 <0> A   1     -26.194  23.848  34.527  0.00  0.00    +0.001 C 
ATOM     15  C12 <0> A   1     -27.240  24.402  35.496  0.00  0.00    +0.010 C 
ATOM     16  C13 <0> A   1     -28.579  23.700  35.261  0.00  0.00    +0.018 C 
ENDBRANCH  10  11
ENDBRANCH   9  10
ENDBRANCH   6   9
BRANCH   5  17
ATOM     17  C14 <0> A   1     -31.509  19.729  32.542  0.00  0.00    +0.097 C 
BRANCH  17  18
ATOM     18  C15 <0> A   1     -30.320  18.783  32.717  0.00  0.00    +0.061 C 
BRANCH  18  19
ATOM     19  C16 <0> A   1     -30.460  17.602  31.754  0.00  0.00    +0.199 C 
ATOM     20  C17 <0> A   1     -29.071  17.096  31.357  0.00  0.00    +0.041 C 
ATOM     21  C18 <0> A   1     -29.217  15.940  30.362  0.00  0.00    +0.184 C 
ATOM     22  C19 <0> A   1     -29.972  16.444  29.125  0.00  0.00    +0.020 C 
ATOM     23  C20 <0> A   1     -31.247  17.114  29.587  0.00  0.00    +0.496 C 
ATOM     24  O2  <0> A   1     -32.311  16.841  29.082  0.00  0.00    -0.453 OA
ATOM     25  O3  <0> A   1     -31.162  18.024  30.580  0.00  0.00    -0.366 OA
BRANCH  21  26
ATOM     26  O4  <0> A   1     -29.946  14.874  30.970  0.00  0.00    -0.563 OA
ATOM     27  H26 <0> A   1     -30.903  14.922  30.832  0.00  0.00    +0.386 HD
ENDBRANCH  21  26
ENDBRANCH  18  19
ENDBRANCH  17  18
ENDBRANCH   5  17
TORSDOF 7
