REMARK VINA RESULT:      -7.2      2.576      4.819
REMARK  Name = CHEMBL443275
REMARK  14 active torsions:
REMARK  status: ('A' for Active; 'I' for Inactive)
REMARK    1  A    between atoms: C1_1  and  C2_2
REMARK    2  A    between atoms: C4_4  and  C27_34
REMARK    3  A    between atoms: C5_5  and  O1_22
REMARK    4  A    between atoms: C6_6  and  C8_8
REMARK    5  A    between atoms: C8_8  and  C9_9
REMARK    6  A    between atoms: C8_8  and  C15_16
REMARK    7  A    between atoms: O1_22  and  C21_23
REMARK    8  A    between atoms: C21_23  and  C22_24
REMARK    9  A    between atoms: C22_24  and  C23_25
REMARK   10  A    between atoms: C22_24  and  O5_33
REMARK   11  A    between atoms: C23_25  and  C24_26
REMARK   12  A    between atoms: C24_26  and  C25_28
REMARK   13  A    between atoms: C24_26  and  O4_32
REMARK   14  A    between atoms: C25_28  and  C26_29
REMARK                            x       y       z     vdW  Elec       q    Type
REMARK                         _______ _______ _______ _____ _____    ______ ____
ROOT
ATOM      1  C1  <0> A   1     -17.379   8.922  50.735  0.00  0.00    +0.087 C 
ATOM      2  C2  <0> A   1     -16.684   9.383  49.480  0.00  0.00    -0.088 A 
ATOM      3  C3  <0> A   1     -16.992  10.616  48.934  0.00  0.00    +0.009 A 
ATOM      4  C4  <0> A   1     -16.357  11.042  47.783  0.00  0.00    -0.097 A 
ATOM      5  C5  <0> A   1     -15.410  10.231  47.174  0.00  0.00    +0.097 A 
ATOM      6  C6  <0> A   1     -15.104   8.993  47.724  0.00  0.00    -0.075 A 
ATOM      7  C7  <0> A   1     -15.738   8.575  48.878  0.00  0.00    +0.013 A 
ATOM      8  C27 <0> A   1     -16.692  12.385  47.189  0.00  0.00    +0.096 C 
ENDROOT
BRANCH   6   9
ATOM      9  C8  <0> A   1     -14.077   8.109  47.064  0.00  0.00    +0.091 C 
BRANCH   9  10
ATOM     10  C9  <0> A   1     -14.772   7.079  46.214  0.00  0.00    -0.071 A 
ATOM     11  C10 <0> A   1     -14.511   7.012  44.858  0.00  0.00    +0.042 A 
ATOM     12  C11 <0> A   1     -15.147   6.067  44.076  0.00  0.00    -0.021 A 
ATOM     13  C12 <0> A   1     -16.047   5.186  44.652  0.00  0.00    +0.091 A 
ATOM     14  C13 <0> A   1     -16.308   5.253  46.010  0.00  0.00    -0.014 A 
ATOM     15  C14 <0> A   1     -15.666   6.195  46.790  0.00  0.00    +0.056 A 
ATOM     16  F1  <0> A   1     -16.671   4.261  43.888  0.00  0.00    -0.143 F 
ENDBRANCH   9  10
BRANCH   9  17
ATOM     17  C15 <0> A   1     -13.245   7.406  48.139  0.00  0.00    +0.000 C 
ATOM     18  C16 <0> A   1     -12.438   8.445  48.921  0.00  0.00    +0.010 C 
ATOM     19  C17 <0> A   1     -11.606   7.743  49.994  0.00  0.00    +0.003 C 
ATOM     20  C18 <0> A   1     -10.650   6.749  49.331  0.00  0.00    +0.001 C 
ATOM     21  C19 <0> A   1     -11.457   5.710  48.549  0.00  0.00    +0.003 C 
ATOM     22  C20 <0> A   1     -12.290   6.412  47.475  0.00  0.00    +0.013 C 
ENDBRANCH   9  17
ENDBRANCH   6   9
BRANCH   5  23
ATOM     23  O1  <0> A   1     -14.784  10.646  46.042  0.00  0.00    -0.318 OA
BRANCH  23  24
ATOM     24  C21 <0> A   1     -13.592  11.416  46.205  0.00  0.00    +0.147 C 
BRANCH  24  25
ATOM     25  C22 <0> A   1     -12.927  11.622  44.842  0.00  0.00    +0.224 C 
BRANCH  25  26
ATOM     26  O5  <0> A   1     -11.671  10.942  44.817  0.00  0.00    -0.531 OA
ATOM     27  H31 <0> A   1     -11.630  10.214  44.182  0.00  0.00    +0.363 HD
ENDBRANCH  25  26
BRANCH  25  28
ATOM     28  C23 <0> A   1     -13.832  11.064  43.743  0.00  0.00    -0.043 C 
BRANCH  28  29
ATOM     29  C24 <0> A   1     -13.401  11.632  42.389  0.00  0.00    +0.234 C 
BRANCH  29  30
ATOM     30  O4  <0> A   1     -12.227  10.952  41.939  0.00  0.00    -0.527 OA
ATOM     31  H30 <0> A   1     -12.031  11.087  41.001  0.00  0.00    +0.350 HD
ENDBRANCH  29  30
BRANCH  29  32
ATOM     32  C25 <0> A   1     -14.526  11.436  41.372  0.00  0.00    -0.101 C 
BRANCH  32  33
ATOM     33  C26 <0> A   1     -13.943  10.987  40.057  0.00  0.00    +0.491 C 
ATOM     34  O2  <0> A   1     -13.690  11.807  39.190  0.00  0.00    -0.680 OA
ATOM     35  O3  <0> A   1     -13.725   9.803  39.858  0.00  0.00    -0.713 OA
ENDBRANCH  32  33
ENDBRANCH  29  32
ENDBRANCH  28  29
ENDBRANCH  25  28
ENDBRANCH  24  25
ENDBRANCH  23  24
ENDBRANCH   5  23
TORSDOF 12
