REMARK VINA RESULT:      -7.2      2.846      5.621
REMARK  Name = CHEMBL250707
REMARK  16 active torsions:
REMARK  status: ('A' for Active; 'I' for Inactive)
REMARK    1  A    between atoms: C1_1  and  C2_2
REMARK    2  A    between atoms: C2_2  and  C3_3
REMARK    3  A    between atoms: C2_2  and  N1_4
REMARK    4  A    between atoms: C4_5  and  C24_28
REMARK    5  A    between atoms: C5_6  and  C18_21
REMARK    6  A    between atoms: C6_7  and  C12_15
REMARK    7  A    between atoms: C7_8  and  C8_9
REMARK    8  A    between atoms: N2_11  and  C9_12
REMARK    9  A    between atoms: C24_28  and  C25_29
REMARK   10  A    between atoms: C25_29  and  C26_30
REMARK   11  A    between atoms: C26_30  and  C27_32
REMARK   12  A    between atoms: C26_30  and  O5_40
REMARK   13  A    between atoms: C27_32  and  C28_33
REMARK   14  A    between atoms: C28_33  and  C29_35
REMARK   15  A    between atoms: C28_33  and  O4_39
REMARK   16  A    between atoms: C29_35  and  C30_36
REMARK                            x       y       z     vdW  Elec       q    Type
REMARK                         _______ _______ _______ _____ _____    ______ ____
ROOT
ATOM      1  N1  <0> A   1     -16.818   9.515  49.000  0.00  0.00    -0.402 N 
ATOM      2  C4  <0> A   1     -16.201   8.862  47.985  0.00  0.00    +0.074 C 
ATOM      3  C5  <0> A   1     -16.705   7.599  47.898  0.00  0.00    -0.122 C 
ATOM      4  C6  <0> A   1     -17.687   7.460  48.912  0.00  0.00    -0.057 C 
ATOM      5  C7  <0> A   1     -17.732   8.673  49.589  0.00  0.00    -0.033 C 
ENDROOT
BRANCH   3   6
ATOM      6  C18 <0> A   1     -16.302   6.559  46.919  0.00  0.00    -0.009 A 
ATOM      7  C19 <0> A   1     -16.941   6.476  45.683  0.00  0.00    +0.050 A 
ATOM      8  C20 <0> A   1     -16.562   5.506  44.777  0.00  0.00    -0.016 A 
ATOM      9  C21 <0> A   1     -15.548   4.617  45.094  0.00  0.00    +0.095 A 
ATOM     10  C22 <0> A   1     -14.911   4.696  46.321  0.00  0.00    -0.017 A 
ATOM     11  C23 <0> A   1     -15.278   5.666  47.231  0.00  0.00    +0.055 A 
ATOM     12  F1  <0> A   1     -15.181   3.670  44.203  0.00  0.00    -0.142 F 
ENDBRANCH   3   6
BRANCH   4  13
ATOM     13  C12 <0> A   1     -18.501   6.257  49.197  0.00  0.00    -0.010 A 
ATOM     14  C13 <0> A   1     -17.948   5.188  49.900  0.00  0.00    +0.026 A 
ATOM     15  C14 <0> A   1     -18.711   4.068  50.163  0.00  0.00    +0.003 A 
ATOM     16  C15 <0> A   1     -20.024   4.007  49.728  0.00  0.00    -0.002 A 
ATOM     17  C16 <0> A   1     -20.579   5.064  49.030  0.00  0.00    +0.001 A 
ATOM     18  C17 <0> A   1     -19.826   6.190  48.767  0.00  0.00    +0.009 A 
ENDBRANCH   4  13
BRANCH   5  19
ATOM     19  C8  <0> A   1     -18.599   8.996  50.724  0.00  0.00    +0.608 C 
ATOM     20  O1  <0> A   1     -18.169   8.916  51.861  0.00  0.00    -0.517 OA
ATOM     21  N2  <0> A   1     -19.872   9.382  50.511  0.00  0.00    -0.693 N 
ATOM     22  H10 <0> A   1     -20.235   9.381  49.612  0.00  0.00    +0.404 HD
BRANCH  21  23
ATOM     23  C9  <0> A   1     -20.710   9.801  51.638  0.00  0.00    +0.217 C 
ATOM     24  C10 <0> A   1     -21.948   8.958  51.951  0.00  0.00    +0.009 C 
ATOM     25  C11 <0> A   1     -22.104  10.343  51.319  0.00  0.00    +0.017 C 
ENDBRANCH  21  23
ENDBRANCH   5  19
BRANCH   1  27
ATOM     26  C1  <0> A   1     -15.196  10.962  50.119  0.00  0.00    +0.045 C 
ATOM     27  C2  <0> A   1     -16.549  10.895  49.408  0.00  0.00    +0.230 C 
ATOM     28  C3  <0> A   1     -16.521  11.798  48.173  0.00  0.00    +0.041 C 
ENDBRANCH   1  27
BRANCH   2  29
ATOM     29  C24 <0> A   1     -15.131   9.440  47.096  0.00  0.00    +0.117 C 
BRANCH  29  30
ATOM     30  C25 <0> A   1     -13.754   9.068  47.648  0.00  0.00    -0.007 C 
BRANCH  30  31
ATOM     31  C26 <0> A   1     -12.852   8.606  46.501  0.00  0.00    +0.212 C 
BRANCH  31  32
ATOM     32  O5  <0> A   1     -12.269   7.344  46.833  0.00  0.00    -0.542 OA
ATOM     33  H34 <0> A   1     -12.833   6.585  46.631  0.00  0.00    +0.362 HD
ENDBRANCH  31  32
BRANCH  31  34
ATOM     34  C27 <0> A   1     -13.681   8.465  45.224  0.00  0.00    -0.051 C 
BRANCH  34  35
ATOM     35  C28 <0> A   1     -12.747   8.361  44.018  0.00  0.00    +0.230 C 
BRANCH  35  36
ATOM     36  O4  <0> A   1     -12.148   7.064  43.988  0.00  0.00    -0.528 OA
ATOM     37  H33 <0> A   1     -11.277   7.042  43.569  0.00  0.00    +0.349 HD
ENDBRANCH  35  36
BRANCH  35  38
ATOM     38  C29 <0> A   1     -13.545   8.583  42.731  0.00  0.00    -0.103 C 
BRANCH  38  39
ATOM     39  C30 <0> A   1     -13.580   7.306  41.934  0.00  0.00    +0.490 C 
ATOM     40  O2  <0> A   1     -12.780   7.128  41.032  0.00  0.00    -0.681 OA
ATOM     41  O3  <0> A   1     -14.410   6.450  42.190  0.00  0.00    -0.713 OA
ENDBRANCH  38  39
ENDBRANCH  35  38
ENDBRANCH  34  35
ENDBRANCH  31  34
ENDBRANCH  30  31
ENDBRANCH  29  30
ENDBRANCH   2  29
TORSDOF 14
