REMARK VINA RESULT:      -6.6      2.203      2.536
REMARK  Name = CHEMBL330995
REMARK  12 active torsions:
REMARK  status: ('A' for Active; 'I' for Inactive)
REMARK    1  A    between atoms: C3_3  and  C5_6
REMARK    2  A    between atoms: C6_7  and  C16_28
REMARK    3  A    between atoms: N1_8  and  C9_15
REMARK    4  A    between atoms: C7_9  and  C8_11
REMARK    5  A    between atoms: C9_15  and  C10_16
REMARK    6  A    between atoms: C10_16  and  C11_17
REMARK    7  A    between atoms: C11_17  and  C12_19
REMARK    8  A    between atoms: C11_17  and  O4_27
REMARK    9  A    between atoms: C12_19  and  C13_20
REMARK   10  A    between atoms: C13_20  and  C14_22
REMARK   11  A    between atoms: C13_20  and  O3_26
REMARK   12  A    between atoms: C14_22  and  C15_23
REMARK                            x       y       z     vdW  Elec       q    Type
REMARK                         _______ _______ _______ _____ _____    ______ ____
ROOT
ATOM      1  C5  <0> A   1     -16.471   6.747  47.046  0.00  0.00    +0.099 C 
ATOM      2  C6  <0> A   1     -15.351   7.448  46.626  0.00  0.00    +0.082 C 
ATOM      3  N1  <0> A   1     -14.760   6.677  45.652  0.00  0.00    -0.412 N 
ATOM      4  C7  <0> A   1     -15.514   5.558  45.509  0.00  0.00    +0.118 C 
ATOM      5  N2  <0> A   1     -16.519   5.602  46.338  0.00  0.00    -0.410 NA
ENDROOT
BRANCH   2   6
ATOM      6  C16 <0> A   1     -14.887   8.757  47.125  0.00  0.00    -0.047 A 
ATOM      7  C17 <0> A   1     -15.439   9.936  46.618  0.00  0.00    +0.065 A 
ATOM      8  C18 <0> A   1     -15.002  11.156  47.089  0.00  0.00    -0.005 A 
ATOM      9  C19 <0> A   1     -14.017  11.214  48.061  0.00  0.00    +0.118 A 
ATOM     10  C20 <0> A   1     -13.464  10.049  48.567  0.00  0.00    -0.003 A 
ATOM     11  C21 <0> A   1     -13.898   8.822  48.110  0.00  0.00    +0.087 A 
ATOM     12  F4  <0> A   1     -13.592  12.414  48.518  0.00  0.00    -0.134 F 
ENDBRANCH   2   6
BRANCH   1  15
ATOM     13  C1  <0> A   1     -18.271   8.208  50.038  0.00  0.00    -0.018 C 
ATOM     14  C2  <0> A   1     -17.209   7.935  49.203  0.00  0.00    +0.007 C 
ATOM     15  C3  <0> A   1     -17.430   7.174  48.084  0.00  0.00    -0.072 C 
ATOM     16  S1  <0> A   1     -19.178   6.835  48.210  0.00  0.00    +0.074 S 
ATOM     17  C4  <0> A   1     -19.498   7.718  49.728  0.00  0.00    +0.009 C 
ENDBRANCH   1  15
BRANCH   4  18
ATOM     18  C8  <0> A   1     -15.231   4.435  44.545  0.00  0.00    +0.566 C 
ATOM     19  F1  <0> A   1     -16.282   3.512  44.582  0.00  0.00    -0.149 F 
ATOM     20  F2  <0> A   1     -15.111   4.952  43.250  0.00  0.00    -0.164 F 
ATOM     21  F3  <0> A   1     -14.039   3.799  44.906  0.00  0.00    -0.163 F 
ENDBRANCH   4  18
BRANCH   3  22
ATOM     22  C9  <0> A   1     -13.541   7.003  44.906  0.00  0.00    +0.308 C 
BRANCH  22  23
ATOM     23  C10 <0> A   1     -13.896   7.887  43.710  0.00  0.00    -0.008 C 
BRANCH  23  24
ATOM     24  C11 <0> A   1     -13.072   9.174  43.765  0.00  0.00    +0.221 C 
BRANCH  24  25
ATOM     25  O4  <0> A   1     -12.121   9.086  44.828  0.00  0.00    -0.540 OA
ATOM     26  H15 <0> A   1     -11.341   9.645  44.705  0.00  0.00    +0.369 HD
ENDBRANCH  24  25
BRANCH  24  27
ATOM     27  C12 <0> A   1     -12.337   9.366  42.436  0.00  0.00    -0.046 C 
BRANCH  27  28
ATOM     28  C13 <0> A   1     -13.124  10.338  41.555  0.00  0.00    +0.232 C 
BRANCH  28  29
ATOM     29  O3  <0> A   1     -12.774  11.681  41.895  0.00  0.00    -0.528 OA
ATOM     30  H14 <0> A   1     -12.112  12.075  41.310  0.00  0.00    +0.351 HD
ENDBRANCH  28  29
BRANCH  28  31
ATOM     31  C14 <0> A   1     -12.787  10.080  40.085  0.00  0.00    -0.102 C 
BRANCH  31  32
ATOM     32  C15 <0> A   1     -13.075  11.320  39.278  0.00  0.00    +0.491 C 
ATOM     33  O1  <0> A   1     -12.159  11.931  38.752  0.00  0.00    -0.681 OA
ATOM     34  O2  <0> A   1     -14.222  11.713  39.151  0.00  0.00    -0.712 OA
ENDBRANCH  31  32
ENDBRANCH  28  31
ENDBRANCH  27  28
ENDBRANCH  24  27
ENDBRANCH  23  24
ENDBRANCH  22  23
ENDBRANCH   3  22
TORSDOF 12
