REMARK VINA RESULT:      -8.1      0.000      0.000
REMARK  Name = CHEMBL312626
REMARK  9 active torsions:
REMARK  status: ('A' for Active; 'I' for Inactive)
REMARK    1  A    between atoms: C1_1  and  C2_2
REMARK    2  A    between atoms: C4_5  and  O4_29
REMARK    3  A    between atoms: C6_9  and  C13_18
REMARK    4  A    between atoms: C7_11  and  C12_17
REMARK    5  A    between atoms: C13_18  and  C14_19
REMARK    6  A    between atoms: C14_19  and  C15_20
REMARK    7  A    between atoms: C17_22  and  O3_28
REMARK    8  A    between atoms: O4_29  and  C20_30
REMARK    9  A    between atoms: C20_30  and  C21_31
REMARK                            x       y       z     vdW  Elec       q    Type
REMARK                         _______ _______ _______ _____ _____    ______ ____
ROOT
ATOM      1  C1  <0> A   1     -28.284   1.788  51.043  0.00  0.00    +0.028 C 
ATOM      2  C2  <0> A   1     -27.233   0.905  50.366  0.00  0.00    +0.020 C 
ATOM      3  C3  <0> A   1     -27.613  -0.573  50.525  0.00  0.00    +0.009 C 
ATOM      4  C4  <0> A   1     -26.558  -1.421  49.818  0.00  0.00    +0.153 C 
ATOM      5  C5  <0> A   1     -25.176  -1.186  50.380  0.00  0.00    +0.039 C 
ATOM      6  C6  <0> A   1     -24.771  -2.275  51.376  0.00  0.00    +0.012 C 
ATOM      7  C7  <0> A   1     -23.291  -2.102  51.719  0.00  0.00    +0.017 C 
ATOM      8  C8  <0> A   1     -22.975  -0.689  52.105  0.00  0.00    -0.033 C 
ATOM      9  C9  <0> A   1     -23.733   0.350  51.801  0.00  0.00    -0.011 C 
ATOM     10  C10 <0> A   1     -24.998   0.137  51.065  0.00  0.00    -0.085 C 
ATOM     11  C11 <0> A   1     -25.893   1.110  51.026  0.00  0.00    -0.032 C 
ATOM     12  C12 <0> A   1     -22.448  -2.485  50.501  0.00  0.00    +0.028 C 
ENDROOT
BRANCH   6  13
ATOM     13  C13 <0> A   1     -24.998  -3.652  50.749  0.00  0.00    +0.074 C 
BRANCH  13  14
ATOM     14  C14 <0> A   1     -24.881  -4.730  51.830  0.00  0.00    +0.030 C 
BRANCH  14  15
ATOM     15  C15 <0> A   1     -24.350  -6.021  51.207  0.00  0.00    +0.198 C 
ATOM     16  C16 <0> A   1     -25.322  -6.505  50.126  0.00  0.00    +0.034 C 
ATOM     17  C17 <0> A   1     -24.809  -7.821  49.533  0.00  0.00    +0.181 C 
ATOM     18  C18 <0> A   1     -24.701  -8.862  50.655  0.00  0.00    +0.014 C 
ATOM     19  C19 <0> A   1     -23.895  -8.260  51.786  0.00  0.00    +0.497 C 
ATOM     20  O1  <0> A   1     -22.977  -8.865  52.286  0.00  0.00    -0.454 OA
ATOM     21  O2  <0> A   1     -24.231  -7.027  52.219  0.00  0.00    -0.363 OA
BRANCH  17  22
ATOM     22  O3  <0> A   1     -23.522  -7.612  48.946  0.00  0.00    -0.558 OA
ATOM     23  H27 <0> A   1     -23.314  -6.683  48.778  0.00  0.00    +0.384 HD
ENDBRANCH  17  22
ENDBRANCH  14  15
ENDBRANCH  13  14
ENDBRANCH   6  13
BRANCH   4  24
ATOM     24  O4  <0> A   1     -26.892  -2.801  49.971  0.00  0.00    -0.345 OA
BRANCH  24  25
ATOM     25  C20 <0> A   1     -28.295  -3.052  50.074  0.00  0.00    +0.206 C 
BRANCH  25  26
ATOM     26  C21 <0> A   1     -28.526  -4.284  50.909  0.00  0.00    -0.101 A 
ATOM     27  C22 <0> A   1     -28.841  -5.484  50.299  0.00  0.00    +0.070 A 
ATOM     28  C23 <0> A   1     -29.052  -6.616  51.064  0.00  0.00    -0.015 A 
ATOM     29  C24 <0> A   1     -28.948  -6.547  52.443  0.00  0.00    +0.108 A 
ATOM     30  C25 <0> A   1     -28.632  -5.345  53.053  0.00  0.00    -0.025 A 
ATOM     31  C26 <0> A   1     -28.416  -4.216  52.285  0.00  0.00    +0.059 A 
ATOM     32  F1  <0> A   1     -29.154  -7.652  53.191  0.00  0.00    -0.140 F 
ENDBRANCH  25  26
ENDBRANCH  24  25
ENDBRANCH   4  24
TORSDOF 7
