REMARK VINA RESULT:      -7.8      2.415      4.570
REMARK  Name = CHEMBL293461
REMARK  12 active torsions:
REMARK  status: ('A' for Active; 'I' for Inactive)
REMARK    1  A    between atoms: C1_1  and  C2_2
REMARK    2  A    between atoms: C2_2  and  C3_3
REMARK    3  A    between atoms: C2_2  and  C4_4
REMARK    4  A    between atoms: C5_5  and  C17_22
REMARK    5  A    between atoms: C6_6  and  C11_15
REMARK    6  A    between atoms: C18_23  and  C19_24
REMARK    7  A    between atoms: C19_24  and  C20_25
REMARK    8  A    between atoms: C19_24  and  O4_33
REMARK    9  A    between atoms: C20_25  and  C21_26
REMARK   10  A    between atoms: C21_26  and  C22_28
REMARK   11  A    between atoms: C21_26  and  O3_32
REMARK   12  A    between atoms: C22_28  and  C23_29
REMARK                            x       y       z     vdW  Elec       q    Type
REMARK                         _______ _______ _______ _____ _____    ______ ____
ROOT
ATOM      1  C4  <0> A   1     -13.306  10.002  46.048  0.00  0.00    +0.121 C 
ATOM      2  C5  <0> A   1     -13.636   8.880  45.262  0.00  0.00    -0.163 C 
ATOM      3  C6  <0> A   1     -14.366   8.014  46.067  0.00  0.00    +0.146 C 
ATOM      4  N1  <0> A   1     -14.468   8.603  47.296  0.00  0.00    -0.321 N 
ATOM      5  N2  <0> A   1     -13.795   9.830  47.246  0.00  0.00    -0.273 NA
ATOM      6  C7  <0> A   1     -15.125   8.073  48.409  0.00  0.00    +0.324 A 
ATOM      7  C8  <0> A   1     -14.753   8.465  49.691  0.00  0.00    +0.246 A 
ATOM      8  N3  <0> A   1     -15.376   7.961  50.739  0.00  0.00    -0.415 NA
ATOM      9  C9  <0> A   1     -16.351   7.084  50.573  0.00  0.00    +0.212 A 
ATOM     10  C10 <0> A   1     -16.722   6.692  49.300  0.00  0.00    +0.265 A 
ATOM     11  N4  <0> A   1     -16.107   7.197  48.245  0.00  0.00    -0.447 NA
ENDROOT
BRANCH   3  12
ATOM     12  C11 <0> A   1     -14.927   6.706  45.671  0.00  0.00    -0.035 A 
ATOM     13  C12 <0> A   1     -16.157   6.642  45.012  0.00  0.00    +0.091 A 
ATOM     14  C13 <0> A   1     -16.675   5.418  44.645  0.00  0.00    -0.009 A 
ATOM     15  C14 <0> A   1     -15.978   4.254  44.925  0.00  0.00    +0.114 A 
ATOM     16  C15 <0> A   1     -14.756   4.312  45.579  0.00  0.00    -0.019 A 
ATOM     17  C16 <0> A   1     -14.225   5.531  45.946  0.00  0.00    +0.069 A 
ATOM     18  F1  <0> A   1     -16.490   3.058  44.562  0.00  0.00    -0.137 F 
ENDBRANCH   3  12
BRANCH   1  20
ATOM     19  C1  <0> A   1     -13.434  12.151  44.817  0.00  0.00    +0.039 C 
ATOM     20  C2  <0> A   1     -12.515  11.198  45.585  0.00  0.00    +0.081 C 
ATOM     21  C3  <0> A   1     -11.929  11.923  46.799  0.00  0.00    +0.039 C 
ENDBRANCH   1  20
BRANCH   2  22
ATOM     22  C17 <0> A   1     -13.274   8.665  43.847  0.00  0.00    +0.039 C 
ATOM     23  C18 <0> A   1     -12.273   7.853  43.534  0.00  0.00    -0.051 C 
BRANCH  23  24
ATOM     24  C19 <0> A   1     -11.904   7.633  42.089  0.00  0.00    +0.251 C 
BRANCH  24  25
ATOM     25  O4  <0> A   1     -11.610   6.250  41.879  0.00  0.00    -0.538 OA
ATOM     26  H24 <0> A   1     -10.972   6.088  41.171  0.00  0.00    +0.366 HD
ENDBRANCH  24  25
BRANCH  24  27
ATOM     27  C20 <0> A   1     -13.073   8.049  41.196  0.00  0.00    -0.042 C 
BRANCH  27  28
ATOM     28  C21 <0> A   1     -12.652   9.234  40.324  0.00  0.00    +0.230 C 
BRANCH  28  29
ATOM     29  O3  <0> A   1     -13.067   9.005  38.976  0.00  0.00    -0.528 OA
ATOM     30  H23 <0> A   1     -12.664   9.605  38.333  0.00  0.00    +0.350 HD
ENDBRANCH  28  29
BRANCH  28  31
ATOM     31  C22 <0> A   1     -13.307  10.512  40.849  0.00  0.00    -0.102 C 
BRANCH  31  32
ATOM     32  C23 <0> A   1     -13.993  11.228  39.715  0.00  0.00    +0.490 C 
ATOM     33  O1  <0> A   1     -15.210  11.215  39.633  0.00  0.00    -0.681 OA
ATOM     34  O2  <0> A   1     -13.333  11.822  38.879  0.00  0.00    -0.714 OA
ENDBRANCH  31  32
ENDBRANCH  28  31
ENDBRANCH  27  28
ENDBRANCH  24  27
ENDBRANCH  23  24
ENDBRANCH   2  22
TORSDOF 10
