REMARK VINA RESULT:      -7.6      3.202      5.654
REMARK  Name = CHEMBL330753
REMARK  9 active torsions:
REMARK  status: ('A' for Active; 'I' for Inactive)
REMARK    1  A    between atoms: C1_1  and  C2_2
REMARK    2  A    between atoms: C2_2  and  C3_3
REMARK    3  A    between atoms: C2_2  and  C4_4
REMARK    4  A    between atoms: C6_6  and  C21_28
REMARK    5  A    between atoms: C7_7  and  C15_21
REMARK    6  A    between atoms: N1_8  and  C8_9
REMARK    7  A    between atoms: C8_9  and  C9_10
REMARK    8  A    between atoms: C9_10  and  C10_11
REMARK    9  A    between atoms: C12_14  and  O3_20
REMARK                            x       y       z     vdW  Elec       q    Type
REMARK                         _______ _______ _______ _____ _____    ______ ____
ROOT
ATOM      1  C4  <0> A   1     -14.401   6.576  45.335  0.00  0.00    +0.037 C 
ATOM      2  C5  <0> A   1     -15.148   6.850  46.422  0.00  0.00    -0.025 C 
ATOM      3  C6  <0> A   1     -14.849   8.173  46.826  0.00  0.00    -0.118 C 
ATOM      4  C7  <0> A   1     -13.903   8.658  45.937  0.00  0.00    +0.098 C 
ATOM      5  N1  <0> A   1     -13.637   7.665  45.034  0.00  0.00    -0.428 N 
ENDROOT
BRANCH   4   6
ATOM      6  C15 <0> A   1     -13.292  10.002  45.962  0.00  0.00    -0.032 A 
ATOM      7  C16 <0> A   1     -13.924  11.071  45.323  0.00  0.00    +0.040 A 
ATOM      8  C17 <0> A   1     -13.349  12.325  45.349  0.00  0.00    -0.027 A 
ATOM      9  C18 <0> A   1     -12.146  12.524  46.007  0.00  0.00    +0.106 A 
ATOM     10  C19 <0> A   1     -11.513  11.467  46.643  0.00  0.00    -0.028 A 
ATOM     11  C20 <0> A   1     -12.082  10.211  46.628  0.00  0.00    +0.130 A 
ATOM     12  F1  <0> A   1     -11.586  13.754  46.029  0.00  0.00    -0.141 F 
ENDBRANCH   4   6
BRANCH   3  13
ATOM     13  C21 <0> A   1     -15.435   8.899  47.976  0.00  0.00    +0.211 A 
ATOM     14  C22 <0> A   1     -16.226  10.027  47.751  0.00  0.00    -0.032 A 
ATOM     15  C23 <0> A   1     -16.766  10.694  48.835  0.00  0.00    +0.063 A 
ATOM     16  C24 <0> A   1     -16.500  10.213  50.111  0.00  0.00    -0.055 A 
ATOM     17  C25 <0> A   1     -15.708   9.090  50.260  0.00  0.00    +0.257 A 
ATOM     18  N2  <0> A   1     -15.209   8.468  49.211  0.00  0.00    -0.482 NA
ENDBRANCH   3  13
BRANCH   1  20
ATOM     19  C1  <0> A   1     -14.150   4.118  45.549  0.00  0.00    +0.040 C 
ATOM     20  C2  <0> A   1     -14.404   5.273  44.578  0.00  0.00    +0.048 C 
ATOM     21  C3  <0> A   1     -15.762   5.081  43.899  0.00  0.00    +0.032 C 
ENDBRANCH   1  20
BRANCH   5  22
ATOM     22  C8  <0> A   1     -12.689   7.759  43.922  0.00  0.00    +0.292 C 
BRANCH  22  23
ATOM     23  C9  <0> A   1     -13.452   7.742  42.596  0.00  0.00    +0.053 C 
BRANCH  23  24
ATOM     24  C10 <0> A   1     -13.186   9.044  41.838  0.00  0.00    +0.203 C 
ATOM     25  C11 <0> A   1     -14.172  10.118  42.305  0.00  0.00    +0.045 C 
ATOM     26  C12 <0> A   1     -13.930  11.408  41.515  0.00  0.00    +0.186 C 
ATOM     27  C13 <0> A   1     -14.126  11.119  40.021  0.00  0.00    +0.024 C 
ATOM     28  C14 <0> A   1     -13.277   9.921  39.653  0.00  0.00    +0.497 C 
ATOM     29  O1  <0> A   1     -12.550   9.947  38.689  0.00  0.00    -0.450 OA
ATOM     30  O2  <0> A   1     -13.356   8.823  40.434  0.00  0.00    -0.370 OA
BRANCH  26  31
ATOM     31  O3  <0> A   1     -12.596  11.867  41.745  0.00  0.00    -0.563 OA
ATOM     32  H19 <0> A   1     -11.951  11.540  41.103  0.00  0.00    +0.388 HD
ENDBRANCH  26  31
ENDBRANCH  23  24
ENDBRANCH  22  23
ENDBRANCH   5  22
TORSDOF 7
