REMARK VINA RESULT:      -7.8      1.448      1.986
REMARK  Name = CHEMBL400874
REMARK  18 active torsions:
REMARK  status: ('A' for Active; 'I' for Inactive)
REMARK    1  A    between atoms: C1_1  and  C2_2
REMARK    2  A    between atoms: C2_2  and  C3_3
REMARK    3  A    between atoms: C2_2  and  N1_4
REMARK    4  A    between atoms: C4_5  and  C29_34
REMARK    5  A    between atoms: C5_6  and  C23_27
REMARK    6  A    between atoms: C6_7  and  C17_21
REMARK    7  A    between atoms: C7_8  and  C8_9
REMARK    8  A    between atoms: N2_11  and  C9_12
REMARK    9  A    between atoms: C9_12  and  C10_13
REMARK   10  A    between atoms: C13_16  and  C16_19
REMARK   11  A    between atoms: C29_34  and  C30_35
REMARK   12  A    between atoms: C30_35  and  C31_36
REMARK   13  A    between atoms: C31_36  and  C32_38
REMARK   14  A    between atoms: C31_36  and  O5_46
REMARK   15  A    between atoms: C32_38  and  C33_39
REMARK   16  A    between atoms: C33_39  and  C34_41
REMARK   17  A    between atoms: C33_39  and  O4_45
REMARK   18  A    between atoms: C34_41  and  C35_42
REMARK                            x       y       z     vdW  Elec       q    Type
REMARK                         _______ _______ _______ _____ _____    ______ ____
ROOT
ATOM      1  N1  <0> A   1     -14.301   6.845  45.300  0.00  0.00    -0.401 N 
ATOM      2  C4  <0> A   1     -13.467   7.886  45.057  0.00  0.00    +0.074 C 
ATOM      3  C5  <0> A   1     -13.825   8.936  45.848  0.00  0.00    -0.121 C 
ATOM      4  C6  <0> A   1     -14.939   8.526  46.624  0.00  0.00    -0.060 C 
ATOM      5  C7  <0> A   1     -15.219   7.215  46.256  0.00  0.00    -0.031 C 
ENDROOT
BRANCH   3   6
ATOM      6  C23 <0> A   1     -13.167  10.266  45.890  0.00  0.00    -0.009 A 
ATOM      7  C24 <0> A   1     -13.618  11.294  45.065  0.00  0.00    +0.050 A 
ATOM      8  C25 <0> A   1     -13.003  12.530  45.109  0.00  0.00    -0.016 A 
ATOM      9  C26 <0> A   1     -11.940  12.747  45.970  0.00  0.00    +0.095 A 
ATOM     10  C27 <0> A   1     -11.489  11.727  46.791  0.00  0.00    -0.018 A 
ATOM     11  C28 <0> A   1     -12.101  10.490  46.759  0.00  0.00    +0.056 A 
ATOM     12  F1  <0> A   1     -11.341  13.957  46.007  0.00  0.00    -0.142 F 
ENDBRANCH   3   6
BRANCH   4  13
ATOM     13  C17 <0> A   1     -15.665   9.339  47.626  0.00  0.00    -0.009 A 
ATOM     14  C18 <0> A   1     -16.620  10.269  47.215  0.00  0.00    +0.025 A 
ATOM     15  C19 <0> A   1     -17.293  11.023  48.154  0.00  0.00    +0.003 A 
ATOM     16  C20 <0> A   1     -17.021  10.859  49.501  0.00  0.00    -0.003 A 
ATOM     17  C21 <0> A   1     -16.075   9.939  49.914  0.00  0.00    -0.000 A 
ATOM     18  C22 <0> A   1     -15.400   9.174  48.986  0.00  0.00    +0.010 A 
ENDBRANCH   4  13
BRANCH   5  19
ATOM     19  C8  <0> A   1     -16.295   6.379  46.793  0.00  0.00    +0.605 C 
ATOM     20  O1  <0> A   1     -17.266   6.123  46.105  0.00  0.00    -0.518 OA
ATOM     21  N2  <0> A   1     -16.210   5.894  48.047  0.00  0.00    -0.718 N 
ATOM     22  H10 <0> A   1     -15.469   6.151  48.617  0.00  0.00    +0.405 HD
BRANCH  21  23
ATOM     23  C9  <0> A   1     -17.237   4.978  48.549  0.00  0.00    +0.323 C 
BRANCH  23  24
ATOM     24  C10 <0> A   1     -18.320   5.767  49.238  0.00  0.00    -0.081 A 
ATOM     25  C11 <0> A   1     -19.615   5.282  49.262  0.00  0.00    +0.039 A 
ATOM     26  C12 <0> A   1     -20.612   5.999  49.892  0.00  0.00    +0.066 A 
ATOM     27  C13 <0> A   1     -20.311   7.216  50.505  0.00  0.00    -0.018 A 
ATOM     28  C14 <0> A   1     -19.001   7.700  50.477  0.00  0.00    +0.065 A 
ATOM     29  C15 <0> A   1     -18.013   6.970  49.849  0.00  0.00    +0.037 A 
BRANCH  27  30
ATOM     30  C16 <0> A   1     -21.340   7.966  51.161  0.00  0.00    +0.248 C 
ATOM     31  N3  <0> A   1     -22.157   8.560  51.680  0.00  0.00    -0.408 NA
ENDBRANCH  27  30
ENDBRANCH  23  24
ENDBRANCH  21  23
ENDBRANCH   5  19
BRANCH   1  33
ATOM     32  C1  <0> A   1     -14.307   4.433  45.703  0.00  0.00    +0.046 C 
ATOM     33  C2  <0> A   1     -14.239   5.536  44.645  0.00  0.00    +0.229 C 
ATOM     34  C3  <0> A   1     -15.418   5.392  43.681  0.00  0.00    +0.043 C 
ENDBRANCH   1  33
BRANCH   2  35
ATOM     35  C29 <0> A   1     -12.329   7.880  44.070  0.00  0.00    +0.116 C 
BRANCH  35  36
ATOM     36  C30 <0> A   1     -12.839   8.328  42.699  0.00  0.00    -0.007 C 
BRANCH  36  37
ATOM     37  C31 <0> A   1     -12.030   7.635  41.601  0.00  0.00    +0.212 C 
BRANCH  37  38
ATOM     38  O5  <0> A   1     -11.714   6.304  42.012  0.00  0.00    -0.541 OA
ATOM     39  H35 <0> A   1     -12.460   5.691  41.971  0.00  0.00    +0.362 HD
ENDBRANCH  37  38
BRANCH  37  40
ATOM     40  C32 <0> A   1     -12.854   7.589  40.313  0.00  0.00    -0.051 C 
BRANCH  40  41
ATOM     41  C33 <0> A   1     -12.610   8.866  39.506  0.00  0.00    +0.230 C 
BRANCH  41  42
ATOM     42  O4  <0> A   1     -12.473   8.536  38.121  0.00  0.00    -0.528 OA
ATOM     43  H34 <0> A   1     -12.636   9.278  37.523  0.00  0.00    +0.349 HD
ENDBRANCH  41  42
BRANCH  41  44
ATOM     44  C34 <0> A   1     -13.793   9.819  39.688  0.00  0.00    -0.103 C 
BRANCH  44  45
ATOM     45  C35 <0> A   1     -13.294  11.241  39.706  0.00  0.00    +0.490 C 
ATOM     46  O2  <0> A   1     -13.531  11.983  38.768  0.00  0.00    -0.681 OA
ATOM     47  O3  <0> A   1     -12.653  11.650  40.659  0.00  0.00    -0.713 OA
ENDBRANCH  44  45
ENDBRANCH  41  44
ENDBRANCH  40  41
ENDBRANCH  37  40
ENDBRANCH  36  37
ENDBRANCH  35  36
ENDBRANCH   2  35
TORSDOF 16
