REMARK VINA RESULT:      -7.7      1.235      1.811
REMARK  Name = CHEMBL155642
REMARK  11 active torsions:
REMARK  status: ('A' for Active; 'I' for Inactive)
REMARK    1  A    between atoms: C1_1  and  C2_2
REMARK    2  A    between atoms: C2_2  and  C3_3
REMARK    3  A    between atoms: C2_2  and  C4_4
REMARK    4  A    between atoms: C5_5  and  C19_21
REMARK    5  A    between atoms: C6_6  and  C13_14
REMARK    6  A    between atoms: C8_8  and  C9_10
REMARK    7  A    between atoms: C9_10  and  C10_11
REMARK    8  A    between atoms: C9_10  and  C11_12
REMARK    9  A    between atoms: C9_10  and  C12_13
REMARK   10  A    between atoms: C20_22  and  C21_23
REMARK   11  A    between atoms: C23_25  and  O3_31
REMARK                            x       y       z     vdW  Elec       q    Type
REMARK                         _______ _______ _______ _____ _____    ______ ____
ROOT
ATOM      1  C4  <0> A   1     -26.338  -3.482  51.741  0.00  0.00    +0.160 A 
ATOM      2  C5  <0> A   1     -26.093  -4.818  51.425  0.00  0.00    -0.104 A 
ATOM      3  C6  <0> A   1     -24.757  -5.259  51.329  0.00  0.00    +0.010 A 
ATOM      4  C7  <0> A   1     -23.741  -4.327  51.556  0.00  0.00    -0.024 A 
ATOM      5  C8  <0> A   1     -24.079  -3.025  51.863  0.00  0.00    +0.151 A 
ATOM      6  N1  <0> A   1     -25.340  -2.646  51.940  0.00  0.00    -0.468 NA
ENDROOT
BRANCH   3   7
ATOM      7  C13 <0> A   1     -24.441  -6.667  50.997  0.00  0.00    -0.064 A 
ATOM      8  C14 <0> A   1     -24.512  -7.108  49.677  0.00  0.00    +0.074 A 
ATOM      9  C15 <0> A   1     -24.216  -8.421  49.373  0.00  0.00    -0.013 A 
ATOM     10  C16 <0> A   1     -23.851  -9.301  50.379  0.00  0.00    +0.108 A 
ATOM     11  C17 <0> A   1     -23.780  -8.868  51.693  0.00  0.00    -0.014 A 
ATOM     12  C18 <0> A   1     -24.068  -7.556  52.006  0.00  0.00    +0.060 A 
ATOM     13  F1  <0> A   1     -23.565 -10.586  50.078  0.00  0.00    -0.137 F 
ENDBRANCH   3   7
BRANCH   5  14
ATOM     14  C9  <0> A   1     -22.986  -2.016  52.109  0.00  0.00    -0.019 C 
ATOM     15  C10 <0> A   1     -23.132  -0.856  51.123  0.00  0.00    +0.041 C 
ATOM     16  C11 <0> A   1     -23.095  -1.485  53.540  0.00  0.00    +0.046 C 
ATOM     17  C12 <0> A   1     -21.623  -2.683  51.914  0.00  0.00    +0.039 C 
ENDBRANCH   5  14
BRANCH   1  19
ATOM     18  C1  <0> A   1     -27.870  -2.011  53.020  0.00  0.00    +0.037 C 
ATOM     19  C2  <0> A   1     -27.758  -2.989  51.849  0.00  0.00    +0.042 C 
ATOM     20  C3  <0> A   1     -28.151  -2.280  50.551  0.00  0.00    +0.037 C 
ENDBRANCH   1  19
BRANCH   2  21
ATOM     21  C19 <0> A   1     -27.212  -5.754  51.198  0.00  0.00    +0.049 C 
ATOM     22  C20 <0> A   1     -27.742  -6.414  52.219  0.00  0.00    -0.014 C 
BRANCH  22  23
ATOM     23  C21 <0> A   1     -28.885  -7.369  51.987  0.00  0.00    +0.242 C 
ATOM     24  C22 <0> A   1     -29.557  -7.698  53.323  0.00  0.00    +0.050 C 
ATOM     25  C23 <0> A   1     -30.690  -8.701  53.089  0.00  0.00    +0.186 C 
ATOM     26  C24 <0> A   1     -30.106  -9.973  52.461  0.00  0.00    +0.024 C 
ATOM     27  C25 <0> A   1     -29.284  -9.573  51.255  0.00  0.00    +0.498 C 
ATOM     28  O1  <0> A   1     -29.429 -10.130  50.193  0.00  0.00    -0.450 OA
ATOM     29  O2  <0> A   1     -28.387  -8.577  51.400  0.00  0.00    -0.369 OA
BRANCH  25  30
ATOM     30  O3  <0> A   1     -31.660  -8.130  52.206  0.00  0.00    -0.564 OA
ATOM     31  H30 <0> A   1     -32.523  -7.980  52.615  0.00  0.00    +0.387 HD
ENDBRANCH  25  30
ENDBRANCH  22  23
ENDBRANCH   2  21
TORSDOF 6
