REMARK VINA RESULT:      -8.2      1.079      1.679
REMARK  Name = CHEMBL47301
REMARK  7 active torsions:
REMARK  status: ('A' for Active; 'I' for Inactive)
REMARK    1  A    between atoms: C4_4  and  C7_7
REMARK    2  A    between atoms: C7_7  and  C8_8
REMARK    3  A    between atoms: C8_8  and  O1_9
REMARK    4  A    between atoms: O1_9  and  C9_10
REMARK    5  A    between atoms: C14_15  and  C15_16
REMARK    6  A    between atoms: C16_17  and  C17_18
REMARK    7  A    between atoms: C19_20  and  O4_26
REMARK                            x       y       z     vdW  Elec       q    Type
REMARK                         _______ _______ _______ _____ _____    ______ ____
ROOT
ATOM      1  C9  <0> A   1     -30.628  22.203  35.002  0.00  0.00    +0.171 A 
ATOM      2  C10 <0> A   1     -30.632  22.701  36.295  0.00  0.00    -0.051 A 
ATOM      3  C11 <0> A   1     -31.585  22.270  37.201  0.00  0.00    +0.017 A 
ATOM      4  C12 <0> A   1     -32.541  21.342  36.823  0.00  0.00    +0.011 A 
ATOM      5  C13 <0> A   1     -32.550  20.837  35.538  0.00  0.00    +0.016 A 
ATOM      6  C14 <0> A   1     -31.596  21.269  34.614  0.00  0.00    -0.078 A 
ATOM      7 Cl1  <0> A   1     -33.750  19.673  35.070  0.00  0.00    -0.037 Cl
ATOM      8 Cl2  <0> A   1     -31.583  22.898  38.820  0.00  0.00    -0.049 Cl
ENDROOT
BRANCH   6   9
ATOM      9  C15 <0> A   1     -31.604  20.738  33.236  0.00  0.00    +0.057 C 
ATOM     10  C16 <0> A   1     -31.180  19.504  32.999  0.00  0.00    -0.011 C 
BRANCH  10  11
ATOM     11  C17 <0> A   1     -31.188  18.962  31.592  0.00  0.00    +0.243 C 
ATOM     12  C18 <0> A   1     -32.616  18.992  31.041  0.00  0.00    +0.051 C 
ATOM     13  C19 <0> A   1     -32.627  18.402  29.627  0.00  0.00    +0.186 C 
ATOM     14  C20 <0> A   1     -32.112  16.959  29.688  0.00  0.00    +0.023 C 
ATOM     15  C21 <0> A   1     -30.788  16.957  30.421  0.00  0.00    +0.498 C 
ATOM     16  O2  <0> A   1     -29.825  16.388  29.963  0.00  0.00    -0.451 OA
ATOM     17  O3  <0> A   1     -30.713  17.611  31.598  0.00  0.00    -0.367 OA
BRANCH  13  18
ATOM     18  O4  <0> A   1     -31.782  19.180  28.777  0.00  0.00    -0.564 OA
ATOM     19  H20 <0> A   1     -30.891  18.818  28.674  0.00  0.00    +0.387 HD
ENDBRANCH  13  18
ENDBRANCH  10  11
ENDBRANCH   6   9
BRANCH   1  20
ATOM     20  O1  <0> A   1     -29.693  22.625  34.112  0.00  0.00    -0.296 OA
BRANCH  20  21
ATOM     21  C8  <0> A   1     -29.002  23.837  34.423  0.00  0.00    +0.198 C 
BRANCH  21  22
ATOM     22  C7  <0> A   1     -27.535  23.524  34.728  0.00  0.00    +0.096 C 
BRANCH  22  26
ATOM     23  C1  <0> A   1     -25.180  24.214  31.231  0.00  0.00    +0.005 A 
ATOM     24  C2  <0> A   1     -26.408  23.586  31.125  0.00  0.00    +0.006 A 
ATOM     25  C3  <0> A   1     -27.169  23.363  32.256  0.00  0.00    +0.010 A 
ATOM     26  C4  <0> A   1     -26.704  23.766  33.494  0.00  0.00    -0.088 A 
ATOM     27  C5  <0> A   1     -25.476  24.394  33.600  0.00  0.00    +0.011 A 
ATOM     28  C6  <0> A   1     -24.715  24.618  32.468  0.00  0.00    +0.007 A 
ENDBRANCH  22  26
ENDBRANCH  21  22
ENDBRANCH  20  21
ENDBRANCH   1  20
TORSDOF 7
