REMARK VINA RESULT:      -7.8     21.711     24.029
REMARK  Name = CHEMBL100721
REMARK  12 active torsions:
REMARK  status: ('A' for Active; 'I' for Inactive)
REMARK    1  A    between atoms: C6_6  and  C7_7
REMARK    2  A    between atoms: C7_7  and  C8_8
REMARK    3  A    between atoms: C7_7  and  C14_15
REMARK    4  A    between atoms: C19_20  and  O1_21
REMARK    5  A    between atoms: O1_21  and  C20_22
REMARK    6  A    between atoms: C20_22  and  C21_23
REMARK    7  A    between atoms: C21_23  and  C22_24
REMARK    8  A    between atoms: C21_23  and  O5_32
REMARK    9  A    between atoms: C22_24  and  C23_25
REMARK   10  A    between atoms: C23_25  and  C24_27
REMARK   11  A    between atoms: C23_25  and  O4_31
REMARK   12  A    between atoms: C24_27  and  C25_28
REMARK                            x       y       z     vdW  Elec       q    Type
REMARK                         _______ _______ _______ _____ _____    ______ ____
ROOT
ATOM      1  C14 <0> A   1       3.701  22.248  35.008  0.00  0.00    -0.071 A 
ATOM      2  C15 <0> A   1       3.830  23.171  36.029  0.00  0.00    +0.059 A 
ATOM      3  C16 <0> A   1       4.929  23.125  36.868  0.00  0.00    -0.030 A 
ATOM      4  C17 <0> A   1       5.901  22.158  36.688  0.00  0.00    +0.058 A 
ATOM      5  C18 <0> A   1       5.776  21.233  35.668  0.00  0.00    -0.045 A 
ATOM      6  C19 <0> A   1       4.670  21.274  34.829  0.00  0.00    +0.124 A 
ATOM      7 Cl1  <0> A   1       6.996  20.020  35.441  0.00  0.00    -0.036 Cl
ATOM      8 Cl2  <0> A   1       5.088  24.286  38.150  0.00  0.00    -0.053 Cl
ENDROOT
BRANCH   1   9
ATOM      9  C7  <0> A   1       2.504  22.299  34.094  0.00  0.00    +0.157 C 
BRANCH   9  15
ATOM     10  C1  <0> A   1       1.126  23.134  36.010  0.00  0.00    +0.049 A 
ATOM     11  C2  <0> A   1      -0.030  23.130  36.766  0.00  0.00    -0.018 A 
ATOM     12  C3  <0> A   1      -1.072  22.283  36.430  0.00  0.00    +0.100 A 
ATOM     13  C4  <0> A   1      -0.956  21.442  35.337  0.00  0.00    -0.011 A 
ATOM     14  C5  <0> A   1       0.201  21.448  34.582  0.00  0.00    +0.071 A 
ATOM     15  C6  <0> A   1       1.242  22.293  34.918  0.00  0.00    -0.086 A 
ATOM     16  F2  <0> A   1      -2.204  22.279  37.170  0.00  0.00    -0.140 F 
ENDBRANCH   9  15
BRANCH   9  17
ATOM     17  C8  <0> A   1       2.558  23.556  33.265  0.00  0.00    -0.090 A 
ATOM     18  C9  <0> A   1       3.611  23.766  32.395  0.00  0.00    +0.045 A 
ATOM     19  C10 <0> A   1       3.660  24.918  31.634  0.00  0.00    -0.013 A 
ATOM     20  C11 <0> A   1       2.654  25.863  31.743  0.00  0.00    +0.099 A 
ATOM     21  C12 <0> A   1       1.600  25.652  32.615  0.00  0.00    -0.012 A 
ATOM     22  C13 <0> A   1       1.550  24.497  33.371  0.00  0.00    +0.061 A 
ATOM     23  F1  <0> A   1       2.702  26.990  31.000  0.00  0.00    -0.140 F 
ENDBRANCH   9  17
ENDBRANCH   1   9
BRANCH   6  24
ATOM     24  O1  <0> A   1       4.543  20.363  33.828  0.00  0.00    -0.309 OA
BRANCH  24  25
ATOM     25  C20 <0> A   1       5.263  20.618  32.621  0.00  0.00    +0.155 C 
BRANCH  25  26
ATOM     26  C21 <0> A   1       4.444  20.131  31.424  0.00  0.00    +0.229 C 
BRANCH  26  27
ATOM     27  O5  <0> A   1       4.512  21.099  30.375  0.00  0.00    -0.530 OA
ATOM     28  H21 <0> A   1       3.674  21.235  29.910  0.00  0.00    +0.363 HD
ENDBRANCH  26  27
BRANCH  26  29
ATOM     29  C22 <0> A   1       5.009  18.799  30.927  0.00  0.00    -0.041 C 
BRANCH  29  30
ATOM     30  C23 <0> A   1       4.021  18.158  29.951  0.00  0.00    +0.235 C 
BRANCH  30  31
ATOM     31  O4  <0> A   1       4.079  18.841  28.697  0.00  0.00    -0.526 OA
ATOM     32  H20 <0> A   1       4.140  19.802  28.775  0.00  0.00    +0.350 HD
ENDBRANCH  30  31
BRANCH  30  33
ATOM     33  C24 <0> A   1       4.387  16.687  29.747  0.00  0.00    -0.101 C 
BRANCH  33  34
ATOM     34  C25 <0> A   1       4.818  16.469  28.320  0.00  0.00    +0.490 C 
ATOM     35  O2  <0> A   1       3.984  16.234  27.461  0.00  0.00    -0.680 OA
ATOM     36  O3  <0> A   1       5.999  16.527  28.023  0.00  0.00    -0.712 OA
ENDBRANCH  33  34
ENDBRANCH  30  33
ENDBRANCH  29  30
ENDBRANCH  26  29
ENDBRANCH  25  26
ENDBRANCH  24  25
ENDBRANCH   6  24
TORSDOF 12
