REMARK VINA RESULT:      -8.0      0.795      1.252
REMARK  Name = CHEMBL154335
REMARK  8 active torsions:
REMARK  status: ('A' for Active; 'I' for Inactive)
REMARK    1  A    between atoms: C1_1  and  C2_2
REMARK    2  A    between atoms: C2_2  and  C3_3
REMARK    3  A    between atoms: C2_2  and  C4_4
REMARK    4  A    between atoms: C5_5  and  C20_23
REMARK    5  A    between atoms: C6_6  and  C14_16
REMARK    6  A    between atoms: C7_8  and  C8_10
REMARK    7  A    between atoms: C21_24  and  C22_25
REMARK    8  A    between atoms: C24_27  and  O3_33
REMARK                            x       y       z     vdW  Elec       q    Type
REMARK                         _______ _______ _______ _____ _____    ______ ____
ROOT
ATOM      1  C4  <0> A   1     -25.118  -2.845  52.025  0.00  0.00    +0.204 A 
ATOM      2  C5  <0> A   1     -25.848  -4.036  52.002  0.00  0.00    -0.160 A 
ATOM      3  C6  <0> A   1     -27.256  -3.950  52.011  0.00  0.00    +0.230 A 
ATOM      4  N1  <0> A   1     -27.822  -2.746  52.041  0.00  0.00    -0.504 NA
ATOM      5  C7  <0> A   1     -27.086  -1.654  52.062  0.00  0.00    +0.335 A 
ATOM      6  N2  <0> A   1     -25.768  -1.695  52.060  0.00  0.00    -0.510 NA
ENDROOT
BRANCH   3   7
ATOM      7  C14 <0> A   1     -28.087  -5.176  51.988  0.00  0.00    -0.071 A 
ATOM      8  C15 <0> A   1     -28.570  -5.670  50.777  0.00  0.00    +0.086 A 
ATOM      9  C16 <0> A   1     -29.345  -6.811  50.760  0.00  0.00    -0.018 A 
ATOM     10  C17 <0> A   1     -29.642  -7.467  51.945  0.00  0.00    +0.120 A 
ATOM     11  C18 <0> A   1     -29.165  -6.979  53.150  0.00  0.00    -0.020 A 
ATOM     12  C19 <0> A   1     -28.384  -5.842  53.177  0.00  0.00    +0.096 A 
ATOM     13  F1  <0> A   1     -30.402  -8.583  51.924  0.00  0.00    -0.135 F 
ENDBRANCH   3   7
BRANCH   5  14
ATOM     14  C8  <0> A   1     -27.774  -0.315  52.095  0.00  0.00    +0.080 C 
ATOM     15  C9  <0> A   1     -29.290  -0.519  52.074  0.00  0.00    +0.027 C 
ATOM     16  C10 <0> A   1     -29.988   0.843  52.109  0.00  0.00    +0.011 C 
ATOM     17  C11 <0> A   1     -29.567   1.663  50.888  0.00  0.00    +0.005 C 
ATOM     18  C12 <0> A   1     -28.051   1.867  50.909  0.00  0.00    +0.011 C 
ATOM     19  C13 <0> A   1     -27.352   0.506  50.875  0.00  0.00    +0.027 C 
ENDBRANCH   5  14
BRANCH   1  21
ATOM     20  C1  <0> A   1     -23.100  -2.375  50.662  0.00  0.00    +0.044 C 
ATOM     21  C2  <0> A   1     -23.611  -2.872  52.016  0.00  0.00    +0.045 C 
ATOM     22  C3  <0> A   1     -23.078  -1.965  53.128  0.00  0.00    +0.044 C 
ENDBRANCH   1  21
BRANCH   2  23
ATOM     23  C20 <0> A   1     -25.167  -5.346  51.969  0.00  0.00    +0.052 C 
ATOM     24  C21 <0> A   1     -24.906  -5.929  50.807  0.00  0.00    -0.007 C 
BRANCH  24  25
ATOM     25  C22 <0> A   1     -24.210  -7.266  50.774  0.00  0.00    +0.244 C 
ATOM     26  C23 <0> A   1     -25.182  -8.335  50.270  0.00  0.00    +0.051 C 
ATOM     27  C24 <0> A   1     -24.484  -9.700  50.276  0.00  0.00    +0.186 C 
ATOM     28  C25 <0> A   1     -24.036 -10.020  51.709  0.00  0.00    +0.024 C 
ATOM     29  C26 <0> A   1     -23.244  -8.842  52.233  0.00  0.00    +0.498 C 
ATOM     30  O1  <0> A   1     -22.169  -9.003  52.763  0.00  0.00    -0.449 OA
ATOM     31  O2  <0> A   1     -23.771  -7.608  52.093  0.00  0.00    -0.370 OA
BRANCH  27  32
ATOM     32  O3  <0> A   1     -23.345  -9.659  49.414  0.00  0.00    -0.563 OA
ATOM     33  H31 <0> A   1     -22.582  -9.199  49.793  0.00  0.00    +0.388 HD
ENDBRANCH  27  32
ENDBRANCH  24  25
ENDBRANCH   2  23
TORSDOF 6
