REMARK VINA RESULT:      -7.2      9.921     12.259
REMARK  Name = CHEMBL101497
REMARK  13 active torsions:
REMARK  status: ('A' for Active; 'I' for Inactive)
REMARK    1  A    between atoms: C1_1  and  C2_2
REMARK    2  A    between atoms: C2_2  and  C3_3
REMARK    3  A    between atoms: C2_2  and  C4_4
REMARK    4  A    between atoms: C11_12  and  C19_26
REMARK    5  A    between atoms: C12_13  and  O1_14
REMARK    6  A    between atoms: O1_14  and  C13_15
REMARK    7  A    between atoms: C13_15  and  C14_16
REMARK    8  A    between atoms: C14_16  and  C15_17
REMARK    9  A    between atoms: C14_16  and  O5_25
REMARK   10  A    between atoms: C15_17  and  C16_18
REMARK   11  A    between atoms: C16_18  and  C17_20
REMARK   12  A    between atoms: C16_18  and  O4_24
REMARK   13  A    between atoms: C17_20  and  C18_21
REMARK                            x       y       z     vdW  Elec       q    Type
REMARK                         _______ _______ _______ _____ _____    ______ ____
ROOT
ATOM      1  C4  <0> A   1      -4.031   5.759  48.507  0.00  0.00    -0.033 A 
ATOM      2  C5  <0> A   1      -3.445   6.921  49.045  0.00  0.00    -0.085 A 
ATOM      3  C6  <0> A   1      -2.863   7.893  48.215  0.00  0.00    +0.040 A 
ATOM      4  C7  <0> A   1      -2.306   9.005  48.768  0.00  0.00    +0.009 A 
ATOM      5  C8  <0> A   1      -2.303   9.193  50.148  0.00  0.00    +0.028 A 
ATOM      6  C9  <0> A   1      -2.857   8.271  50.983  0.00  0.00    +0.045 A 
ATOM      7  C10 <0> A   1      -3.444   7.110  50.449  0.00  0.00    +0.127 A 
ATOM      8  N1  <0> A   1      -3.994   6.190  51.248  0.00  0.00    -0.458 NA
ATOM      9  C11 <0> A   1      -4.546   5.098  50.757  0.00  0.00    +0.195 A 
ATOM     10  C12 <0> A   1      -4.585   4.854  49.370  0.00  0.00    +0.058 A 
ENDROOT
BRANCH   9  11
ATOM     11  C19 <0> A   1      -5.143   4.108  51.684  0.00  0.00    -0.070 A 
ATOM     12  C20 <0> A   1      -4.393   3.015  52.119  0.00  0.00    +0.100 A 
ATOM     13  C21 <0> A   1      -4.954   2.096  52.981  0.00  0.00    -0.015 A 
ATOM     14  C22 <0> A   1      -6.260   2.258  53.416  0.00  0.00    +0.115 A 
ATOM     15  C23 <0> A   1      -7.009   3.341  52.987  0.00  0.00    -0.026 A 
ATOM     16  C24 <0> A   1      -6.455   4.269  52.129  0.00  0.00    +0.087 A 
ATOM     17  F1  <0> A   1      -6.805   1.355  54.261  0.00  0.00    -0.136 F 
ENDBRANCH   9  11
BRANCH   1  19
ATOM     18  C1  <0> A   1      -4.881   6.613  46.340  0.00  0.00    +0.036 C 
ATOM     19  C2  <0> A   1      -4.052   5.521  47.019  0.00  0.00    +0.039 C 
ATOM     20  C3  <0> A   1      -2.622   5.554  46.476  0.00  0.00    +0.031 C 
ENDBRANCH   1  19
BRANCH  10  21
ATOM     21  O1  <0> A   1      -5.166   3.723  48.892  0.00  0.00    -0.310 OA
BRANCH  21  22
ATOM     22  C13 <0> A   1      -6.500   3.839  48.395  0.00  0.00    +0.149 C 
BRANCH  22  23
ATOM     23  C14 <0> A   1      -6.748   2.756  47.342  0.00  0.00    +0.228 C 
BRANCH  23  24
ATOM     24  O5  <0> A   1      -7.396   1.638  47.952  0.00  0.00    -0.530 OA
ATOM     25  H21 <0> A   1      -6.793   0.928  48.213  0.00  0.00    +0.363 HD
ENDBRANCH  23  24
BRANCH  23  26
ATOM     26  C15 <0> A   1      -7.637   3.319  46.232  0.00  0.00    -0.043 C 
BRANCH  26  27
ATOM     27  C16 <0> A   1      -7.000   3.029  44.872  0.00  0.00    +0.235 C 
BRANCH  27  28
ATOM     28  O4  <0> A   1      -6.781   4.259  44.177  0.00  0.00    -0.527 OA
ATOM     29  H20 <0> A   1      -6.563   5.003  44.753  0.00  0.00    +0.350 HD
ENDBRANCH  27  28
BRANCH  27  30
ATOM     30  C17 <0> A   1      -5.662   2.315  45.077  0.00  0.00    -0.101 C 
BRANCH  30  31
ATOM     31  C18 <0> A   1      -5.697   0.975  44.389  0.00  0.00    +0.491 C 
ATOM     32  O2  <0> A   1      -4.710   0.260  44.397  0.00  0.00    -0.680 OA
ATOM     33  O3  <0> A   1      -6.714   0.606  43.826  0.00  0.00    -0.712 OA
ENDBRANCH  30  31
ENDBRANCH  27  30
ENDBRANCH  26  27
ENDBRANCH  23  26
ENDBRANCH  22  23
ENDBRANCH  21  22
ENDBRANCH  10  21
TORSDOF 11
