REMARK VINA RESULT:      -7.4      4.329      7.674
REMARK  Name = CHEMBL121014
REMARK  13 active torsions:
REMARK  status: ('A' for Active; 'I' for Inactive)
REMARK    1  A    between atoms: C4_4  and  C7_7
REMARK    2  A    between atoms: C7_7  and  C8_8
REMARK    3  A    between atoms: C8_8  and  C9_9
REMARK    4  A    between atoms: C9_9  and  C10_10
REMARK    5  A    between atoms: N2_17  and  C24_32
REMARK    6  A    between atoms: C16_18  and  C17_19
REMARK    7  A    between atoms: C18_20  and  C19_21
REMARK    8  A    between atoms: C19_21  and  C20_23
REMARK    9  A    between atoms: C19_21  and  O4_31
REMARK   10  A    between atoms: C20_23  and  C21_24
REMARK   11  A    between atoms: C21_24  and  C22_26
REMARK   12  A    between atoms: C21_24  and  O3_30
REMARK   13  A    between atoms: C22_26  and  C23_27
REMARK                            x       y       z     vdW  Elec       q    Type
REMARK                         _______ _______ _______ _____ _____    ______ ____
ROOT
ATOM      1  C10 <0> A   1     -13.793   6.306  44.181  0.00  0.00    +0.084 C 
ATOM      2  C11 <0> A   1     -14.576   4.990  44.098  0.00  0.00    +0.027 C 
ATOM      3  C12 <0> A   1     -14.766   4.413  45.503  0.00  0.00    +0.015 C 
ATOM      4  C13 <0> A   1     -15.779   5.264  46.280  0.00  0.00    +0.104 C 
ATOM      5  C14 <0> A   1     -15.364   6.710  46.166  0.00  0.00    -0.212 C 
ATOM      6  C15 <0> A   1     -14.458   7.188  45.212  0.00  0.00    +0.095 C 
ATOM      7  N1  <0> A   1     -14.312   8.472  45.382  0.00  0.00    -0.275 NA
ATOM      8  N2  <0> A   1     -15.121   8.880  46.454  0.00  0.00    -0.329 N 
ATOM      9  C16 <0> A   1     -15.770   7.772  46.931  0.00  0.00    +0.125 C 
ENDROOT
BRANCH   8  10
ATOM     10  C24 <0> A   1     -15.242  10.185  46.945  0.00  0.00    +0.149 A 
ATOM     11  C25 <0> A   1     -14.214  10.745  47.691  0.00  0.00    +0.048 A 
ATOM     12  C26 <0> A   1     -14.335  12.034  48.175  0.00  0.00    +0.017 A 
ATOM     13  C27 <0> A   1     -15.481  12.767  47.915  0.00  0.00    +0.097 A 
ATOM     14  C28 <0> A   1     -16.508  12.210  47.172  0.00  0.00    +0.008 A 
ATOM     15  C29 <0> A   1     -16.389  10.925  46.682  0.00  0.00    +0.055 A 
ATOM     16  F1  <0> A   1     -15.597  14.027  48.389  0.00  0.00    -0.135 F 
ENDBRANCH   8  10
BRANCH   9  17
ATOM     17  C17 <0> A   1     -16.723   7.731  48.054  0.00  0.00    +0.027 C 
ATOM     18  C18 <0> A   1     -16.277   7.592  49.298  0.00  0.00    -0.027 C 
BRANCH  18  19
ATOM     19  C19 <0> A   1     -17.252   7.550  50.447  0.00  0.00    +0.255 C 
BRANCH  19  20
ATOM     20  O4  <0> A   1     -16.726   8.296  51.546  0.00  0.00    -0.536 OA
ATOM     21  H28 <0> A   1     -16.629   9.241  51.370  0.00  0.00    +0.368 HD
ENDBRANCH  19  20
BRANCH  19  22
ATOM     22  C20 <0> A   1     -18.584   8.161  50.007  0.00  0.00    -0.040 C 
BRANCH  22  23
ATOM     23  C21 <0> A   1     -19.726   7.210  50.372  0.00  0.00    +0.232 C 
BRANCH  23  24
ATOM     24  O3  <0> A   1     -20.961   7.742  49.888  0.00  0.00    -0.528 OA
ATOM     25  H27 <0> A   1     -21.520   8.127  50.578  0.00  0.00    +0.351 HD
ENDBRANCH  23  24
BRANCH  23  26
ATOM     26  C22 <0> A   1     -19.474   5.843  49.734  0.00  0.00    -0.101 C 
BRANCH  26  27
ATOM     27  C23 <0> A   1     -20.443   5.632  48.598  0.00  0.00    +0.491 C 
ATOM     28  O1  <0> A   1     -21.366   4.846  48.723  0.00  0.00    -0.681 OA
ATOM     29  O2  <0> A   1     -20.305   6.250  47.556  0.00  0.00    -0.712 OA
ENDBRANCH  26  27
ENDBRANCH  23  26
ENDBRANCH  22  23
ENDBRANCH  19  22
ENDBRANCH  18  19
ENDBRANCH   9  17
BRANCH   1  30
ATOM     30  C9  <0> A   1     -13.809   7.002  42.818  0.00  0.00    +0.024 C 
BRANCH  30  31
ATOM     31  C8  <0> A   1     -12.372   7.244  42.352  0.00  0.00    +0.028 C 
BRANCH  31  32
ATOM     32  C7  <0> A   1     -11.961   8.679  42.690  0.00  0.00    +0.057 C 
BRANCH  32  36
ATOM     33  C1  <0> A   1     -14.513  11.410  40.621  0.00  0.00    -0.009 A 
ATOM     34  C2  <0> A   1     -13.784  10.472  39.912  0.00  0.00    -0.000 A 
ATOM     35  C3  <0> A   1     -12.958   9.589  40.582  0.00  0.00    -0.001 A 
ATOM     36  C4  <0> A   1     -12.860   9.643  41.960  0.00  0.00    -0.075 A 
ATOM     37  C5  <0> A   1     -13.589  10.581  42.668  0.00  0.00    +0.004 A 
ATOM     38  C6  <0> A   1     -14.416  11.463  41.999  0.00  0.00    +0.002 A 
ENDBRANCH  32  36
ENDBRANCH  31  32
ENDBRANCH  30  31
ENDBRANCH   1  30
TORSDOF 13
