REMARK VINA RESULT:      -7.4      4.985      8.631
REMARK  Name = CHEMBL63204
REMARK  12 active torsions:
REMARK  status: ('A' for Active; 'I' for Inactive)
REMARK    1  A    between atoms: C1_1  and  C2_2
REMARK    2  A    between atoms: C2_2  and  C3_3
REMARK    3  A    between atoms: C2_2  and  C4_4
REMARK    4  A    between atoms: C5_5  and  C18_22
REMARK    5  A    between atoms: C6_6  and  C12_15
REMARK    6  A    between atoms: C19_23  and  C20_24
REMARK    7  A    between atoms: C20_24  and  C21_25
REMARK    8  A    between atoms: C20_24  and  O4_33
REMARK    9  A    between atoms: C21_25  and  C22_26
REMARK   10  A    between atoms: C22_26  and  C23_28
REMARK   11  A    between atoms: C22_26  and  O3_32
REMARK   12  A    between atoms: C23_28  and  C24_29
REMARK                            x       y       z     vdW  Elec       q    Type
REMARK                         _______ _______ _______ _____ _____    ______ ____
ROOT
ATOM      1  C4  <0> A   1     -14.958  10.942  47.150  0.00  0.00    +0.116 C 
ATOM      2  C5  <0> A   1     -15.038   9.549  47.347  0.00  0.00    -0.169 C 
ATOM      3  C6  <0> A   1     -14.483   8.942  46.226  0.00  0.00    +0.148 C 
ATOM      4  N1  <0> A   1     -14.083   9.945  45.388  0.00  0.00    -0.321 N 
ATOM      5  N2  <0> A   1     -14.399  11.168  45.992  0.00  0.00    -0.275 NA
ATOM      6  C7  <0> A   1     -13.472   9.779  44.143  0.00  0.00    +0.368 A 
ATOM      7  C8  <0> A   1     -13.577  10.781  43.186  0.00  0.00    -0.015 A 
ATOM      8  C9  <0> A   1     -12.966  10.602  41.956  0.00  0.00    +0.089 A 
ATOM      9  C10 <0> A   1     -12.270   9.424  41.727  0.00  0.00    -0.041 A 
ATOM     10  C11 <0> A   1     -12.206   8.472  42.725  0.00  0.00    +0.295 A 
ATOM     11  N3  <0> A   1     -12.794   8.671  43.888  0.00  0.00    -0.490 NA
ENDROOT
BRANCH   3  12
ATOM     12  C12 <0> A   1     -14.348   7.491  45.987  0.00  0.00    -0.033 A 
ATOM     13  C13 <0> A   1     -15.275   6.825  45.181  0.00  0.00    +0.088 A 
ATOM     14  C14 <0> A   1     -15.145   5.471  44.961  0.00  0.00    -0.011 A 
ATOM     15  C15 <0> A   1     -14.097   4.769  45.537  0.00  0.00    +0.112 A 
ATOM     16  C16 <0> A   1     -13.175   5.426  46.338  0.00  0.00    -0.021 A 
ATOM     17  C17 <0> A   1     -13.292   6.781  46.560  0.00  0.00    +0.074 A 
ATOM     18  F1  <0> A   1     -13.975   3.442  45.319  0.00  0.00    -0.138 F 
ENDBRANCH   3  12
BRANCH   1  20
ATOM     19  C1  <0> A   1     -14.431  13.143  48.164  0.00  0.00    +0.037 C 
ATOM     20  C2  <0> A   1     -15.441  11.995  48.113  0.00  0.00    +0.081 C 
ATOM     21  C3  <0> A   1     -16.798  12.529  47.646  0.00  0.00    +0.038 C 
ENDBRANCH   1  20
BRANCH   2  22
ATOM     22  C18 <0> A   1     -15.606   8.862  48.523  0.00  0.00    +0.040 C 
ATOM     23  C19 <0> A   1     -16.826   8.344  48.464  0.00  0.00    -0.054 C 
BRANCH  23  24
ATOM     24  C20 <0> A   1     -17.406   7.642  49.665  0.00  0.00    +0.251 C 
BRANCH  24  25
ATOM     25  O4  <0> A   1     -16.455   7.659  50.731  0.00  0.00    -0.538 OA
ATOM     26  H25 <0> A   1     -16.835   7.882  51.593  0.00  0.00    +0.366 HD
ENDBRANCH  24  25
BRANCH  24  27
ATOM     27  C21 <0> A   1     -18.683   8.359  50.107  0.00  0.00    -0.042 C 
BRANCH  27  28
ATOM     28  C22 <0> A   1     -19.788   7.329  50.351  0.00  0.00    +0.230 C 
BRANCH  28  29
ATOM     29  O3  <0> A   1     -21.022   7.819  49.822  0.00  0.00    -0.528 OA
ATOM     30  H24 <0> A   1     -21.043   7.869  48.857  0.00  0.00    +0.350 HD
ENDBRANCH  28  29
BRANCH  28  31
ATOM     31  C23 <0> A   1     -19.422   6.015  49.658  0.00  0.00    -0.102 C 
BRANCH  31  32
ATOM     32  C24 <0> A   1     -20.377   5.765  48.519  0.00  0.00    +0.491 C 
ATOM     33  O1  <0> A   1     -21.273   4.948  48.643  0.00  0.00    -0.681 OA
ATOM     34  O2  <0> A   1     -20.251   6.379  47.474  0.00  0.00    -0.714 OA
ENDBRANCH  31  32
ENDBRANCH  28  31
ENDBRANCH  27  28
ENDBRANCH  24  27
ENDBRANCH  23  24
ENDBRANCH   2  22
TORSDOF 10
