REMARK VINA RESULT:      -8.0      0.000      0.000
REMARK  Name = CHEMBL155642
REMARK  11 active torsions:
REMARK  status: ('A' for Active; 'I' for Inactive)
REMARK    1  A    between atoms: C1_1  and  C2_2
REMARK    2  A    between atoms: C2_2  and  C3_3
REMARK    3  A    between atoms: C2_2  and  C4_4
REMARK    4  A    between atoms: C5_5  and  C19_21
REMARK    5  A    between atoms: C6_6  and  C13_14
REMARK    6  A    between atoms: C8_8  and  C9_10
REMARK    7  A    between atoms: C9_10  and  C10_11
REMARK    8  A    between atoms: C9_10  and  C11_12
REMARK    9  A    between atoms: C9_10  and  C12_13
REMARK   10  A    between atoms: C20_22  and  C21_23
REMARK   11  A    between atoms: C23_25  and  O3_31
REMARK                            x       y       z     vdW  Elec       q    Type
REMARK                         _______ _______ _______ _____ _____    ______ ____
ROOT
ATOM      1  C4  <0> A   1     -26.858  -3.616  51.772  0.00  0.00    +0.160 A 
ATOM      2  C5  <0> A   1     -26.474  -4.936  51.539  0.00  0.00    -0.104 A 
ATOM      3  C6  <0> A   1     -25.133  -5.202  51.194  0.00  0.00    +0.010 A 
ATOM      4  C7  <0> A   1     -24.252  -4.121  51.103  0.00  0.00    -0.024 A 
ATOM      5  C8  <0> A   1     -24.722  -2.848  51.352  0.00  0.00    +0.151 A 
ATOM      6  N1  <0> A   1     -25.986  -2.635  51.667  0.00  0.00    -0.468 NA
ENDROOT
BRANCH   3   7
ATOM      7  C13 <0> A   1     -24.673  -6.586  50.936  0.00  0.00    -0.064 A 
ATOM      8  C14 <0> A   1     -24.734  -7.115  49.648  0.00  0.00    +0.074 A 
ATOM      9  C15 <0> A   1     -24.303  -8.405  49.414  0.00  0.00    -0.013 A 
ATOM     10  C16 <0> A   1     -23.812  -9.174  50.457  0.00  0.00    +0.108 A 
ATOM     11  C17 <0> A   1     -23.749  -8.652  51.739  0.00  0.00    -0.014 A 
ATOM     12  C18 <0> A   1     -24.171  -7.361  51.982  0.00  0.00    +0.060 A 
ATOM     13  F1  <0> A   1     -23.393 -10.437  50.223  0.00  0.00    -0.137 F 
ENDBRANCH   3   7
BRANCH   5  14
ATOM     14  C9  <0> A   1     -23.776  -1.679  51.254  0.00  0.00    -0.019 C 
ATOM     15  C10 <0> A   1     -23.655  -1.006  52.623  0.00  0.00    +0.041 C 
ATOM     16  C11 <0> A   1     -22.399  -2.173  50.805  0.00  0.00    +0.046 C 
ATOM     17  C12 <0> A   1     -24.314  -0.671  50.236  0.00  0.00    +0.039 C 
ENDBRANCH   5  14
BRANCH   1  19
ATOM     18  C1  <0> A   1     -28.315  -2.164  53.157  0.00  0.00    +0.037 C 
ATOM     19  C2  <0> A   1     -28.286  -3.309  52.142  0.00  0.00    +0.042 C 
ATOM     20  C3  <0> A   1     -29.061  -2.898  50.888  0.00  0.00    +0.037 C 
ENDBRANCH   1  19
BRANCH   2  21
ATOM     21  C19 <0> A   1     -27.453  -6.035  51.653  0.00  0.00    +0.049 C 
ATOM     22  C20 <0> A   1     -27.954  -6.356  52.838  0.00  0.00    -0.014 C 
BRANCH  22  23
ATOM     23  C21 <0> A   1     -28.955  -7.478  52.955  0.00  0.00    +0.242 C 
ATOM     24  C22 <0> A   1     -30.155  -7.190  52.047  0.00  0.00    +0.050 C 
ATOM     25  C23 <0> A   1     -31.187  -8.310  52.200  0.00  0.00    +0.186 C 
ATOM     26  C24 <0> A   1     -31.634  -8.378  53.666  0.00  0.00    +0.024 C 
ATOM     27  C25 <0> A   1     -30.398  -8.462  54.535  0.00  0.00    +0.498 C 
ATOM     28  O1  <0> A   1     -30.307  -9.295  55.405  0.00  0.00    -0.450 OA
ATOM     29  O2  <0> A   1     -29.403  -7.581  54.311  0.00  0.00    -0.369 OA
BRANCH  25  30
ATOM     30  O3  <0> A   1     -30.601  -9.557  51.818  0.00  0.00    -0.564 OA
ATOM     31  H30 <0> A   1     -31.103 -10.332  52.105  0.00  0.00    +0.387 HD
ENDBRANCH  25  30
ENDBRANCH  22  23
ENDBRANCH   2  21
TORSDOF 6
