REMARK  Name = CHEMBL101512
REMARK  10 active torsions:
REMARK  status: ('A' for Active; 'I' for Inactive)
REMARK    1  A    between atoms: C5_5  and  O1_15
REMARK    2  A    between atoms: C6_6  and  C7_7
REMARK    3  A    between atoms: O1_15  and  C14_16
REMARK    4  A    between atoms: C14_16  and  C15_17
REMARK    5  A    between atoms: C15_17  and  C16_18
REMARK    6  A    between atoms: C15_17  and  O5_26
REMARK    7  A    between atoms: C16_18  and  C17_19
REMARK    8  A    between atoms: C17_19  and  C18_21
REMARK    9  A    between atoms: C17_19  and  O4_25
REMARK   10  A    between atoms: C18_21  and  C19_22
REMARK                            x       y       z     vdW  Elec       q    Type
REMARK                         _______ _______ _______ _____ _____    ______ ____
ROOT
ATOM      1  C1  <0> A   1      -0.578   1.336  -0.306  0.00  0.00    +0.083 A 
ATOM      2  C2  <0> A   1       0.492   2.207  -0.377  0.00  0.00    -0.036 A 
ATOM      3  C3  <0> A   1       1.789   1.725  -0.315  0.00  0.00    +0.071 A 
ATOM      4  C4  <0> A   1       2.024   0.368  -0.183  0.00  0.00    -0.052 A 
ATOM      5  C5  <0> A   1       0.960  -0.517  -0.111  0.00  0.00    +0.141 A 
ATOM      6  C6  <0> A   1      -0.352  -0.034  -0.172  0.00  0.00    -0.068 A 
ATOM      7 Cl1  <0> A   1       3.653  -0.226  -0.108  0.00  0.00    -0.034 Cl
ATOM      8 Cl2  <0> A   1       0.210   3.911  -0.544  0.00  0.00    -0.050 Cl
ENDROOT
BRANCH   6   9
ATOM      9  C7  <0> A   1      -1.493  -0.970  -0.095  0.00  0.00    +0.082 C 
ATOM     10  C8  <0> A   1      -2.392  -1.005  -1.073  0.00  0.00    -0.127 C 
ATOM     11  C9  <0> A   1      -2.190  -0.202  -2.340  0.00  0.00    +0.074 C 
ATOM     12  C10 <0> A   1      -2.367  -1.137  -3.542  0.00  0.00    +0.018 C 
ATOM     13  C11 <0> A   1      -3.725  -1.835  -3.447  0.00  0.00    +0.006 C 
ATOM     14  C12 <0> A   1      -3.766  -2.722  -2.202  0.00  0.00    +0.018 C 
ATOM     15  C13 <0> A   1      -3.639  -1.852  -0.952  0.00  0.00    +0.073 C 
ATOM     16  F1  <0> A   1      -1.623  -1.792   0.970  0.00  0.00    -0.131 F 
ENDBRANCH   6   9
BRANCH   5  17
ATOM     17  O1  <0> A   1       1.190  -1.850   0.019  0.00  0.00    -0.307 OA
BRANCH  17  18
ATOM     18  C14 <0> A   1       1.401  -2.346   1.342  0.00  0.00    +0.160 C 
BRANCH  18  19
ATOM     19  C15 <0> A   1       1.516  -3.872   1.303  0.00  0.00    +0.229 C 
BRANCH  19  20
ATOM     20  O5  <0> A   1       2.678  -4.243   0.559  0.00  0.00    -0.530 OA
ATOM     21  H22 <0> A   1       3.506  -3.904   0.927  0.00  0.00    +0.364 HD
ENDBRANCH  19  20
BRANCH  19  22
ATOM     22  C16 <0> A   1       1.630  -4.412   2.730  0.00  0.00    -0.040 C 
BRANCH  22  23
ATOM     23  C17 <0> A   1       1.601  -5.941   2.700  0.00  0.00    +0.235 C 
BRANCH  23  24
ATOM     24  O4  <0> A   1       2.760  -6.426   2.019  0.00  0.00    -0.527 OA
ATOM     25  H21 <0> A   1       3.595  -6.164   2.429  0.00  0.00    +0.351 HD
ENDBRANCH  23  24
BRANCH  23  26
ATOM     26  C18 <0> A   1       1.589  -6.479   4.132  0.00  0.00    -0.100 C 
BRANCH  26  27
ATOM     27  C19 <0> A   1       1.437  -7.978   4.105  0.00  0.00    +0.491 C 
ATOM     28  O2  <0> A   1       1.347  -8.562   3.038  0.00  0.00    -0.680 OA
ATOM     29  O3  <0> A   1       1.405  -8.607   5.149  0.00  0.00    -0.713 OA
ENDBRANCH  26  27
ENDBRANCH  23  26
ENDBRANCH  22  23
ENDBRANCH  19  22
ENDBRANCH  18  19
ENDBRANCH  17  18
ENDBRANCH   5  17
TORSDOF 10
