REMARK VINA RESULT:      -8.0      2.152      4.704
REMARK  Name = CHEMBL50566
REMARK  8 active torsions:
REMARK  status: ('A' for Active; 'I' for Inactive)
REMARK    1  A    between atoms: C1_1  and  C2_2
REMARK    2  A    between atoms: C4_4  and  C22_27
REMARK    3  A    between atoms: C5_5  and  C15_16
REMARK    4  A    between atoms: C6_6  and  C8_8
REMARK    5  A    between atoms: C12_12  and  C14_14
REMARK    6  A    between atoms: C15_16  and  C16_17
REMARK    7  A    between atoms: C16_17  and  C17_18
REMARK    8  A    between atoms: C19_20  and  O3_26
REMARK                            x       y       z     vdW  Elec       q    Type
REMARK                         _______ _______ _______ _____ _____    ______ ____
ROOT
ATOM      1  C1  <0> A   1     -11.951  13.928  48.082  0.00  0.00    +0.089 C 
ATOM      2  C2  <0> A   1     -12.746  12.751  47.580  0.00  0.00    -0.083 A 
ATOM      3  C3  <0> A   1     -13.618  12.094  48.430  0.00  0.00    +0.007 A 
ATOM      4  C4  <0> A   1     -14.351  11.012  47.976  0.00  0.00    -0.074 A 
ATOM      5  C5  <0> A   1     -14.216  10.582  46.672  0.00  0.00    -0.072 A 
ATOM      6  C6  <0> A   1     -13.339  11.239  45.811  0.00  0.00    -0.041 A 
ATOM      7  C7  <0> A   1     -12.607  12.332  46.272  0.00  0.00    +0.014 A 
ATOM      8  C22 <0> A   1     -15.299  10.302  48.908  0.00  0.00    +0.091 C 
ENDROOT
BRANCH   6   9
ATOM      9  C8  <0> A   1     -13.189  10.782  44.408  0.00  0.00    -0.047 A 
ATOM     10  C9  <0> A   1     -12.254   9.800  44.089  0.00  0.00    +0.049 A 
ATOM     11  C10 <0> A   1     -12.118   9.377  42.783  0.00  0.00    -0.009 A 
ATOM     12  C11 <0> A   1     -12.909   9.929  41.788  0.00  0.00    +0.097 A 
ATOM     13  C12 <0> A   1     -13.841  10.906  42.101  0.00  0.00    -0.114 A 
ATOM     14  C13 <0> A   1     -13.987  11.330  43.406  0.00  0.00    +0.055 A 
ATOM     15  C14 <0> A   1     -14.699  11.503  41.015  0.00  0.00    +0.104 C 
ATOM     16  F1  <0> A   1     -12.774   9.513  40.510  0.00  0.00    -0.137 F 
ENDBRANCH   6   9
BRANCH   5  17
ATOM     17  C15 <0> A   1     -15.015   9.404  46.179  0.00  0.00    +0.073 C 
BRANCH  17  18
ATOM     18  C16 <0> A   1     -14.247   8.111  46.462  0.00  0.00    +0.059 C 
BRANCH  18  19
ATOM     19  C17 <0> A   1     -14.811   6.983  45.596  0.00  0.00    +0.196 C 
ATOM     20  C18 <0> A   1     -14.704   5.656  46.353  0.00  0.00    +0.040 C 
ATOM     21  C19 <0> A   1     -15.232   4.522  45.468  0.00  0.00    +0.184 C 
ATOM     22  C20 <0> A   1     -14.397   4.468  44.181  0.00  0.00    +0.021 C 
ATOM     23  C21 <0> A   1     -14.370   5.855  43.576  0.00  0.00    +0.496 C 
ATOM     24  O1  <0> A   1     -14.618   6.026  42.405  0.00  0.00    -0.453 OA
ATOM     25  O2  <0> A   1     -14.062   6.893  44.379  0.00  0.00    -0.367 OA
BRANCH  21  26
ATOM     26  O3  <0> A   1     -16.601   4.766  45.144  0.00  0.00    -0.563 OA
ATOM     27  H22 <0> A   1     -17.173   4.883  45.914  0.00  0.00    +0.386 HD
ENDBRANCH  21  26
ENDBRANCH  18  19
ENDBRANCH  17  18
ENDBRANCH   5  17
TORSDOF 5
