REMARK VINA RESULT:      -7.3      1.898      4.418
REMARK  Name = CHEMBL250707
REMARK  16 active torsions:
REMARK  status: ('A' for Active; 'I' for Inactive)
REMARK    1  A    between atoms: C1_1  and  C2_2
REMARK    2  A    between atoms: C2_2  and  C3_3
REMARK    3  A    between atoms: C2_2  and  N1_4
REMARK    4  A    between atoms: C4_5  and  C24_28
REMARK    5  A    between atoms: C5_6  and  C18_21
REMARK    6  A    between atoms: C6_7  and  C12_15
REMARK    7  A    between atoms: C7_8  and  C8_9
REMARK    8  A    between atoms: N2_11  and  C9_12
REMARK    9  A    between atoms: C24_28  and  C25_29
REMARK   10  A    between atoms: C25_29  and  C26_30
REMARK   11  A    between atoms: C26_30  and  C27_32
REMARK   12  A    between atoms: C26_30  and  O5_40
REMARK   13  A    between atoms: C27_32  and  C28_33
REMARK   14  A    between atoms: C28_33  and  C29_35
REMARK   15  A    between atoms: C28_33  and  O4_39
REMARK   16  A    between atoms: C29_35  and  C30_36
REMARK                            x       y       z     vdW  Elec       q    Type
REMARK                         _______ _______ _______ _____ _____    ______ ____
ROOT
ATOM      1  N1  <0> A   1     -15.363   9.461  47.593  0.00  0.00    -0.402 N 
ATOM      2  C4  <0> A   1     -14.298   9.623  46.773  0.00  0.00    +0.074 C 
ATOM      3  C5  <0> A   1     -14.152   8.505  46.007  0.00  0.00    -0.122 C 
ATOM      4  C6  <0> A   1     -15.181   7.601  46.372  0.00  0.00    -0.057 C 
ATOM      5  C7  <0> A   1     -15.921   8.223  47.371  0.00  0.00    -0.033 C 
ENDROOT
BRANCH   3   6
ATOM      6  C18 <0> A   1     -13.107   8.276  44.978  0.00  0.00    -0.009 A 
ATOM      7  C19 <0> A   1     -13.459   8.189  43.632  0.00  0.00    +0.050 A 
ATOM      8  C20 <0> A   1     -12.484   7.975  42.679  0.00  0.00    -0.016 A 
ATOM      9  C21 <0> A   1     -11.157   7.848  43.058  0.00  0.00    +0.095 A 
ATOM     10  C22 <0> A   1     -10.804   7.934  44.395  0.00  0.00    -0.017 A 
ATOM     11  C23 <0> A   1     -11.771   8.154  45.354  0.00  0.00    +0.055 A 
ATOM     12  F1  <0> A   1     -10.207   7.639  42.122  0.00  0.00    -0.142 F 
ENDBRANCH   3   6
BRANCH   4  13
ATOM     13  C12 <0> A   1     -15.419   6.254  45.804  0.00  0.00    -0.010 A 
ATOM     14  C13 <0> A   1     -14.638   5.174  46.212  0.00  0.00    +0.026 A 
ATOM     15  C14 <0> A   1     -14.864   3.921  45.679  0.00  0.00    +0.003 A 
ATOM     16  C15 <0> A   1     -15.864   3.737  44.740  0.00  0.00    -0.002 A 
ATOM     17  C16 <0> A   1     -16.643   4.805  44.331  0.00  0.00    +0.001 A 
ATOM     18  C17 <0> A   1     -16.430   6.060  44.863  0.00  0.00    +0.009 A 
ENDBRANCH   4  13
BRANCH   5  19
ATOM     19  C8  <0> A   1     -17.085   7.662  48.060  0.00  0.00    +0.608 C 
ATOM     20  O1  <0> A   1     -18.180   7.694  47.529  0.00  0.00    -0.517 OA
ATOM     21  N2  <0> A   1     -16.945   7.111  49.282  0.00  0.00    -0.693 N 
ATOM     22  H10 <0> A   1     -16.088   7.146  49.734  0.00  0.00    +0.404 HD
BRANCH  21  23
ATOM     23  C9  <0> A   1     -18.088   6.462  49.929  0.00  0.00    +0.217 C 
ATOM     24  C10 <0> A   1     -17.794   5.480  51.064  0.00  0.00    +0.009 C 
ATOM     25  C11 <0> A   1     -18.266   4.959  49.705  0.00  0.00    +0.017 C 
ENDBRANCH  21  23
ENDBRANCH   5  19
BRANCH   1  27
ATOM     26  C1  <0> A   1     -14.658  10.967  49.385  0.00  0.00    +0.045 C 
ATOM     27  C2  <0> A   1     -15.841  10.444  48.568  0.00  0.00    +0.230 C 
ATOM     28  C3  <0> A   1     -16.509  11.608  47.834  0.00  0.00    +0.041 C 
ENDBRANCH   1  27
BRANCH   2  29
ATOM     29  C24 <0> A   1     -13.417  10.844  46.714  0.00  0.00    +0.117 C 
BRANCH  29  30
ATOM     30  C25 <0> A   1     -14.088  11.916  45.853  0.00  0.00    -0.007 C 
BRANCH  30  31
ATOM     31  C26 <0> A   1     -13.326  12.062  44.534  0.00  0.00    +0.212 C 
BRANCH  31  32
ATOM     32  O5  <0> A   1     -12.039  11.453  44.658  0.00  0.00    -0.542 OA
ATOM     33  H34 <0> A   1     -11.909  10.687  44.084  0.00  0.00    +0.362 HD
ENDBRANCH  31  32
BRANCH  31  34
ATOM     34  C27 <0> A   1     -14.108  11.377  43.414  0.00  0.00    -0.051 C 
BRANCH  34  35
ATOM     35  C28 <0> A   1     -13.565  11.831  42.059  0.00  0.00    +0.230 C 
BRANCH  35  36
ATOM     36  O4  <0> A   1     -12.306  11.200  41.814  0.00  0.00    -0.528 OA
ATOM     37  H33 <0> A   1     -12.131  11.022  40.880  0.00  0.00    +0.349 HD
ENDBRANCH  35  36
BRANCH  35  38
ATOM     38  C29 <0> A   1     -14.551  11.444  40.955  0.00  0.00    -0.103 C 
BRANCH  38  39
ATOM     39  C30 <0> A   1     -13.791  11.017  39.727  0.00  0.00    +0.490 C 
ATOM     40  O2  <0> A   1     -13.506   9.844  39.562  0.00  0.00    -0.681 OA
ATOM     41  O3  <0> A   1     -13.458  11.847  38.898  0.00  0.00    -0.713 OA
ENDBRANCH  38  39
ENDBRANCH  35  38
ENDBRANCH  34  35
ENDBRANCH  31  34
ENDBRANCH  30  31
ENDBRANCH  29  30
ENDBRANCH   2  29
TORSDOF 14
