REMARK VINA RESULT:      -8.0      1.560      2.113
REMARK  Name = CHEMBL154335
REMARK  8 active torsions:
REMARK  status: ('A' for Active; 'I' for Inactive)
REMARK    1  A    between atoms: C1_1  and  C2_2
REMARK    2  A    between atoms: C2_2  and  C3_3
REMARK    3  A    between atoms: C2_2  and  C4_4
REMARK    4  A    between atoms: C5_5  and  C20_23
REMARK    5  A    between atoms: C6_6  and  C14_16
REMARK    6  A    between atoms: C7_8  and  C8_10
REMARK    7  A    between atoms: C21_24  and  C22_25
REMARK    8  A    between atoms: C24_27  and  O3_33
REMARK                            x       y       z     vdW  Elec       q    Type
REMARK                         _______ _______ _______ _____ _____    ______ ____
ROOT
ATOM      1  C4  <0> A   1     -25.416  -1.565  51.824  0.00  0.00    +0.204 A 
ATOM      2  C5  <0> A   1     -26.128  -2.590  51.197  0.00  0.00    -0.160 A 
ATOM      3  C6  <0> A   1     -27.520  -2.426  51.035  0.00  0.00    +0.230 A 
ATOM      4  N1  <0> A   1     -28.088  -1.310  51.484  0.00  0.00    -0.504 NA
ATOM      5  C7  <0> A   1     -27.370  -0.374  52.069  0.00  0.00    +0.335 A 
ATOM      6  N2  <0> A   1     -26.068  -0.494  52.243  0.00  0.00    -0.510 NA
ENDROOT
BRANCH   3   7
ATOM      7  C14 <0> A   1     -28.332  -3.476  50.377  0.00  0.00    -0.071 A 
ATOM      8  C15 <0> A   1     -28.396  -3.543  48.986  0.00  0.00    +0.086 A 
ATOM      9  C16 <0> A   1     -29.154  -4.521  48.378  0.00  0.00    -0.018 A 
ATOM     10  C17 <0> A   1     -29.851  -5.438  49.149  0.00  0.00    +0.120 A 
ATOM     11  C18 <0> A   1     -29.792  -5.376  50.532  0.00  0.00    -0.020 A 
ATOM     12  C19 <0> A   1     -29.031  -4.405  51.149  0.00  0.00    +0.096 A 
ATOM     13  F1  <0> A   1     -30.594  -6.395  48.550  0.00  0.00    -0.135 F 
ENDBRANCH   3   7
BRANCH   5  14
ATOM     14  C8  <0> A   1     -28.059   0.871  52.561  0.00  0.00    +0.080 C 
ATOM     15  C9  <0> A   1     -29.001   1.395  51.475  0.00  0.00    +0.027 C 
ATOM     16  C10 <0> A   1     -29.702   2.661  51.975  0.00  0.00    +0.011 C 
ATOM     17  C11 <0> A   1     -28.655   3.728  52.300  0.00  0.00    +0.005 C 
ATOM     18  C12 <0> A   1     -27.712   3.205  53.385  0.00  0.00    +0.011 C 
ATOM     19  C13 <0> A   1     -27.012   1.939  52.886  0.00  0.00    +0.027 C 
ENDBRANCH   5  14
BRANCH   1  21
ATOM     20  C1  <0> A   1     -23.213  -0.627  51.177  0.00  0.00    +0.044 C 
ATOM     21  C2  <0> A   1     -23.927  -1.682  52.026  0.00  0.00    +0.045 C 
ATOM     22  C3  <0> A   1     -23.593  -1.459  53.503  0.00  0.00    +0.044 C 
ENDBRANCH   1  21
BRANCH   2  23
ATOM     23  C20 <0> A   1     -25.445  -3.808  50.717  0.00  0.00    +0.052 C 
ATOM     24  C21 <0> A   1     -25.318  -4.857  51.519  0.00  0.00    -0.007 C 
BRANCH  24  25
ATOM     25  C22 <0> A   1     -24.621  -6.100  51.029  0.00  0.00    +0.244 C 
ATOM     26  C23 <0> A   1     -25.491  -6.791  49.977  0.00  0.00    +0.051 C 
ATOM     27  C24 <0> A   1     -24.799  -8.077  49.510  0.00  0.00    +0.186 C 
ATOM     28  C25 <0> A   1     -24.597  -8.998  50.721  0.00  0.00    +0.024 C 
ATOM     29  C26 <0> A   1     -23.907  -8.204  51.810  0.00  0.00    +0.498 C 
ATOM     30  O1  <0> A   1     -22.936  -8.645  52.380  0.00  0.00    -0.449 OA
ATOM     31  O2  <0> A   1     -24.408  -6.993  52.128  0.00  0.00    -0.370 OA
BRANCH  27  32
ATOM     32  O3  <0> A   1     -23.532  -7.756  48.933  0.00  0.00    -0.563 OA
ATOM     33  H31 <0> A   1     -23.517  -6.909  48.466  0.00  0.00    +0.388 HD
ENDBRANCH  27  32
ENDBRANCH  24  25
ENDBRANCH   2  23
TORSDOF 6
