REMARK VINA RESULT:      -8.6      0.000      0.000
REMARK  Name = CHEMBL329307
REMARK  14 active torsions:
REMARK  status: ('A' for Active; 'I' for Inactive)
REMARK    1  A    between atoms: C1_1  and  C2_2
REMARK    2  A    between atoms: C2_2  and  C3_3
REMARK    3  A    between atoms: C2_2  and  C4_4
REMARK    4  A    between atoms: C6_6  and  C22_29
REMARK    5  A    between atoms: C8_8  and  C16_22
REMARK    6  A    between atoms: C9_9  and  O1_10
REMARK    7  A    between atoms: O1_10  and  C10_11
REMARK    8  A    between atoms: C10_11  and  C11_12
REMARK    9  A    between atoms: C11_12  and  C12_13
REMARK   10  A    between atoms: C11_12  and  O5_21
REMARK   11  A    between atoms: C12_13  and  C13_14
REMARK   12  A    between atoms: C13_14  and  C14_16
REMARK   13  A    between atoms: C13_14  and  O4_20
REMARK   14  A    between atoms: C14_16  and  C15_17
REMARK                            x       y       z     vdW  Elec       q    Type
REMARK                         _______ _______ _______ _____ _____    ______ ____
ROOT
ATOM      1  C4  <0> A   1     -14.901   6.578  45.586  0.00  0.00    -0.085 A 
ATOM      2  C5  <0> A   1     -16.005   6.501  46.410  0.00  0.00    +0.040 A 
ATOM      3  C6  <0> A   1     -16.395   7.608  47.162  0.00  0.00    -0.052 A 
ATOM      4  C7  <0> A   1     -15.672   8.794  47.083  0.00  0.00    +0.043 A 
ATOM      5  C8  <0> A   1     -14.560   8.870  46.252  0.00  0.00    -0.059 A 
ATOM      6  C9  <0> A   1     -14.170   7.753  45.506  0.00  0.00    +0.119 A 
ENDROOT
BRANCH   5   7
ATOM      7  C16 <0> A   1     -13.783  10.132  46.163  0.00  0.00    -0.061 A 
ATOM      8  C17 <0> A   1     -14.151  11.115  45.245  0.00  0.00    +0.083 A 
ATOM      9  C18 <0> A   1     -13.426  12.286  45.165  0.00  0.00    -0.013 A 
ATOM     10  C19 <0> A   1     -12.334  12.486  45.996  0.00  0.00    +0.104 A 
ATOM     11  C20 <0> A   1     -11.966  11.511  46.908  0.00  0.00    -0.020 A 
ATOM     12  C21 <0> A   1     -12.688  10.339  46.999  0.00  0.00    +0.052 A 
ATOM     13  F1  <0> A   1     -11.627  13.634  45.913  0.00  0.00    -0.138 F 
ENDBRANCH   5   7
BRANCH   3  14
ATOM     14  C22 <0> A   1     -17.584   7.521  48.046  0.00  0.00    -0.047 A 
ATOM     15  C23 <0> A   1     -17.606   8.210  49.257  0.00  0.00    +0.053 A 
ATOM     16  C24 <0> A   1     -18.715   8.127  50.076  0.00  0.00    -0.011 A 
ATOM     17  C25 <0> A   1     -19.804   7.361  49.695  0.00  0.00    +0.096 A 
ATOM     18  C26 <0> A   1     -19.786   6.675  48.491  0.00  0.00    -0.011 A 
ATOM     19  C27 <0> A   1     -18.685   6.756  47.664  0.00  0.00    +0.053 A 
ATOM     20  F2  <0> A   1     -20.887   7.283  50.499  0.00  0.00    -0.140 F 
ENDBRANCH   3  14
BRANCH   1  22
ATOM     21  C1  <0> A   1     -14.379   4.155  45.691  0.00  0.00    +0.030 C 
ATOM     22  C2  <0> A   1     -14.483   5.377  44.776  0.00  0.00    +0.033 C 
ATOM     23  C3  <0> A   1     -15.523   5.112  43.685  0.00  0.00    +0.025 C 
ENDBRANCH   1  22
BRANCH   6  24
ATOM     24  O1  <0> A   1     -13.081   7.822  44.697  0.00  0.00    -0.316 OA
BRANCH  24  25
ATOM     25  C10 <0> A   1     -13.312   8.129  43.321  0.00  0.00    +0.151 C 
BRANCH  25  26
ATOM     26  C11 <0> A   1     -12.139   7.620  42.480  0.00  0.00    +0.225 C 
BRANCH  26  27
ATOM     27  O5  <0> A   1     -12.151   6.191  42.463  0.00  0.00    -0.531 OA
ATOM     28  H19 <0> A   1     -13.033   5.805  42.548  0.00  0.00    +0.363 HD
ENDBRANCH  26  27
BRANCH  26  29
ATOM     29  C12 <0> A   1     -12.269   8.149  41.051  0.00  0.00    -0.043 C 
BRANCH  29  30
ATOM     30  C13 <0> A   1     -12.847   9.565  41.082  0.00  0.00    +0.235 C 
BRANCH  30  31
ATOM     31  O4  <0> A   1     -11.779  10.515  41.120  0.00  0.00    -0.526 OA
ATOM     32  H18 <0> A   1     -11.364  10.603  41.989  0.00  0.00    +0.350 HD
ENDBRANCH  30  31
BRANCH  30  33
ATOM     33  C14 <0> A   1     -13.693   9.798  39.828  0.00  0.00    -0.101 C 
BRANCH  33  34
ATOM     34  C15 <0> A   1     -13.869  11.278  39.609  0.00  0.00    +0.491 C 
ATOM     35  O2  <0> A   1     -13.279  11.835  38.698  0.00  0.00    -0.680 OA
ATOM     36  O3  <0> A   1     -14.602  11.920  40.343  0.00  0.00    -0.713 OA
ENDBRANCH  33  34
ENDBRANCH  30  33
ENDBRANCH  29  30
ENDBRANCH  26  29
ENDBRANCH  25  26
ENDBRANCH  24  25
ENDBRANCH   6  24
TORSDOF 12
