REMARK VINA RESULT:      -7.5     17.557     20.489
REMARK  Name = CHEMBL301952
REMARK  4 active torsions:
REMARK  status: ('A' for Active; 'I' for Inactive)
REMARK    1  A    between atoms: C6_6  and  C7_7
REMARK    2  A    between atoms: C12_12  and  C13_13
REMARK    3  A    between atoms: C14_14  and  C15_15
REMARK    4  A    between atoms: C17_17  and  O3_23
REMARK                            x       y       z     vdW  Elec       q    Type
REMARK                         _______ _______ _______ _____ _____    ______ ____
ROOT
ATOM      1  C7  <0> A   1     -28.231  -3.241  52.570  0.00  0.00    -0.010 A 
ATOM      2  C8  <0> A   1     -29.164  -2.525  53.313  0.00  0.00    +0.054 A 
ATOM      3  C9  <0> A   1     -30.138  -3.194  54.031  0.00  0.00    -0.022 A 
ATOM      4  C10 <0> A   1     -30.193  -4.579  54.015  0.00  0.00    +0.051 A 
ATOM      5  C11 <0> A   1     -29.276  -5.306  53.283  0.00  0.00    -0.018 A 
ATOM      6  C12 <0> A   1     -28.289  -4.646  52.549  0.00  0.00    -0.030 A 
ATOM      7 Cl1  <0> A   1     -29.353  -7.040  53.270  0.00  0.00    -0.043 Cl
ATOM      8 Cl2  <0> A   1     -31.298  -2.295  54.957  0.00  0.00    -0.050 Cl
ENDROOT
BRANCH   1  14
ATOM      9  C1  <0> A   1     -27.408  -2.191  50.465  0.00  0.00    +0.067 A 
ATOM     10  C2  <0> A   1     -26.432  -1.526  49.751  0.00  0.00    -0.012 A 
ATOM     11  C3  <0> A   1     -25.233  -1.191  50.360  0.00  0.00    +0.108 A 
ATOM     12  C4  <0> A   1     -25.007  -1.523  51.686  0.00  0.00    -0.014 A 
ATOM     13  C5  <0> A   1     -25.978  -2.188  52.407  0.00  0.00    +0.072 A 
ATOM     14  C6  <0> A   1     -27.186  -2.527  51.799  0.00  0.00    -0.064 A 
ATOM     15  F1  <0> A   1     -24.280  -0.540  49.657  0.00  0.00    -0.137 F 
ENDBRANCH   1  14
BRANCH   6  16
ATOM     16  C13 <0> A   1     -27.309  -5.417  51.759  0.00  0.00    +0.042 C 
ATOM     17  C14 <0> A   1     -26.177  -5.821  52.320  0.00  0.00    -0.002 C 
BRANCH  17  18
ATOM     18  C15 <0> A   1     -25.176  -6.609  51.514  0.00  0.00    +0.243 C 
ATOM     19  C16 <0> A   1     -25.877  -7.249  50.314  0.00  0.00    +0.051 C 
ATOM     20  C17 <0> A   1     -24.865  -8.083  49.521  0.00  0.00    +0.186 C 
ATOM     21  C18 <0> A   1     -24.286  -9.166  50.439  0.00  0.00    +0.024 C 
ATOM     22  C19 <0> A   1     -23.784  -8.500  51.702  0.00  0.00    +0.497 C 
ATOM     23  O1  <0> A   1     -22.680  -8.737  52.132  0.00  0.00    -0.449 OA
ATOM     24  O2  <0> A   1     -24.605  -7.636  52.333  0.00  0.00    -0.368 OA
BRANCH  20  25
ATOM     25  O3  <0> A   1     -23.813  -7.237  49.050  0.00  0.00    -0.564 OA
ATOM     26  H15 <0> A   1     -23.905  -6.311  49.313  0.00  0.00    +0.388 HD
ENDBRANCH  20  25
ENDBRANCH  17  18
ENDBRANCH   6  16
TORSDOF 4
