REMARK VINA RESULT:      -7.3     18.868     21.755
REMARK  Name = CHEMBL350272
REMARK  4 active torsions:
REMARK  status: ('A' for Active; 'I' for Inactive)
REMARK    1  A    between atoms: C7_8  and  C11_14
REMARK    2  A    between atoms: C11_14  and  C12_15
REMARK    3  A    between atoms: C12_15  and  C13_16
REMARK    4  A    between atoms: C15_18  and  O3_24
REMARK                            x       y       z     vdW  Elec       q    Type
REMARK                         _______ _______ _______ _____ _____    ______ ____
ROOT
ATOM      1  C1  <0> A   1     -21.590  -1.648  53.689  0.00  0.00    +0.042 A 
ATOM      2  C2  <0> A   1     -22.694  -1.034  54.197  0.00  0.00    +0.057 A 
ATOM      3  C3  <0> A   1     -23.967  -1.384  53.718  0.00  0.00    -0.043 A 
ATOM      4  C4  <0> A   1     -24.082  -2.374  52.709  0.00  0.00    -0.021 A 
ATOM      5  C5  <0> A   1     -22.921  -2.986  52.208  0.00  0.00    +0.059 A 
ATOM      6  C6  <0> A   1     -21.702  -2.621  52.698  0.00  0.00    -0.022 A 
ATOM      7 Cl1  <0> A   1     -20.269  -3.379  52.076  0.00  0.00    -0.058 Cl
ATOM      8  C7  <0> A   1     -25.356  -2.723  52.229  0.00  0.00    -0.046 A 
ATOM      9  C8  <0> A   1     -26.460  -2.108  52.736  0.00  0.00    -0.024 A 
ATOM     10  C9  <0> A   1     -26.348  -1.135  53.728  0.00  0.00    +0.056 A 
ATOM     11  C10 <0> A   1     -25.129  -0.771  54.218  0.00  0.00    -0.015 A 
ATOM     12 Cl2  <0> A   1     -25.013   0.443  55.453  0.00  0.00    -0.044 Cl
ATOM     13 Cl3  <0> A   1     -28.031  -2.544  52.139  0.00  0.00    -0.047 Cl
ENDROOT
BRANCH   8  14
ATOM     14  C11 <0> A   1     -25.499  -3.773  51.156  0.00  0.00    +0.090 C 
BRANCH  14  15
ATOM     15  C12 <0> A   1     -25.818  -5.122  51.803  0.00  0.00    +0.065 C 
BRANCH  15  16
ATOM     16  C13 <0> A   1     -24.929  -6.205  51.188  0.00  0.00    +0.200 C 
ATOM     17  C14 <0> A   1     -25.682  -6.899  50.050  0.00  0.00    +0.043 C 
ATOM     18  C15 <0> A   1     -24.804  -8.010  49.465  0.00  0.00    +0.185 C 
ATOM     19  C16 <0> A   1     -24.471  -9.017  50.575  0.00  0.00    +0.022 C 
ATOM     20  C17 <0> A   1     -23.913  -8.254  51.755  0.00  0.00    +0.497 C 
ATOM     21  O1  <0> A   1     -22.890  -8.604  52.295  0.00  0.00    -0.451 OA
ATOM     22  O2  <0> A   1     -24.590  -7.170  52.190  0.00  0.00    -0.369 OA
BRANCH  18  23
ATOM     23  O3  <0> A   1     -23.597  -7.446  48.950  0.00  0.00    -0.564 OA
ATOM     24  H15 <0> A   1     -23.533  -6.487  49.059  0.00  0.00    +0.387 HD
ENDBRANCH  18  23
ENDBRANCH  15  16
ENDBRANCH  14  15
ENDBRANCH   8  14
TORSDOF 4
