REMARK  Name = CHEMBL318102
REMARK  13 active torsions:
REMARK  status: ('A' for Active; 'I' for Inactive)
REMARK    1  A    between atoms: C1_1  and  C2_2
REMARK    2  A    between atoms: C2_2  and  C3_3
REMARK    3  A    between atoms: C2_2  and  C4_4
REMARK    4  A    between atoms: C4_4  and  C18_20
REMARK    5  A    between atoms: C5_5  and  C6_6
REMARK    6  A    between atoms: C5_5  and  C12_13
REMARK    7  A    between atoms: C19_21  and  C20_22
REMARK    8  A    between atoms: C20_22  and  C21_24
REMARK    9  A    between atoms: C20_22  and  O4_32
REMARK   10  A    between atoms: C21_24  and  C22_25
REMARK   11  A    between atoms: C22_25  and  C23_27
REMARK   12  A    between atoms: C22_25  and  O3_31
REMARK   13  A    between atoms: C23_27  and  C24_28
REMARK                            x       y       z     vdW  Elec       q    Type
REMARK                         _______ _______ _______ _____ _____    ______ ____
ROOT
ATOM      1  C4  <0> A   1      -1.408  -0.538   0.172  0.00  0.00    -0.029 C 
ATOM      2  C5  <0> A   1      -1.890  -1.446  -0.718  0.00  0.00    -0.073 C 
ENDROOT
BRANCH   2   3
ATOM      3  C6  <0> A   1      -3.253  -1.995  -0.548  0.00  0.00    -0.043 A 
ATOM      4  C7  <0> A   1      -3.559  -2.779   0.565  0.00  0.00    +0.057 A 
ATOM      5  C8  <0> A   1      -4.832  -3.288   0.718  0.00  0.00    -0.011 A 
ATOM      6  C9  <0> A   1      -5.805  -3.023  -0.232  0.00  0.00    +0.099 A 
ATOM      7  C10 <0> A   1      -5.507  -2.246  -1.340  0.00  0.00    -0.017 A 
ATOM      8  C11 <0> A   1      -4.239  -1.726  -1.499  0.00  0.00    +0.054 A 
ATOM      9  F1  <0> A   1      -7.050  -3.525  -0.078  0.00  0.00    -0.140 F 
ENDBRANCH   2   3
BRANCH   2  10
ATOM     10  C12 <0> A   1      -1.052  -1.885  -1.854  0.00  0.00    -0.039 A 
ATOM     11  C13 <0> A   1      -0.677  -0.972  -2.842  0.00  0.00    +0.055 A 
ATOM     12  C14 <0> A   1       0.104  -1.387  -3.900  0.00  0.00    -0.016 A 
ATOM     13  C15 <0> A   1       0.518  -2.707  -3.983  0.00  0.00    +0.095 A 
ATOM     14  C16 <0> A   1       0.149  -3.617  -3.006  0.00  0.00    -0.016 A 
ATOM     15  C17 <0> A   1      -0.627  -3.212  -1.940  0.00  0.00    +0.057 A 
ATOM     16  F2  <0> A   1       1.284  -3.108  -5.022  0.00  0.00    -0.141 F 
ENDBRANCH   2  10
BRANCH   1  18
ATOM     17  C1  <0> A   1      -0.092   1.547  -0.098  0.00  0.00    +0.027 C 
ATOM     18  C2  <0> A   1      -0.019   0.021  -0.001  0.00  0.00    +0.017 C 
ATOM     19  C3  <0> A   1       0.842  -0.372   1.201  0.00  0.00    +0.027 C 
ENDBRANCH   1  18
BRANCH   1  20
ATOM     20  C18 <0> A   1      -2.237  -0.104   1.295  0.00  0.00    -0.007 C 
ATOM     21  C19 <0> A   1      -1.729   0.708   2.224  0.00  0.00    -0.035 C 
BRANCH  21  22
ATOM     22  C20 <0> A   1      -2.549   1.075   3.434  0.00  0.00    +0.245 C 
BRANCH  22  23
ATOM     23  O4  <0> A   1      -3.777   0.344   3.417  0.00  0.00    -0.537 OA
ATOM     24  H25 <0> A   1      -3.663  -0.616   3.430  0.00  0.00    +0.365 HD
ENDBRANCH  22  23
BRANCH  22  25
ATOM     25  C21 <0> A   1      -1.768   0.730   4.704  0.00  0.00    -0.040 C 
BRANCH  25  26
ATOM     26  C22 <0> A   1      -2.546   1.215   5.929  0.00  0.00    +0.231 C 
BRANCH  26  27
ATOM     27  O3  <0> A   1      -3.773   0.491   6.032  0.00  0.00    -0.527 OA
ATOM     28  H24 <0> A   1      -3.659  -0.464   6.126  0.00  0.00    +0.350 HD
ENDBRANCH  26  27
BRANCH  26  29
ATOM     29  C23 <0> A   1      -1.709   0.983   7.189  0.00  0.00    -0.102 C 
BRANCH  29  30
ATOM     30  C24 <0> A   1      -2.421   1.572   8.380  0.00  0.00    +0.490 C 
ATOM     31  O1  <0> A   1      -3.497   2.126   8.234  0.00  0.00    -0.681 OA
ATOM     32  O2  <0> A   1      -1.921   1.494   9.489  0.00  0.00    -0.713 OA
ENDBRANCH  29  30
ENDBRANCH  26  29
ENDBRANCH  25  26
ENDBRANCH  22  25
ENDBRANCH  21  22
ENDBRANCH   1  20
TORSDOF 11
