REMARK VINA RESULT:      -7.9     17.400     21.511
REMARK  Name = CHEMBL82467
REMARK  16 active torsions:
REMARK  status: ('A' for Active; 'I' for Inactive)
REMARK    1  A    between atoms: C1_1  and  C2_2
REMARK    2  A    between atoms: C2_2  and  C3_3
REMARK    3  A    between atoms: C3_3  and  C4_4
REMARK    4  A    between atoms: C3_3  and  C5_5
REMARK    5  A    between atoms: C3_3  and  C6_6
REMARK    6  A    between atoms: C6_6  and  O2_8
REMARK    7  A    between atoms: O2_8  and  C7_9
REMARK    8  A    between atoms: C9_12  and  C24_35
REMARK    9  A    between atoms: C9_12  and  C25_36
REMARK   10  A    between atoms: C12_17  and  C17_24
REMARK   11  A    between atoms: C13_19  and  C16_23
REMARK   12  A    between atoms: C17_24  and  C18_25
REMARK   13  A    between atoms: C18_25  and  C19_26
REMARK   14  A    between atoms: C21_28  and  O6_34
REMARK   15  A    between atoms: C25_36  and  S1_37
REMARK   16  A    between atoms: S1_37  and  C26_38
REMARK                            x       y       z     vdW  Elec       q    Type
REMARK                         _______ _______ _______ _____ _____    ______ ____
ROOT
ATOM      1  C7  <0> A   1     -12.559   9.941  48.706  0.00  0.00    +0.187 C 
ATOM      2  C8  <0> A   1     -13.197   8.613  49.072  0.00  0.00    +0.020 C 
ATOM      3  C9  <0> A   1     -14.686   8.708  49.385  0.00  0.00    +0.156 C 
ATOM      4  O3  <0> A   1     -15.364   9.521  48.430  0.00  0.00    -0.345 OA
ATOM      5  C10 <0> A   1     -14.862  10.841  48.298  0.00  0.00    +0.161 C 
ATOM      6  C11 <0> A   1     -13.421  10.826  47.815  0.00  0.00    -0.013 C 
ATOM      7  C12 <0> A   1     -13.272  10.480  46.346  0.00  0.00    +0.001 C 
ATOM      8  C13 <0> A   1     -14.170  11.373  45.486  0.00  0.00    -0.013 C 
ATOM      9  C14 <0> A   1     -15.624  11.233  45.934  0.00  0.00    +0.007 C 
ATOM     10  C15 <0> A   1     -15.755  11.680  47.388  0.00  0.00    +0.041 C 
ATOM     11  C16 <0> A   1     -14.044  10.957  44.018  0.00  0.00    +0.018 C 
ATOM     12  C24 <0> A   1     -14.899   9.243  50.801  0.00  0.00    +0.042 C 
ENDROOT
BRANCH   1  13
ATOM     13  O2  <0> A   1     -12.218  10.661  49.900  0.00  0.00    -0.346 OA
BRANCH  13  14
ATOM     14  C6  <0> A   1     -10.991  11.203  49.956  0.00  0.00    +0.469 C 
ATOM     15  O1  <0> A   1     -10.361  11.379  48.940  0.00  0.00    -0.502 OA
BRANCH  14  16
ATOM     16  C3  <0> A   1     -10.400  11.595  51.286  0.00  0.00    -0.052 C 
ATOM     17  C4  <0> A   1      -9.053  10.891  51.472  0.00  0.00    +0.062 C 
ATOM     18  C5  <0> A   1     -11.351  11.180  52.410  0.00  0.00    +0.061 C 
BRANCH  16  20
ATOM     19  C1  <0> A   1      -9.600  13.509  52.680  0.00  0.00    +0.025 C 
ATOM     20  C2  <0> A   1     -10.193  13.110  51.326  0.00  0.00    +0.036 C 
ENDBRANCH  16  20
ENDBRANCH  14  16
ENDBRANCH  13  14
ENDBRANCH   1  13
BRANCH   7  21
ATOM     21  C17 <0> A   1     -13.577   9.016  46.041  0.00  0.00    +0.024 C 
BRANCH  21  22
ATOM     22  C18 <0> A   1     -12.278   8.286  45.695  0.00  0.00    +0.078 C 
BRANCH  22  23
ATOM     23  C19 <0> A   1     -12.437   7.570  44.352  0.00  0.00    +0.184 C 
ATOM     24  C20 <0> A   1     -11.613   8.296  43.285  0.00  0.00    +0.044 C 
ATOM     25  C21 <0> A   1     -11.808   7.601  41.934  0.00  0.00    +0.183 C 
ATOM     26  C22 <0> A   1     -13.297   7.633  41.569  0.00  0.00    +0.011 C 
ATOM     27  C23 <0> A   1     -14.085   7.087  42.740  0.00  0.00    +0.488 C 
ATOM     28  O4  <0> A   1     -14.930   6.239  42.579  0.00  0.00    -0.447 OA
ATOM     29  O5  <0> A   1     -13.816   7.574  43.969  0.00  0.00    -0.357 OA
BRANCH  25  30
ATOM     30  O6  <0> A   1     -11.364   6.246  42.024  0.00  0.00    -0.562 OA
ATOM     31  H36 <0> A   1     -12.003   5.600  41.694  0.00  0.00    +0.385 HD
ENDBRANCH  25  30
ENDBRANCH  22  23
ENDBRANCH  21  22
ENDBRANCH   7  21
BRANCH   3  32
ATOM     32  C25 <0> A   1     -15.287   7.291  49.315  0.00  0.00    +0.095 C 
BRANCH  32  33
ATOM     33  S1  <0> A   1     -16.391   7.173  47.881  0.00  0.00    -0.102 S 
BRANCH  33  34
ATOM     34  C26 <0> A   1     -15.634   5.956  46.857  0.00  0.00    -0.100 A 
ATOM     35  C27 <0> A   1     -16.369   5.337  45.852  0.00  0.00    -0.024 A 
ATOM     36  C28 <0> A   1     -15.773   4.384  45.051  0.00  0.00    +0.026 A 
ATOM     37  C29 <0> A   1     -14.447   4.044  45.247  0.00  0.00    +0.002 A 
ATOM     38  C30 <0> A   1     -13.713   4.657  46.247  0.00  0.00    +0.028 A 
ATOM     39  C31 <0> A   1     -14.301   5.616  47.048  0.00  0.00    +0.030 A 
ENDBRANCH  33  34
ENDBRANCH  32  33
ENDBRANCH   3  32
TORSDOF 11
