REMARK VINA RESULT:      -7.6     22.207     24.306
REMARK  Name = CHEMBL99838
REMARK  15 active torsions:
REMARK  status: ('A' for Active; 'I' for Inactive)
REMARK    1  A    between atoms: C1_1  and  C2_2
REMARK    2  A    between atoms: C2_2  and  C3_3
REMARK    3  A    between atoms: C2_2  and  C4_4
REMARK    4  A    between atoms: C6_6  and  C23_29
REMARK    5  A    between atoms: C8_8  and  C16_22
REMARK    6  A    between atoms: C9_9  and  O1_10
REMARK    7  A    between atoms: O1_10  and  C10_11
REMARK    8  A    between atoms: C10_11  and  C11_12
REMARK    9  A    between atoms: C11_12  and  C12_13
REMARK   10  A    between atoms: C11_12  and  O5_21
REMARK   11  A    between atoms: C12_13  and  C13_14
REMARK   12  A    between atoms: C13_14  and  C14_16
REMARK   13  A    between atoms: C13_14  and  O4_20
REMARK   14  A    between atoms: C14_16  and  C15_17
REMARK   15  A    between atoms: C16_22  and  C17_23
REMARK                            x       y       z     vdW  Elec       q    Type
REMARK                         _______ _______ _______ _____ _____    ______ ____
ROOT
ATOM      1  C4  <0> A   1     -32.387  20.945  35.490  0.00  0.00    -0.086 A 
ATOM      2  C5  <0> A   1     -32.398  20.003  34.482  0.00  0.00    +0.028 A 
ATOM      3  C6  <0> A   1     -31.696  20.239  33.302  0.00  0.00    -0.053 A 
ATOM      4  C7  <0> A   1     -30.984  21.427  33.144  0.00  0.00    +0.027 A 
ATOM      5  C8  <0> A   1     -30.975  22.365  34.155  0.00  0.00    -0.088 A 
ATOM      6  C9  <0> A   1     -31.681  22.128  35.327  0.00  0.00    +0.106 A 
ENDROOT
BRANCH   3   7
ATOM      7  C23 <0> A   1     -31.707  19.229  32.215  0.00  0.00    -0.037 A 
ATOM      8  C24 <0> A   1     -30.690  18.279  32.134  0.00  0.00    +0.011 A 
ATOM      9  C25 <0> A   1     -30.704  17.342  31.122  0.00  0.00    +0.006 A 
ATOM     10  C26 <0> A   1     -31.724  17.344  30.187  0.00  0.00    -0.002 A 
ATOM     11  C27 <0> A   1     -32.736  18.285  30.263  0.00  0.00    +0.006 A 
ATOM     12  C28 <0> A   1     -32.735  19.224  31.274  0.00  0.00    +0.012 A 
ENDBRANCH   3   7
BRANCH   1  14
ATOM     13  C1  <0> A   1     -34.032  19.454  36.595  0.00  0.00    +0.028 C 
ATOM     14  C2  <0> A   1     -33.146  20.690  36.766  0.00  0.00    +0.032 C 
ATOM     15  C3  <0> A   1     -32.157  20.453  37.909  0.00  0.00    +0.023 C 
ENDBRANCH   1  14
BRANCH   6  16
ATOM     16  O1  <0> A   1     -31.676  23.057  36.320  0.00  0.00    -0.316 OA
BRANCH  16  17
ATOM     17  C10 <0> A   1     -32.853  23.851  36.471  0.00  0.00    +0.146 C 
BRANCH  17  18
ATOM     18  C11 <0> A   1     -32.732  24.709  37.734  0.00  0.00    +0.225 C 
BRANCH  18  19
ATOM     19  O5  <0> A   1     -32.797  23.868  38.887  0.00  0.00    -0.531 OA
ATOM     20  H19 <0> A   1     -31.941  23.710  39.308  0.00  0.00    +0.362 HD
ENDBRANCH  18  19
BRANCH  18  21
ATOM     21  C12 <0> A   1     -31.395  25.451  37.720  0.00  0.00    -0.044 C 
BRANCH  21  22
ATOM     22  C13 <0> A   1     -30.962  25.748  39.157  0.00  0.00    +0.235 C 
BRANCH  22  23
ATOM     23  O4  <0> A   1     -29.938  24.829  39.544  0.00  0.00    -0.527 OA
ATOM     24  H18 <0> A   1     -29.422  24.481  38.805  0.00  0.00    +0.350 HD
ENDBRANCH  22  23
BRANCH  22  25
ATOM     25  C14 <0> A   1     -30.422  27.178  39.241  0.00  0.00    -0.101 C 
BRANCH  25  26
ATOM     26  C15 <0> A   1     -28.915  27.144  39.272  0.00  0.00    +0.491 C 
ATOM     27  O2  <0> A   1     -28.322  27.367  40.314  0.00  0.00    -0.680 OA
ATOM     28  O3  <0> A   1     -28.290  26.895  38.256  0.00  0.00    -0.713 OA
ENDBRANCH  25  26
ENDBRANCH  22  25
ENDBRANCH  21  22
ENDBRANCH  18  21
ENDBRANCH  17  18
ENDBRANCH  16  17
ENDBRANCH   6  16
BRANCH   5  29
ATOM     29  C16 <0> A   1     -30.206  23.648  33.985  0.00  0.00    +0.071 C 
BRANCH  29  30
ATOM     30  C17 <0> A   1     -28.719  23.390  34.244  0.00  0.00    +0.002 C 
ATOM     31  C18 <0> A   1     -28.314  24.033  35.571  0.00  0.00    +0.006 C 
ATOM     32  C19 <0> A   1     -26.828  23.774  35.831  0.00  0.00    -0.001 C 
ATOM     33  C20 <0> A   1     -26.000  24.381  34.696  0.00  0.00    -0.002 C 
ATOM     34  C21 <0> A   1     -26.405  23.737  33.368  0.00  0.00    +0.004 C 
ATOM     35  C22 <0> A   1     -27.891  23.996  33.109  0.00  0.00    +0.009 C 
ENDBRANCH  29  30
ENDBRANCH   5  29
TORSDOF 13
