REMARK VINA RESULT:      -8.1      1.547      2.553
REMARK  Name = CHEMBL250180
REMARK  17 active torsions:
REMARK  status: ('A' for Active; 'I' for Inactive)
REMARK    1  A    between atoms: C1_1  and  C2_2
REMARK    2  A    between atoms: C2_2  and  C3_3
REMARK    3  A    between atoms: C2_2  and  C4_4
REMARK    4  A    between atoms: C5_5  and  C19_29
REMARK    5  A    between atoms: N2_7  and  C13_22
REMARK    6  A    between atoms: C6_8  and  O1_9
REMARK    7  A    between atoms: O1_9  and  C7_10
REMARK    8  A    between atoms: C7_10  and  C8_11
REMARK    9  A    between atoms: C8_11  and  C9_13
REMARK   10  A    between atoms: C8_11  and  O5_21
REMARK   11  A    between atoms: C9_13  and  C10_14
REMARK   12  A    between atoms: C10_14  and  C11_16
REMARK   13  A    between atoms: C10_14  and  O4_20
REMARK   14  A    between atoms: C11_16  and  C12_17
REMARK   15  A    between atoms: N3_31  and  C20_32
REMARK   16  A    between atoms: C20_32  and  C21_33
REMARK   17  A    between atoms: C21_33  and  C22_34
REMARK                            x       y       z     vdW  Elec       q    Type
REMARK                         _______ _______ _______ _____ _____    ______ ____
ROOT
ATOM      1  C4  <0> A   1     -15.280   6.665  45.814  0.00  0.00    -0.161 C 
ATOM      2  C5  <0> A   1     -16.180   7.256  46.726  0.00  0.00    +0.044 C 
ATOM      3  N1  <0> A   1     -15.773   8.488  46.964  0.00  0.00    -0.238 NA
ATOM      4  N2  <0> A   1     -14.611   8.718  46.215  0.00  0.00    -0.318 N 
ATOM      5  C6  <0> A   1     -14.325   7.581  45.521  0.00  0.00    +0.260 C 
ENDROOT
BRANCH   4   6
ATOM      6  C13 <0> A   1     -13.869   9.906  46.190  0.00  0.00    +0.126 A 
ATOM      7  C14 <0> A   1     -12.727  10.030  46.971  0.00  0.00    +0.064 A 
ATOM      8  C15 <0> A   1     -11.998  11.202  46.945  0.00  0.00    +0.005 A 
ATOM      9  C16 <0> A   1     -12.405  12.254  46.142  0.00  0.00    +0.106 A 
ATOM     10  C17 <0> A   1     -13.544  12.133  45.362  0.00  0.00    +0.020 A 
ATOM     11  C18 <0> A   1     -14.272  10.960  45.381  0.00  0.00    +0.073 A 
ATOM     12  F1  <0> A   1     -11.690  13.401  46.118  0.00  0.00    -0.133 F 
ENDBRANCH   4   6
BRANCH   2  13
ATOM     13  C19 <0> A   1     -17.370   6.608  47.313  0.00  0.00    +0.605 C 
ATOM     14  O6  <0> A   1     -18.455   6.730  46.777  0.00  0.00    -0.514 OA
ATOM     15  N3  <0> A   1     -17.254   5.883  48.443  0.00  0.00    -0.718 N 
ATOM     16  H22 <0> A   1     -16.389   5.786  48.871  0.00  0.00    +0.408 HD
BRANCH  15  17
ATOM     17  C20 <0> A   1     -18.434   5.240  49.026  0.00  0.00    +0.273 C 
BRANCH  17  18
ATOM     18  C21 <0> A   1     -18.553   5.630  50.500  0.00  0.00    +0.070 C 
BRANCH  18  19
ATOM     19  C22 <0> A   1     -19.138   7.014  50.609  0.00  0.00    -0.083 A 
ATOM     20  C23 <0> A   1     -18.346   8.068  51.025  0.00  0.00    +0.009 A 
ATOM     21  C24 <0> A   1     -18.882   9.338  51.125  0.00  0.00    +0.004 A 
ATOM     22  C25 <0> A   1     -20.211   9.555  50.808  0.00  0.00    -0.000 A 
ATOM     23  C26 <0> A   1     -21.003   8.501  50.391  0.00  0.00    +0.004 A 
ATOM     24  C27 <0> A   1     -20.464   7.232  50.287  0.00  0.00    +0.009 A 
ENDBRANCH  18  19
ENDBRANCH  17  18
ENDBRANCH  15  17
ENDBRANCH   2  13
BRANCH   1  26
ATOM     25  C1  <0> A   1     -15.626   5.318  43.762  0.00  0.00    +0.029 C 
ATOM     26  C2  <0> A   1     -15.362   5.263  45.267  0.00  0.00    +0.077 C 
ATOM     27  C3  <0> A   1     -14.041   4.536  45.527  0.00  0.00    +0.021 C 
ENDBRANCH   1  26
BRANCH   5  28
ATOM     28  O1  <0> A   1     -13.272   7.400  44.683  0.00  0.00    -0.282 OA
BRANCH  28  29
ATOM     29  C7  <0> A   1     -13.399   7.924  43.360  0.00  0.00    +0.155 C 
BRANCH  29  30
ATOM     30  C8  <0> A   1     -12.235   7.425  42.501  0.00  0.00    +0.232 C 
BRANCH  30  31
ATOM     31  O5  <0> A   1     -12.266   5.998  42.439  0.00  0.00    -0.529 OA
ATOM     32  H17 <0> A   1     -11.436   5.575  42.698  0.00  0.00    +0.363 HD
ENDBRANCH  30  31
BRANCH  30  33
ATOM     33  C9  <0> A   1     -12.361   8.000  41.089  0.00  0.00    -0.040 C 
BRANCH  33  34
ATOM     34  C10 <0> A   1     -12.909   9.426  41.166  0.00  0.00    +0.237 C 
BRANCH  34  35
ATOM     35  O4  <0> A   1     -11.821  10.350  41.260  0.00  0.00    -0.526 OA
ATOM     36  H16 <0> A   1     -11.330  10.296  42.091  0.00  0.00    +0.350 HD
ENDBRANCH  34  35
BRANCH  34  37
ATOM     37  C11 <0> A   1     -13.725   9.729  39.908  0.00  0.00    -0.101 C 
BRANCH  37  38
ATOM     38  C12 <0> A   1     -13.720  11.213  39.650  0.00  0.00    +0.491 C 
ATOM     39  O2  <0> A   1     -12.941  11.690  38.842  0.00  0.00    -0.680 OA
ATOM     40  O3  <0> A   1     -14.496  11.939  40.249  0.00  0.00    -0.712 OA
ENDBRANCH  37  38
ENDBRANCH  34  37
ENDBRANCH  33  34
ENDBRANCH  30  33
ENDBRANCH  29  30
ENDBRANCH  28  29
ENDBRANCH   5  28
TORSDOF 15
