MODEL 1
REMARK VINA RESULT:      -8.3      0.000      0.000
REMARK  Name = CHEMBL350895
REMARK  8 active torsions:
REMARK  status: ('A' for Active; 'I' for Inactive)
REMARK    1  A    between atoms: C1_1  and  C2_2
REMARK    2  A    between atoms: C2_2  and  C3_3
REMARK    3  A    between atoms: C4_4  and  C20_22
REMARK    4  A    between atoms: C5_5  and  C14_15
REMARK    5  A    between atoms: C7_7  and  C8_9
REMARK    6  A    between atoms: C20_22  and  C21_23
REMARK    7  A    between atoms: C21_23  and  C22_24
REMARK    8  A    between atoms: C24_26  and  O3_32
REMARK                            x       y       z     vdW  Elec       q    Type
REMARK                         _______ _______ _______ _____ _____    ______ ____
ROOT
ATOM      1  C3  <0> A   1     -15.002   6.767  45.705  0.00  0.00    +0.150 A 
ATOM      2  C4  <0> A   1     -14.522   8.023  46.015  0.00  0.00    -0.120 A 
ATOM      3  C5  <0> A   1     -15.131   8.753  47.041  0.00  0.00    +0.004 A 
ATOM      4  C6  <0> A   1     -16.210   8.175  47.713  0.00  0.00    -0.015 A 
ATOM      5  C7  <0> A   1     -16.632   6.904  47.339  0.00  0.00    +0.174 A 
ATOM      6  N1  <0> A   1     -16.026   6.251  46.355  0.00  0.00    -0.472 NA
ENDROOT
BRANCH   3   7
ATOM      7  C14 <0> A   1     -14.644  10.106  47.405  0.00  0.00    -0.061 A 
ATOM      8  C15 <0> A   1     -13.473  10.250  48.146  0.00  0.00    +0.065 A 
ATOM      9  C16 <0> A   1     -13.024  11.511  48.483  0.00  0.00    -0.010 A 
ATOM     10  C17 <0> A   1     -13.735  12.632  48.085  0.00  0.00    +0.107 A 
ATOM     11  C18 <0> A   1     -14.899  12.493  47.348  0.00  0.00    -0.011 A 
ATOM     12  C19 <0> A   1     -15.353  11.236  47.002  0.00  0.00    +0.062 A 
ATOM     13  F1  <0> A   1     -13.292  13.863  48.419  0.00  0.00    -0.136 F 
ENDBRANCH   3   7
BRANCH   5  14
ATOM     14  C8  <0> A   1     -17.777   6.275  48.042  0.00  0.00    -0.051 A 
ATOM     15  C9  <0> A   1     -17.567   5.185  48.885  0.00  0.00    +0.024 A 
ATOM     16  C10 <0> A   1     -18.635   4.603  49.536  0.00  0.00    +0.003 A 
ATOM     17  C11 <0> A   1     -19.914   5.098  49.352  0.00  0.00    +0.016 A 
ATOM     18  C12 <0> A   1     -20.129   6.179  48.516  0.00  0.00    +0.001 A 
ATOM     19  C13 <0> A   1     -19.067   6.772  47.865  0.00  0.00    +0.056 A 
ENDBRANCH   5  14
BRANCH   1  21
ATOM     20  C1  <0> A   1     -15.381   5.675  43.511  0.00  0.00    +0.034 C 
ATOM     21  C2  <0> A   1     -14.350   5.975  44.601  0.00  0.00    +0.090 C 
ENDBRANCH   1  21
BRANCH   2  22
ATOM     22  C20 <0> A   1     -13.354   8.601  45.259  0.00  0.00    +0.086 C 
BRANCH  22  23
ATOM     23  C21 <0> A   1     -13.861   9.633  44.249  0.00  0.00    +0.059 C 
BRANCH  23  24
ATOM     24  C22 <0> A   1     -13.079   9.491  42.941  0.00  0.00    +0.198 C 
ATOM     25  C23 <0> A   1     -13.686  10.415  41.881  0.00  0.00    +0.040 C 
ATOM     26  C24 <0> A   1     -12.928  10.241  40.561  0.00  0.00    +0.184 C 
ATOM     27  C25 <0> A   1     -13.036   8.778  40.116  0.00  0.00    +0.021 C 
ATOM     28  C26 <0> A   1     -12.611   7.896  41.271  0.00  0.00    +0.496 C 
ATOM     29  O1  <0> A   1     -11.813   7.005  41.111  0.00  0.00    -0.452 OA
ATOM     30  O2  <0> A   1     -13.151   8.136  42.484  0.00  0.00    -0.366 OA
BRANCH  26  31
ATOM     31  O3  <0> A   1     -11.554  10.585  40.750  0.00  0.00    -0.563 OA
ATOM     32  H26 <0> A   1     -11.234  11.272  40.149  0.00  0.00    +0.387 HD
ENDBRANCH  26  31
ENDBRANCH  23  24
ENDBRANCH  22  23
ENDBRANCH   2  22
TORSDOF 7
ENDMDL
MODEL 2
REMARK VINA RESULT:      -8.2     14.567     17.762
REMARK  Name = CHEMBL350895
REMARK  8 active torsions:
REMARK  status: ('A' for Active; 'I' for Inactive)
REMARK    1  A    between atoms: C1_1  and  C2_2
REMARK    2  A    between atoms: C2_2  and  C3_3
REMARK    3  A    between atoms: C4_4  and  C20_22
REMARK    4  A    between atoms: C5_5  and  C14_15
REMARK    5  A    between atoms: C7_7  and  C8_9
REMARK    6  A    between atoms: C20_22  and  C21_23
REMARK    7  A    between atoms: C21_23  and  C22_24
REMARK    8  A    between atoms: C24_26  and  O3_32
REMARK                            x       y       z     vdW  Elec       q    Type
REMARK                         _______ _______ _______ _____ _____    ______ ____
ROOT
ATOM      1  C3  <0> A   1     -27.241  -5.030  52.125  0.00  0.00    +0.150 A 
ATOM      2  C4  <0> A   1     -26.689  -3.766  52.140  0.00  0.00    -0.120 A 
ATOM      3  C5  <0> A   1     -25.376  -3.589  51.690  0.00  0.00    +0.004 A 
ATOM      4  C6  <0> A   1     -24.674  -4.709  51.241  0.00  0.00    -0.015 A 
ATOM      5  C7  <0> A   1     -25.304  -5.948  51.259  0.00  0.00    +0.174 A 
ATOM      6  N1  <0> A   1     -26.549  -6.069  51.700  0.00  0.00    -0.472 NA
ENDROOT
BRANCH   3   7
ATOM      7  C14 <0> A   1     -24.747  -2.245  51.690  0.00  0.00    -0.061 A 
ATOM      8  C15 <0> A   1     -24.243  -1.710  52.874  0.00  0.00    +0.065 A 
ATOM      9  C16 <0> A   1     -23.659  -0.460  52.869  0.00  0.00    -0.010 A 
ATOM     10  C17 <0> A   1     -23.573   0.263  51.690  0.00  0.00    +0.107 A 
ATOM     11  C18 <0> A   1     -24.073  -0.265  50.511  0.00  0.00    -0.011 A 
ATOM     12  C19 <0> A   1     -24.653  -1.517  50.505  0.00  0.00    +0.062 A 
ATOM     13  F1  <0> A   1     -23.002   1.487  51.690  0.00  0.00    -0.136 F 
ENDBRANCH   3   7
BRANCH   5  14
ATOM     14  C8  <0> A   1     -24.573  -7.150  50.785  0.00  0.00    -0.051 A 
ATOM     15  C9  <0> A   1     -24.434  -7.391  49.420  0.00  0.00    +0.024 A 
ATOM     16  C10 <0> A   1     -23.753  -8.510  48.985  0.00  0.00    +0.003 A 
ATOM     17  C11 <0> A   1     -23.211  -9.393  49.902  0.00  0.00    +0.016 A 
ATOM     18  C12 <0> A   1     -23.347  -9.159  51.258  0.00  0.00    +0.001 A 
ATOM     19  C13 <0> A   1     -24.020  -8.039  51.704  0.00  0.00    +0.056 A 
ENDBRANCH   5  14
BRANCH   1  21
ATOM     20  C1  <0> A   1     -28.679  -6.319  53.682  0.00  0.00    +0.034 C 
ATOM     21  C2  <0> A   1     -28.654  -5.228  52.610  0.00  0.00    +0.090 C 
ENDBRANCH   1  21
BRANCH   2  22
ATOM     22  C20 <0> A   1     -27.490  -2.589  52.635  0.00  0.00    +0.086 C 
BRANCH  22  23
ATOM     23  C21 <0> A   1     -28.083  -1.838  51.441  0.00  0.00    +0.059 C 
BRANCH  23  24
ATOM     24  C22 <0> A   1     -28.134  -0.341  51.755  0.00  0.00    +0.198 C 
ATOM     25  C23 <0> A   1     -27.714   0.455  50.516  0.00  0.00    +0.040 C 
ATOM     26  C24 <0> A   1     -27.727   1.951  50.845  0.00  0.00    +0.184 C 
ATOM     27  C25 <0> A   1     -26.752   2.212  52.000  0.00  0.00    +0.021 C 
ATOM     28  C26 <0> A   1     -27.085   1.260  53.129  0.00  0.00    +0.496 C 
ATOM     29  O1  <0> A   1     -27.211   1.659  54.261  0.00  0.00    -0.452 OA
ATOM     30  O2  <0> A   1     -27.237  -0.048  52.831  0.00  0.00    -0.366 OA
BRANCH  26  31
ATOM     31  O3  <0> A   1     -29.045   2.345  51.231  0.00  0.00    -0.563 OA
ATOM     32  H26 <0> A   1     -29.280   3.245  50.966  0.00  0.00    +0.387 HD
ENDBRANCH  26  31
ENDBRANCH  23  24
ENDBRANCH  22  23
ENDBRANCH   2  22
TORSDOF 7
ENDMDL
MODEL 3
REMARK VINA RESULT:      -8.2     14.413     17.379
REMARK  Name = CHEMBL350895
REMARK  8 active torsions:
REMARK  status: ('A' for Active; 'I' for Inactive)
REMARK    1  A    between atoms: C1_1  and  C2_2
REMARK    2  A    between atoms: C2_2  and  C3_3
REMARK    3  A    between atoms: C4_4  and  C20_22
REMARK    4  A    between atoms: C5_5  and  C14_15
REMARK    5  A    between atoms: C7_7  and  C8_9
REMARK    6  A    between atoms: C20_22  and  C21_23
REMARK    7  A    between atoms: C21_23  and  C22_24
REMARK    8  A    between atoms: C24_26  and  O3_32
REMARK                            x       y       z     vdW  Elec       q    Type
REMARK                         _______ _______ _______ _____ _____    ______ ____
ROOT
ATOM      1  C3  <0> A   1     -27.393  -4.291  50.151  0.00  0.00    +0.150 A 
ATOM      2  C4  <0> A   1     -26.817  -3.089  50.509  0.00  0.00    -0.120 A 
ATOM      3  C5  <0> A   1     -25.488  -3.073  50.945  0.00  0.00    +0.004 A 
ATOM      4  C6  <0> A   1     -24.795  -4.283  51.001  0.00  0.00    -0.015 A 
ATOM      5  C7  <0> A   1     -25.449  -5.450  50.621  0.00  0.00    +0.174 A 
ATOM      6  N1  <0> A   1     -26.713  -5.418  50.219  0.00  0.00    -0.472 NA
ENDROOT
BRANCH   3   7
ATOM      7  C14 <0> A   1     -24.833  -1.801  51.340  0.00  0.00    -0.061 A 
ATOM      8  C15 <0> A   1     -24.489  -1.577  52.671  0.00  0.00    +0.065 A 
ATOM      9  C16 <0> A   1     -23.880  -0.392  53.034  0.00  0.00    -0.010 A 
ATOM     10  C17 <0> A   1     -23.611   0.573  52.076  0.00  0.00    +0.107 A 
ATOM     11  C18 <0> A   1     -23.952   0.353  50.751  0.00  0.00    -0.011 A 
ATOM     12  C19 <0> A   1     -24.555  -0.831  50.379  0.00  0.00    +0.062 A 
ATOM     13  F1  <0> A   1     -23.017   1.731  52.436  0.00  0.00    -0.136 F 
ENDBRANCH   3   7
BRANCH   5  14
ATOM     14  C8  <0> A   1     -24.727  -6.745  50.673  0.00  0.00    -0.051 A 
ATOM     15  C9  <0> A   1     -24.428  -7.427  49.495  0.00  0.00    +0.024 A 
ATOM     16  C10 <0> A   1     -23.758  -8.632  49.549  0.00  0.00    +0.003 A 
ATOM     17  C11 <0> A   1     -23.383  -9.164  50.770  0.00  0.00    +0.016 A 
ATOM     18  C12 <0> A   1     -23.678  -8.492  51.942  0.00  0.00    +0.001 A 
ATOM     19  C13 <0> A   1     -24.343  -7.283  51.899  0.00  0.00    +0.056 A 
ENDBRANCH   5  14
BRANCH   1  21
ATOM     20  C1  <0> A   1     -28.859  -4.400  48.152  0.00  0.00    +0.034 C 
ATOM     21  C2  <0> A   1     -28.825  -4.316  49.680  0.00  0.00    +0.090 C 
ENDBRANCH   1  21
BRANCH   2  22
ATOM     22  C20 <0> A   1     -27.610  -1.810  50.432  0.00  0.00    +0.086 C 
BRANCH  22  23
ATOM     23  C21 <0> A   1     -28.256  -1.527  51.790  0.00  0.00    +0.059 C 
BRANCH  23  24
ATOM     24  C22 <0> A   1     -28.242  -0.020  52.057  0.00  0.00    +0.198 C 
ATOM     25  C23 <0> A   1     -27.851   0.721  50.776  0.00  0.00    +0.040 C 
ATOM     26  C24 <0> A   1     -27.797   2.226  51.057  0.00  0.00    +0.184 C 
ATOM     27  C25 <0> A   1     -26.763   2.488  52.159  0.00  0.00    +0.021 C 
ATOM     28  C26 <0> A   1     -27.079   1.584  53.331  0.00  0.00    +0.496 C 
ATOM     29  O1  <0> A   1     -27.141   2.022  54.455  0.00  0.00    -0.452 OA
ATOM     30  O2  <0> A   1     -27.289   0.274  53.084  0.00  0.00    -0.366 OA
BRANCH  26  31
ATOM     31  O3  <0> A   1     -29.082   2.679  51.486  0.00  0.00    -0.563 OA
ATOM     32  H26 <0> A   1     -29.801   2.059  51.300  0.00  0.00    +0.387 HD
ENDBRANCH  26  31
ENDBRANCH  23  24
ENDBRANCH  22  23
ENDBRANCH   2  22
TORSDOF 7
ENDMDL
MODEL 4
REMARK VINA RESULT:      -8.2     16.233     19.955
REMARK  Name = CHEMBL350895
REMARK  8 active torsions:
REMARK  status: ('A' for Active; 'I' for Inactive)
REMARK    1  A    between atoms: C1_1  and  C2_2
REMARK    2  A    between atoms: C2_2  and  C3_3
REMARK    3  A    between atoms: C4_4  and  C20_22
REMARK    4  A    between atoms: C5_5  and  C14_15
REMARK    5  A    between atoms: C7_7  and  C8_9
REMARK    6  A    between atoms: C20_22  and  C21_23
REMARK    7  A    between atoms: C21_23  and  C22_24
REMARK    8  A    between atoms: C24_26  and  O3_32
REMARK                            x       y       z     vdW  Elec       q    Type
REMARK                         _______ _______ _______ _____ _____    ______ ____
ROOT
ATOM      1  C3  <0> A   1     -25.326  -3.339  51.564  0.00  0.00    +0.150 A 
ATOM      2  C4  <0> A   1     -26.042  -4.499  51.779  0.00  0.00    -0.120 A 
ATOM      3  C5  <0> A   1     -27.437  -4.437  51.857  0.00  0.00    +0.004 A 
ATOM      4  C6  <0> A   1     -28.052  -3.192  51.714  0.00  0.00    -0.015 A 
ATOM      5  C7  <0> A   1     -27.259  -2.071  51.499  0.00  0.00    +0.174 A 
ATOM      6  N1  <0> A   1     -25.937  -2.178  51.438  0.00  0.00    -0.472 NA
ENDROOT
BRANCH   3   7
ATOM      7  C14 <0> A   1     -28.242  -5.662  52.086  0.00  0.00    -0.061 A 
ATOM      8  C15 <0> A   1     -28.606  -6.026  53.381  0.00  0.00    +0.065 A 
ATOM      9  C16 <0> A   1     -29.354  -7.166  53.590  0.00  0.00    -0.010 A 
ATOM     10  C17 <0> A   1     -29.743  -7.949  52.514  0.00  0.00    +0.107 A 
ATOM     11  C18 <0> A   1     -29.383  -7.591  51.225  0.00  0.00    -0.011 A 
ATOM     12  C19 <0> A   1     -28.640  -6.449  51.007  0.00  0.00    +0.062 A 
ATOM     13  F1  <0> A   1     -30.473  -9.066  52.724  0.00  0.00    -0.136 F 
ENDBRANCH   3   7
BRANCH   5  14
ATOM     14  C8  <0> A   1     -27.895  -0.739  51.345  0.00  0.00    -0.051 A 
ATOM     15  C9  <0> A   1     -29.125  -0.478  51.946  0.00  0.00    +0.024 A 
ATOM     16  C10 <0> A   1     -29.713   0.762  51.799  0.00  0.00    +0.003 A 
ATOM     17  C11 <0> A   1     -29.085   1.744  51.054  0.00  0.00    +0.016 A 
ATOM     18  C12 <0> A   1     -27.865   1.490  50.454  0.00  0.00    +0.001 A 
ATOM     19  C13 <0> A   1     -27.265   0.256  50.600  0.00  0.00    +0.056 A 
ENDBRANCH   5  14
BRANCH   1  21
ATOM     20  C1  <0> A   1     -23.301  -2.149  50.769  0.00  0.00    +0.034 C 
ATOM     21  C2  <0> A   1     -23.823  -3.399  51.480  0.00  0.00    +0.090 C 
ENDBRANCH   1  21
BRANCH   2  22
ATOM     22  C20 <0> A   1     -25.329  -5.818  51.927  0.00  0.00    +0.086 C 
BRANCH  22  23
ATOM     23  C21 <0> A   1     -25.036  -6.398  50.541  0.00  0.00    +0.059 C 
BRANCH  23  24
ATOM     24  C22 <0> A   1     -24.241  -7.697  50.689  0.00  0.00    +0.198 C 
ATOM     25  C23 <0> A   1     -25.153  -8.891  50.393  0.00  0.00    +0.040 C 
ATOM     26  C24 <0> A   1     -24.366 -10.191  50.582  0.00  0.00    +0.184 C 
ATOM     27  C25 <0> A   1     -23.858 -10.257  52.028  0.00  0.00    +0.021 C 
ATOM     28  C26 <0> A   1     -23.130  -8.965  52.335  0.00  0.00    +0.496 C 
ATOM     29  O1  <0> A   1     -22.034  -8.975  52.842  0.00  0.00    -0.452 OA
ATOM     30  O2  <0> A   1     -23.744  -7.803  52.028  0.00  0.00    -0.366 OA
BRANCH  26  31
ATOM     31  O3  <0> A   1     -23.257 -10.215  49.682  0.00  0.00    -0.563 OA
ATOM     32  H26 <0> A   1     -23.464 -10.584  48.812  0.00  0.00    +0.387 HD
ENDBRANCH  26  31
ENDBRANCH  23  24
ENDBRANCH  22  23
ENDBRANCH   2  22
TORSDOF 7
ENDMDL
MODEL 5
REMARK VINA RESULT:      -8.2     15.187     18.796
REMARK  Name = CHEMBL350895
REMARK  8 active torsions:
REMARK  status: ('A' for Active; 'I' for Inactive)
REMARK    1  A    between atoms: C1_1  and  C2_2
REMARK    2  A    between atoms: C2_2  and  C3_3
REMARK    3  A    between atoms: C4_4  and  C20_22
REMARK    4  A    between atoms: C5_5  and  C14_15
REMARK    5  A    between atoms: C7_7  and  C8_9
REMARK    6  A    between atoms: C20_22  and  C21_23
REMARK    7  A    between atoms: C21_23  and  C22_24
REMARK    8  A    between atoms: C24_26  and  O3_32
REMARK                            x       y       z     vdW  Elec       q    Type
REMARK                         _______ _______ _______ _____ _____    ______ ____
ROOT
ATOM      1  C3  <0> A   1     -27.611  -5.511  52.358  0.00  0.00    +0.150 A 
ATOM      2  C4  <0> A   1     -27.301  -4.174  52.217  0.00  0.00    -0.120 A 
ATOM      3  C5  <0> A   1     -26.105  -3.813  51.587  0.00  0.00    +0.004 A 
ATOM      4  C6  <0> A   1     -25.268  -4.831  51.126  0.00  0.00    -0.015 A 
ATOM      5  C7  <0> A   1     -25.654  -6.154  51.308  0.00  0.00    +0.174 A 
ATOM      6  N1  <0> A   1     -26.796  -6.448  51.916  0.00  0.00    -0.472 NA
ENDROOT
BRANCH   3   7
ATOM      7  C14 <0> A   1     -25.736  -2.386  51.415  0.00  0.00    -0.061 A 
ATOM      8  C15 <0> A   1     -25.100  -1.700  52.448  0.00  0.00    +0.065 A 
ATOM      9  C16 <0> A   1     -24.759  -0.373  52.283  0.00  0.00    -0.010 A 
ATOM     10  C17 <0> A   1     -25.047   0.276  51.094  0.00  0.00    +0.107 A 
ATOM     11  C18 <0> A   1     -25.679  -0.402  50.064  0.00  0.00    -0.011 A 
ATOM     12  C19 <0> A   1     -26.018  -1.731  50.218  0.00  0.00    +0.062 A 
ATOM     13  F1  <0> A   1     -24.713   1.576  50.938  0.00  0.00    -0.136 F 
ENDBRANCH   3   7
BRANCH   5  14
ATOM     14  C8  <0> A   1     -24.777  -7.248  50.824  0.00  0.00    -0.051 A 
ATOM     15  C9  <0> A   1     -24.578  -7.433  49.457  0.00  0.00    +0.024 A 
ATOM     16  C10 <0> A   1     -23.761  -8.452  49.012  0.00  0.00    +0.003 A 
ATOM     17  C11 <0> A   1     -23.142  -9.292  49.921  0.00  0.00    +0.016 A 
ATOM     18  C12 <0> A   1     -23.337  -9.114  51.279  0.00  0.00    +0.001 A 
ATOM     19  C13 <0> A   1     -24.146  -8.094  51.735  0.00  0.00    +0.056 A 
ENDBRANCH   5  14
BRANCH   1  21
ATOM     20  C1  <0> A   1     -29.201  -7.376  52.738  0.00  0.00    +0.034 C 
ATOM     21  C2  <0> A   1     -28.898  -5.906  53.036  0.00  0.00    +0.090 C 
ENDBRANCH   1  21
BRANCH   2  22
ATOM     22  C20 <0> A   1     -28.240  -3.114  52.732  0.00  0.00    +0.086 C 
BRANCH  22  23
ATOM     23  C21 <0> A   1     -29.247  -2.749  51.639  0.00  0.00    +0.059 C 
BRANCH  23  24
ATOM     24  C22 <0> A   1     -29.449  -1.232  51.618  0.00  0.00    +0.198 C 
ATOM     25  C23 <0> A   1     -28.597  -0.589  52.716  0.00  0.00    +0.040 C 
ATOM     26  C24 <0> A   1     -28.832   0.925  52.719  0.00  0.00    +0.184 C 
ATOM     27  C25 <0> A   1     -30.321   1.195  52.974  0.00  0.00    +0.021 C 
ATOM     28  C26 <0> A   1     -31.128   0.379  51.987  0.00  0.00    +0.496 C 
ATOM     29  O1  <0> A   1     -32.014   0.884  51.341  0.00  0.00    -0.452 OA
ATOM     30  O2  <0> A   1     -30.829  -0.930  51.852  0.00  0.00    -0.366 OA
BRANCH  26  31
ATOM     31  O3  <0> A   1     -28.455   1.471  51.454  0.00  0.00    -0.563 OA
ATOM     32  H26 <0> A   1     -28.042   0.832  50.856  0.00  0.00    +0.387 HD
ENDBRANCH  26  31
ENDBRANCH  23  24
ENDBRANCH  22  23
ENDBRANCH   2  22
TORSDOF 7
ENDMDL
MODEL 6
REMARK VINA RESULT:      -8.1     15.462     17.864
REMARK  Name = CHEMBL350895
REMARK  8 active torsions:
REMARK  status: ('A' for Active; 'I' for Inactive)
REMARK    1  A    between atoms: C1_1  and  C2_2
REMARK    2  A    between atoms: C2_2  and  C3_3
REMARK    3  A    between atoms: C4_4  and  C20_22
REMARK    4  A    between atoms: C5_5  and  C14_15
REMARK    5  A    between atoms: C7_7  and  C8_9
REMARK    6  A    between atoms: C20_22  and  C21_23
REMARK    7  A    between atoms: C21_23  and  C22_24
REMARK    8  A    between atoms: C24_26  and  O3_32
REMARK                            x       y       z     vdW  Elec       q    Type
REMARK                         _______ _______ _______ _____ _____    ______ ____
ROOT
ATOM      1  C3  <0> A   1     -28.076  -2.897  51.989  0.00  0.00    +0.150 A 
ATOM      2  C4  <0> A   1     -26.720  -3.151  51.960  0.00  0.00    -0.120 A 
ATOM      3  C5  <0> A   1     -25.825  -2.077  51.922  0.00  0.00    +0.004 A 
ATOM      4  C6  <0> A   1     -26.345  -0.782  51.913  0.00  0.00    -0.015 A 
ATOM      5  C7  <0> A   1     -27.725  -0.612  51.943  0.00  0.00    +0.174 A 
ATOM      6  N1  <0> A   1     -28.536  -1.661  51.974  0.00  0.00    -0.472 NA
ENDROOT
BRANCH   3   7
ATOM      7  C14 <0> A   1     -24.359  -2.310  51.892  0.00  0.00    -0.061 A 
ATOM      8  C15 <0> A   1     -23.615  -2.228  53.067  0.00  0.00    +0.065 A 
ATOM      9  C16 <0> A   1     -22.253  -2.444  53.034  0.00  0.00    -0.010 A 
ATOM     10  C17 <0> A   1     -21.625  -2.742  51.834  0.00  0.00    +0.107 A 
ATOM     11  C18 <0> A   1     -22.362  -2.824  50.664  0.00  0.00    -0.011 A 
ATOM     12  C19 <0> A   1     -23.726  -2.615  50.689  0.00  0.00    +0.062 A 
ATOM     13  F1  <0> A   1     -20.291  -2.951  51.807  0.00  0.00    -0.136 F 
ENDBRANCH   3   7
BRANCH   5  14
ATOM     14  C8  <0> A   1     -28.296   0.758  51.934  0.00  0.00    -0.051 A 
ATOM     15  C9  <0> A   1     -27.454   1.866  51.870  0.00  0.00    +0.024 A 
ATOM     16  C10 <0> A   1     -27.990   3.138  51.862  0.00  0.00    +0.003 A 
ATOM     17  C11 <0> A   1     -29.361   3.314  51.920  0.00  0.00    +0.016 A 
ATOM     18  C12 <0> A   1     -30.202   2.217  51.984  0.00  0.00    +0.001 A 
ATOM     19  C13 <0> A   1     -29.676   0.941  51.986  0.00  0.00    +0.056 A 
ENDBRANCH   5  14
BRANCH   1  21
ATOM     20  C1  <0> A   1     -29.866  -4.073  50.738  0.00  0.00    +0.034 C 
ATOM     21  C2  <0> A   1     -29.047  -4.049  52.030  0.00  0.00    +0.090 C 
ENDBRANCH   1  21
BRANCH   2  22
ATOM     22  C20 <0> A   1     -26.210  -4.569  51.972  0.00  0.00    +0.086 C 
BRANCH  22  23
ATOM     23  C21 <0> A   1     -26.247  -5.136  50.551  0.00  0.00    +0.059 C 
BRANCH  23  24
ATOM     24  C22 <0> A   1     -25.141  -6.181  50.391  0.00  0.00    +0.198 C 
ATOM     25  C23 <0> A   1     -25.569  -7.223  49.353  0.00  0.00    +0.040 C 
ATOM     26  C24 <0> A   1     -24.477  -8.290  49.225  0.00  0.00    +0.184 C 
ATOM     27  C25 <0> A   1     -24.270  -8.954  50.592  0.00  0.00    +0.021 C 
ATOM     28  C26 <0> A   1     -24.046  -7.866  51.620  0.00  0.00    +0.496 C 
ATOM     29  O1  <0> A   1     -23.122  -7.925  52.395  0.00  0.00    -0.452 OA
ATOM     30  O2  <0> A   1     -24.910  -6.830  51.646  0.00  0.00    -0.366 OA
BRANCH  26  31
ATOM     31  O3  <0> A   1     -23.259  -7.679  48.798  0.00  0.00    -0.563 OA
ATOM     32  H26 <0> A   1     -23.367  -7.046  48.075  0.00  0.00    +0.387 HD
ENDBRANCH  26  31
ENDBRANCH  23  24
ENDBRANCH  22  23
ENDBRANCH   2  22
TORSDOF 7
ENDMDL
MODEL 7
REMARK VINA RESULT:      -8.1     11.370     16.052
REMARK  Name = CHEMBL350895
REMARK  8 active torsions:
REMARK  status: ('A' for Active; 'I' for Inactive)
REMARK    1  A    between atoms: C1_1  and  C2_2
REMARK    2  A    between atoms: C2_2  and  C3_3
REMARK    3  A    between atoms: C4_4  and  C20_22
REMARK    4  A    between atoms: C5_5  and  C14_15
REMARK    5  A    between atoms: C7_7  and  C8_9
REMARK    6  A    between atoms: C20_22  and  C21_23
REMARK    7  A    between atoms: C21_23  and  C22_24
REMARK    8  A    between atoms: C24_26  and  O3_32
REMARK                            x       y       z     vdW  Elec       q    Type
REMARK                         _______ _______ _______ _____ _____    ______ ____
ROOT
ATOM      1  C3  <0> A   1     -24.281  -0.309  50.942  0.00  0.00    +0.150 A 
ATOM      2  C4  <0> A   1     -23.613  -1.198  51.759  0.00  0.00    -0.120 A 
ATOM      3  C5  <0> A   1     -22.454  -0.779  52.421  0.00  0.00    +0.004 A 
ATOM      4  C6  <0> A   1     -22.018   0.532  52.225  0.00  0.00    -0.015 A 
ATOM      5  C7  <0> A   1     -22.749   1.365  51.386  0.00  0.00    +0.174 A 
ATOM      6  N1  <0> A   1     -23.840   0.922  50.774  0.00  0.00    -0.472 NA
ENDROOT
BRANCH   3   7
ATOM      7  C14 <0> A   1     -21.707  -1.706  53.308  0.00  0.00    -0.061 A 
ATOM      8  C15 <0> A   1     -22.017  -1.775  54.665  0.00  0.00    +0.065 A 
ATOM      9  C16 <0> A   1     -21.320  -2.637  55.486  0.00  0.00    -0.010 A 
ATOM     10  C17 <0> A   1     -20.313  -3.433  54.963  0.00  0.00    +0.107 A 
ATOM     11  C18 <0> A   1     -20.002  -3.368  53.615  0.00  0.00    -0.011 A 
ATOM     12  C19 <0> A   1     -20.699  -2.512  52.785  0.00  0.00    +0.062 A 
ATOM     13  F1  <0> A   1     -19.633  -4.274  55.771  0.00  0.00    -0.136 F 
ENDBRANCH   3   7
BRANCH   5  14
ATOM     14  C8  <0> A   1     -22.300   2.763  51.166  0.00  0.00    -0.051 A 
ATOM     15  C9  <0> A   1     -21.529   3.083  50.050  0.00  0.00    +0.024 A 
ATOM     16  C10 <0> A   1     -21.115   4.383  49.850  0.00  0.00    +0.003 A 
ATOM     17  C11 <0> A   1     -21.461   5.369  50.756  0.00  0.00    +0.016 A 
ATOM     18  C12 <0> A   1     -22.226   5.058  51.866  0.00  0.00    +0.001 A 
ATOM     19  C13 <0> A   1     -22.651   3.761  52.072  0.00  0.00    +0.056 A 
ENDBRANCH   5  14
BRANCH   1  21
ATOM     20  C1  <0> A   1     -26.612   0.318  50.374  0.00  0.00    +0.034 C 
ATOM     21  C2  <0> A   1     -25.530  -0.754  50.226  0.00  0.00    +0.090 C 
ENDBRANCH   1  21
BRANCH   2  22
ATOM     22  C20 <0> A   1     -24.126  -2.604  51.936  0.00  0.00    +0.086 C 
BRANCH  22  23
ATOM     23  C21 <0> A   1     -23.487  -3.516  50.887  0.00  0.00    +0.059 C 
BRANCH  23  24
ATOM     24  C22 <0> A   1     -24.361  -4.756  50.690  0.00  0.00    +0.198 C 
ATOM     25  C23 <0> A   1     -25.838  -4.351  50.727  0.00  0.00    +0.040 C 
ATOM     26  C24 <0> A   1     -26.711  -5.600  50.570  0.00  0.00    +0.184 C 
ATOM     27  C25 <0> A   1     -26.397  -6.571  51.715  0.00  0.00    +0.021 C 
ATOM     28  C26 <0> A   1     -24.899  -6.785  51.761  0.00  0.00    +0.496 C 
ATOM     29  O1  <0> A   1     -24.432  -7.897  51.816  0.00  0.00    -0.452 OA
ATOM     30  O2  <0> A   1     -24.102  -5.696  51.738  0.00  0.00    -0.366 OA
BRANCH  26  31
ATOM     31  O3  <0> A   1     -26.429  -6.227  49.318  0.00  0.00    -0.563 OA
ATOM     32  H26 <0> A   1     -27.103  -6.075  48.641  0.00  0.00    +0.387 HD
ENDBRANCH  26  31
ENDBRANCH  23  24
ENDBRANCH  22  23
ENDBRANCH   2  22
TORSDOF 7
ENDMDL
MODEL 8
REMARK VINA RESULT:      -8.0      1.579      1.989
REMARK  Name = CHEMBL350895
REMARK  8 active torsions:
REMARK  status: ('A' for Active; 'I' for Inactive)
REMARK    1  A    between atoms: C1_1  and  C2_2
REMARK    2  A    between atoms: C2_2  and  C3_3
REMARK    3  A    between atoms: C4_4  and  C20_22
REMARK    4  A    between atoms: C5_5  and  C14_15
REMARK    5  A    between atoms: C7_7  and  C8_9
REMARK    6  A    between atoms: C20_22  and  C21_23
REMARK    7  A    between atoms: C21_23  and  C22_24
REMARK    8  A    between atoms: C24_26  and  O3_32
REMARK                            x       y       z     vdW  Elec       q    Type
REMARK                         _______ _______ _______ _____ _____    ______ ____
ROOT
ATOM      1  C3  <0> A   1     -15.157   6.425  45.654  0.00  0.00    +0.150 A 
ATOM      2  C4  <0> A   1     -14.399   7.569  45.507  0.00  0.00    -0.120 A 
ATOM      3  C5  <0> A   1     -14.688   8.686  46.297  0.00  0.00    +0.004 A 
ATOM      4  C6  <0> A   1     -15.741   8.597  47.209  0.00  0.00    -0.015 A 
ATOM      5  C7  <0> A   1     -16.456   7.408  47.296  0.00  0.00    +0.174 A 
ATOM      6  N1  <0> A   1     -16.149   6.375  46.522  0.00  0.00    -0.472 NA
ENDROOT
BRANCH   3   7
ATOM      7  C14 <0> A   1     -13.896   9.935  46.168  0.00  0.00    -0.061 A 
ATOM      8  C15 <0> A   1     -14.426  11.032  45.492  0.00  0.00    +0.065 A 
ATOM      9  C16 <0> A   1     -13.686  12.190  45.374  0.00  0.00    -0.010 A 
ATOM     10  C17 <0> A   1     -12.417  12.263  45.927  0.00  0.00    +0.107 A 
ATOM     11  C18 <0> A   1     -11.886  11.175  46.600  0.00  0.00    -0.011 A 
ATOM     12  C19 <0> A   1     -12.622  10.014  46.727  0.00  0.00    +0.062 A 
ATOM     13  F1  <0> A   1     -11.696  13.398  45.808  0.00  0.00    -0.136 F 
ENDBRANCH   3   7
BRANCH   5  14
ATOM     14  C8  <0> A   1     -17.578   7.295  48.260  0.00  0.00    -0.051 A 
ATOM     15  C9  <0> A   1     -18.785   6.720  47.864  0.00  0.00    +0.024 A 
ATOM     16  C10 <0> A   1     -19.826   6.618  48.764  0.00  0.00    +0.003 A 
ATOM     17  C11 <0> A   1     -19.674   7.086  50.057  0.00  0.00    +0.016 A 
ATOM     18  C12 <0> A   1     -18.479   7.657  50.455  0.00  0.00    +0.001 A 
ATOM     19  C13 <0> A   1     -17.429   7.759  49.565  0.00  0.00    +0.056 A 
ENDBRANCH   5  14
BRANCH   1  21
ATOM     20  C1  <0> A   1     -16.157   4.614  44.287  0.00  0.00    +0.034 C 
ATOM     21  C2  <0> A   1     -14.851   5.218  44.806  0.00  0.00    +0.090 C 
ENDBRANCH   1  21
BRANCH   2  22
ATOM     22  C20 <0> A   1     -13.272   7.613  44.507  0.00  0.00    +0.086 C 
BRANCH  22  23
ATOM     23  C21 <0> A   1     -13.829   7.380  43.101  0.00  0.00    +0.059 C 
BRANCH  23  24
ATOM     24  C22 <0> A   1     -13.134   8.321  42.115  0.00  0.00    +0.198 C 
ATOM     25  C23 <0> A   1     -13.618   9.755  42.351  0.00  0.00    +0.040 C 
ATOM     26  C24 <0> A   1     -12.951  10.689  41.336  0.00  0.00    +0.184 C 
ATOM     27  C25 <0> A   1     -13.322  10.229  39.921  0.00  0.00    +0.021 C 
ATOM     28  C26 <0> A   1     -13.007   8.753  39.802  0.00  0.00    +0.496 C 
ATOM     29  O1  <0> A   1     -12.377   8.326  38.865  0.00  0.00    -0.452 OA
ATOM     30  O2  <0> A   1     -13.451   7.930  40.775  0.00  0.00    -0.366 OA
BRANCH  26  31
ATOM     31  O3  <0> A   1     -11.533  10.641  41.501  0.00  0.00    -0.563 OA
ATOM     32  H26 <0> A   1     -11.046  10.488  40.679  0.00  0.00    +0.387 HD
ENDBRANCH  26  31
ENDBRANCH  23  24
ENDBRANCH  22  23
ENDBRANCH   2  22
TORSDOF 7
ENDMDL
MODEL 9
REMARK VINA RESULT:      -8.0     18.204     21.817
REMARK  Name = CHEMBL350895
REMARK  8 active torsions:
REMARK  status: ('A' for Active; 'I' for Inactive)
REMARK    1  A    between atoms: C1_1  and  C2_2
REMARK    2  A    between atoms: C2_2  and  C3_3
REMARK    3  A    between atoms: C4_4  and  C20_22
REMARK    4  A    between atoms: C5_5  and  C14_15
REMARK    5  A    between atoms: C7_7  and  C8_9
REMARK    6  A    between atoms: C20_22  and  C21_23
REMARK    7  A    between atoms: C21_23  and  C22_24
REMARK    8  A    between atoms: C24_26  and  O3_32
REMARK                            x       y       z     vdW  Elec       q    Type
REMARK                         _______ _______ _______ _____ _____    ______ ____
ROOT
ATOM      1  C3  <0> A   1     -30.060  -8.847  51.889  0.00  0.00    +0.150 A 
ATOM      2  C4  <0> A   1     -29.041  -8.015  51.475  0.00  0.00    -0.120 A 
ATOM      3  C5  <0> A   1     -28.674  -6.932  52.282  0.00  0.00    +0.004 A 
ATOM      4  C6  <0> A   1     -29.362  -6.737  53.481  0.00  0.00    -0.015 A 
ATOM      5  C7  <0> A   1     -30.377  -7.623  53.824  0.00  0.00    +0.174 A 
ATOM      6  N1  <0> A   1     -30.694  -8.633  53.025  0.00  0.00    -0.472 NA
ENDROOT
BRANCH   3   7
ATOM      7  C14 <0> A   1     -27.582  -6.014  51.872  0.00  0.00    -0.061 A 
ATOM      8  C15 <0> A   1     -27.859  -4.922  51.051  0.00  0.00    +0.065 A 
ATOM      9  C16 <0> A   1     -26.841  -4.072  50.672  0.00  0.00    -0.010 A 
ATOM     10  C17 <0> A   1     -25.546  -4.301  51.107  0.00  0.00    +0.107 A 
ATOM     11  C18 <0> A   1     -25.266  -5.385  51.924  0.00  0.00    -0.011 A 
ATOM     12  C19 <0> A   1     -26.280  -6.237  52.312  0.00  0.00    +0.062 A 
ATOM     13  F1  <0> A   1     -24.552  -3.467  50.733  0.00  0.00    -0.136 F 
ENDBRANCH   3   7
BRANCH   5  14
ATOM     14  C8  <0> A   1     -31.120  -7.431  55.095  0.00  0.00    -0.051 A 
ATOM     15  C9  <0> A   1     -31.396  -8.523  55.915  0.00  0.00    +0.024 A 
ATOM     16  C10 <0> A   1     -32.087  -8.340  57.095  0.00  0.00    +0.003 A 
ATOM     17  C11 <0> A   1     -32.506  -7.075  57.465  0.00  0.00    +0.016 A 
ATOM     18  C12 <0> A   1     -32.235  -5.987  56.655  0.00  0.00    +0.001 A 
ATOM     19  C13 <0> A   1     -31.539  -6.158  55.475  0.00  0.00    +0.056 A 
ENDBRANCH   5  14
BRANCH   1  21
ATOM     20  C1  <0> A   1     -30.331 -11.312  51.828  0.00  0.00    +0.034 C 
ATOM     21  C2  <0> A   1     -30.460 -10.016  51.025  0.00  0.00    +0.090 C 
ENDBRANCH   1  21
BRANCH   2  22
ATOM     22  C20 <0> A   1     -28.329  -8.269  50.172  0.00  0.00    +0.086 C 
BRANCH  22  23
ATOM     23  C21 <0> A   1     -27.290  -9.376  50.366  0.00  0.00    +0.059 C 
BRANCH  23  24
ATOM     24  C22 <0> A   1     -25.885  -8.781  50.247  0.00  0.00    +0.198 C 
ATOM     25  C23 <0> A   1     -25.349  -9.017  48.832  0.00  0.00    +0.040 C 
ATOM     26  C24 <0> A   1     -23.926  -8.457  48.729  0.00  0.00    +0.184 C 
ATOM     27  C25 <0> A   1     -23.038  -9.166  49.759  0.00  0.00    +0.021 C 
ATOM     28  C26 <0> A   1     -23.713  -9.075  51.111  0.00  0.00    +0.496 C 
ATOM     29  O1  <0> A   1     -23.102  -8.711  52.087  0.00  0.00    -0.452 OA
ATOM     30  O2  <0> A   1     -25.017  -9.414  51.194  0.00  0.00    -0.366 OA
BRANCH  26  31
ATOM     31  O3  <0> A   1     -23.944  -7.053  48.995  0.00  0.00    -0.563 OA
ATOM     32  H26 <0> A   1     -24.694  -6.763  49.532  0.00  0.00    +0.387 HD
ENDBRANCH  26  31
ENDBRANCH  23  24
ENDBRANCH  22  23
ENDBRANCH   2  22
TORSDOF 7
ENDMDL
MODEL 10
REMARK VINA RESULT:      -8.0     15.743     19.496
REMARK  Name = CHEMBL350895
REMARK  8 active torsions:
REMARK  status: ('A' for Active; 'I' for Inactive)
REMARK    1  A    between atoms: C1_1  and  C2_2
REMARK    2  A    between atoms: C2_2  and  C3_3
REMARK    3  A    between atoms: C4_4  and  C20_22
REMARK    4  A    between atoms: C5_5  and  C14_15
REMARK    5  A    between atoms: C7_7  and  C8_9
REMARK    6  A    between atoms: C20_22  and  C21_23
REMARK    7  A    between atoms: C21_23  and  C22_24
REMARK    8  A    between atoms: C24_26  and  O3_32
REMARK                            x       y       z     vdW  Elec       q    Type
REMARK                         _______ _______ _______ _____ _____    ______ ____
ROOT
ATOM      1  C3  <0> A   1     -27.173  -1.390  50.498  0.00  0.00    +0.150 A 
ATOM      2  C4  <0> A   1     -27.712  -2.613  50.843  0.00  0.00    -0.120 A 
ATOM      3  C5  <0> A   1     -28.914  -2.652  51.557  0.00  0.00    +0.004 A 
ATOM      4  C6  <0> A   1     -29.523  -1.442  51.894  0.00  0.00    -0.015 A 
ATOM      5  C7  <0> A   1     -28.915  -0.253  51.508  0.00  0.00    +0.174 A 
ATOM      6  N1  <0> A   1     -27.771  -0.265  50.836  0.00  0.00    -0.472 NA
ENDROOT
BRANCH   3   7
ATOM      7  C14 <0> A   1     -29.526  -3.947  51.946  0.00  0.00    -0.061 A 
ATOM      8  C15 <0> A   1     -30.381  -4.608  51.066  0.00  0.00    +0.065 A 
ATOM      9  C16 <0> A   1     -30.948  -5.811  51.432  0.00  0.00    -0.010 A 
ATOM     10  C17 <0> A   1     -30.668  -6.362  52.673  0.00  0.00    +0.107 A 
ATOM     11  C18 <0> A   1     -29.819  -5.709  53.550  0.00  0.00    -0.011 A 
ATOM     12  C19 <0> A   1     -29.243  -4.508  53.189  0.00  0.00    +0.062 A 
ATOM     13  F1  <0> A   1     -31.227  -7.539  53.027  0.00  0.00    -0.136 F 
ENDBRANCH   3   7
BRANCH   5  14
ATOM     14  C8  <0> A   1     -29.548   1.043  51.857  0.00  0.00    -0.051 A 
ATOM     15  C9  <0> A   1     -30.932   1.132  51.991  0.00  0.00    +0.024 A 
ATOM     16  C10 <0> A   1     -31.516   2.339  52.316  0.00  0.00    +0.003 A 
ATOM     17  C11 <0> A   1     -30.730   3.461  52.507  0.00  0.00    +0.016 A 
ATOM     18  C12 <0> A   1     -29.355   3.379  52.374  0.00  0.00    +0.001 A 
ATOM     19  C13 <0> A   1     -28.760   2.175  52.056  0.00  0.00    +0.056 A 
ENDBRANCH   5  14
BRANCH   1  21
ATOM     20  C1  <0> A   1     -24.901  -0.398  50.435  0.00  0.00    +0.034 C 
ATOM     21  C2  <0> A   1     -25.878  -1.341  49.729  0.00  0.00    +0.090 C 
ENDBRANCH   1  21
BRANCH   2  22
ATOM     22  C20 <0> A   1     -27.014  -3.891  50.454  0.00  0.00    +0.086 C 
BRANCH  22  23
ATOM     23  C21 <0> A   1     -26.022  -4.284  51.551  0.00  0.00    +0.059 C 
BRANCH  23  24
ATOM     24  C22 <0> A   1     -25.198  -5.486  51.086  0.00  0.00    +0.198 C 
ATOM     25  C23 <0> A   1     -25.956  -6.228  49.981  0.00  0.00    +0.040 C 
ATOM     26  C24 <0> A   1     -25.147  -7.454  49.546  0.00  0.00    +0.184 C 
ATOM     27  C25 <0> A   1     -24.944  -8.370  50.759  0.00  0.00    +0.021 C 
ATOM     28  C26 <0> A   1     -24.375  -7.542  51.891  0.00  0.00    +0.496 C 
ATOM     29  O1  <0> A   1     -23.408  -7.916  52.509  0.00  0.00    -0.452 OA
ATOM     30  O2  <0> A   1     -24.981  -6.373  52.188  0.00  0.00    -0.366 OA
BRANCH  26  31
ATOM     31  O3  <0> A   1     -23.877  -7.036  49.042  0.00  0.00    -0.563 OA
ATOM     32  H26 <0> A   1     -23.230  -7.750  48.963  0.00  0.00    +0.387 HD
ENDBRANCH  26  31
ENDBRANCH  23  24
ENDBRANCH  22  23
ENDBRANCH   2  22
TORSDOF 7
ENDMDL
