MODEL 1
REMARK VINA RESULT:      -7.9      0.000      0.000
REMARK  Name = CHEMBL120897
REMARK  9 active torsions:
REMARK  status: ('A' for Active; 'I' for Inactive)
REMARK    1  A    between atoms: C1_1  and  C2_2
REMARK    2  A    between atoms: C2_2  and  C3_3
REMARK    3  A    between atoms: C2_2  and  C4_4
REMARK    4  A    between atoms: C6_6  and  C21_28
REMARK    5  A    between atoms: C7_7  and  C15_21
REMARK    6  A    between atoms: N1_8  and  C8_9
REMARK    7  A    between atoms: C8_9  and  C9_10
REMARK    8  A    between atoms: C9_10  and  C10_11
REMARK    9  A    between atoms: C12_14  and  O3_20
REMARK                            x       y       z     vdW  Elec       q    Type
REMARK                         _______ _______ _______ _____ _____    ______ ____
ROOT
ATOM      1  C4  <0> A   1     -13.591  10.250  42.564  0.00  0.00    +0.043 C 
ATOM      2  C5  <0> A   1     -13.733  11.304  43.390  0.00  0.00    -0.028 C 
ATOM      3  C6  <0> A   1     -13.394  10.875  44.696  0.00  0.00    -0.116 C 
ATOM      4  C7  <0> A   1     -13.050   9.536  44.599  0.00  0.00    +0.069 C 
ATOM      5  N1  <0> A   1     -13.183   9.168  43.288  0.00  0.00    -0.426 N 
ENDROOT
BRANCH   4   6
ATOM      6  C15 <0> A   1     -12.625   8.662  45.711  0.00  0.00    -0.028 A 
ATOM      7  C16 <0> A   1     -11.319   8.171  45.757  0.00  0.00    +0.043 A 
ATOM      8  C17 <0> A   1     -10.927   7.355  46.798  0.00  0.00    -0.008 A 
ATOM      9  C18 <0> A   1     -11.828   7.023  47.798  0.00  0.00    +0.104 A 
ATOM     10  C19 <0> A   1     -13.127   7.506  47.757  0.00  0.00    -0.007 A 
ATOM     11  C20 <0> A   1     -13.528   8.327  46.724  0.00  0.00    +0.070 A 
ATOM     12  F1  <0> A   1     -11.440   6.223  48.814  0.00  0.00    -0.137 F 
ENDBRANCH   4   6
BRANCH   3  13
ATOM     13  C21 <0> A   1     -13.406  11.697  45.926  0.00  0.00    +0.044 A 
ATOM     14  C22 <0> A   1     -14.590  11.904  46.642  0.00  0.00    -0.033 A 
ATOM     15  C23 <0> A   1     -14.555  12.676  47.784  0.00  0.00    +0.254 A 
ATOM     16  N2  <0> A   1     -13.425  13.217  48.201  0.00  0.00    -0.491 NA
ATOM     17  C24 <0> A   1     -12.286  13.048  47.556  0.00  0.00    +0.254 A 
ATOM     18  C25 <0> A   1     -12.231  12.284  46.409  0.00  0.00    -0.032 A 
ENDBRANCH   3  13
BRANCH   1  20
ATOM     19  C1  <0> A   1     -14.730  11.462  40.723  0.00  0.00    +0.040 C 
ATOM     20  C2  <0> A   1     -13.849  10.262  41.079  0.00  0.00    +0.048 C 
ATOM     21  C3  <0> A   1     -12.518  10.368  40.331  0.00  0.00    +0.033 C 
ENDBRANCH   1  20
BRANCH   5  22
ATOM     22  C8  <0> A   1     -12.924   7.832  42.747  0.00  0.00    +0.292 C 
BRANCH  22  23
ATOM     23  C9  <0> A   1     -14.228   7.031  42.717  0.00  0.00    +0.052 C 
BRANCH  23  24
ATOM     24  C10 <0> A   1     -14.382   6.258  44.028  0.00  0.00    +0.203 C 
ATOM     25  C11 <0> A   1     -14.170   4.764  43.769  0.00  0.00    +0.045 C 
ATOM     26  C12 <0> A   1     -14.367   3.988  45.075  0.00  0.00    +0.187 C 
ATOM     27  C13 <0> A   1     -15.788   4.241  45.594  0.00  0.00    +0.025 C 
ATOM     28  C14 <0> A   1     -16.015   5.737  45.644  0.00  0.00    +0.497 C 
ATOM     29  O1  <0> A   1     -16.469   6.264  46.633  0.00  0.00    -0.449 OA
ATOM     30  O2  <0> A   1     -15.698   6.465  44.554  0.00  0.00    -0.370 OA
BRANCH  26  31
ATOM     31  O3  <0> A   1     -13.415   4.433  46.043  0.00  0.00    -0.564 OA
ATOM     32  H19 <0> A   1     -13.191   3.769  46.709  0.00  0.00    +0.388 HD
ENDBRANCH  26  31
ENDBRANCH  23  24
ENDBRANCH  22  23
ENDBRANCH   5  22
TORSDOF 7
ENDMDL
MODEL 2
REMARK VINA RESULT:      -7.8      3.254      5.988
REMARK  Name = CHEMBL120897
REMARK  9 active torsions:
REMARK  status: ('A' for Active; 'I' for Inactive)
REMARK    1  A    between atoms: C1_1  and  C2_2
REMARK    2  A    between atoms: C2_2  and  C3_3
REMARK    3  A    between atoms: C2_2  and  C4_4
REMARK    4  A    between atoms: C6_6  and  C21_28
REMARK    5  A    between atoms: C7_7  and  C15_21
REMARK    6  A    between atoms: N1_8  and  C8_9
REMARK    7  A    between atoms: C8_9  and  C9_10
REMARK    8  A    between atoms: C9_10  and  C10_11
REMARK    9  A    between atoms: C12_14  and  O3_20
REMARK                            x       y       z     vdW  Elec       q    Type
REMARK                         _______ _______ _______ _____ _____    ______ ____
ROOT
ATOM      1  C4  <0> A   1     -15.060  10.411  47.258  0.00  0.00    +0.043 C 
ATOM      2  C5  <0> A   1     -16.013   9.847  48.023  0.00  0.00    -0.028 C 
ATOM      3  C6  <0> A   1     -16.077   8.473  47.687  0.00  0.00    -0.116 C 
ATOM      4  C7  <0> A   1     -15.126   8.259  46.701  0.00  0.00    +0.069 C 
ATOM      5  N1  <0> A   1     -14.518   9.458  46.446  0.00  0.00    -0.426 N 
ENDROOT
BRANCH   4   6
ATOM      6  C15 <0> A   1     -14.829   6.972  46.040  0.00  0.00    -0.028 A 
ATOM      7  C16 <0> A   1     -15.455   6.642  44.836  0.00  0.00    +0.043 A 
ATOM      8  C17 <0> A   1     -15.173   5.439  44.223  0.00  0.00    -0.008 A 
ATOM      9  C18 <0> A   1     -14.272   4.558  44.800  0.00  0.00    +0.104 A 
ATOM     10  C19 <0> A   1     -13.649   4.880  45.996  0.00  0.00    -0.007 A 
ATOM     11  C20 <0> A   1     -13.918   6.083  46.615  0.00  0.00    +0.070 A 
ATOM     12  F1  <0> A   1     -14.001   3.381  44.196  0.00  0.00    -0.137 F 
ENDBRANCH   4   6
BRANCH   3  13
ATOM     13  C21 <0> A   1     -16.982   7.461  48.275  0.00  0.00    +0.044 A 
ATOM     14  C22 <0> A   1     -18.238   7.207  47.714  0.00  0.00    -0.033 A 
ATOM     15  C23 <0> A   1     -19.050   6.255  48.293  0.00  0.00    +0.254 A 
ATOM     16  N2  <0> A   1     -18.655   5.588  49.362  0.00  0.00    -0.491 NA
ATOM     17  C24 <0> A   1     -17.479   5.797  49.923  0.00  0.00    +0.254 A 
ATOM     18  C25 <0> A   1     -16.602   6.726  49.403  0.00  0.00    -0.032 A 
ENDBRANCH   3  13
BRANCH   1  20
ATOM     19  C1  <0> A   1     -15.885  12.723  47.609  0.00  0.00    +0.040 C 
ATOM     20  C2  <0> A   1     -14.660  11.864  47.289  0.00  0.00    +0.048 C 
ATOM     21  C3  <0> A   1     -13.592  12.077  48.365  0.00  0.00    +0.033 C 
ENDBRANCH   1  20
BRANCH   5  22
ATOM     22  C8  <0> A   1     -13.454   9.681  45.465  0.00  0.00    +0.292 C 
BRANCH  22  23
ATOM     23  C9  <0> A   1     -14.018  10.448  44.266  0.00  0.00    +0.052 C 
BRANCH  23  24
ATOM     24  C10 <0> A   1     -13.283  10.019  42.995  0.00  0.00    +0.203 C 
ATOM     25  C11 <0> A   1     -13.745  10.884  41.819  0.00  0.00    +0.045 C 
ATOM     26  C12 <0> A   1     -13.039  10.424  40.541  0.00  0.00    +0.187 C 
ATOM     27  C13 <0> A   1     -13.385   8.952  40.285  0.00  0.00    +0.025 C 
ATOM     28  C14 <0> A   1     -13.095   8.169  41.548  0.00  0.00    +0.497 C 
ATOM     29  O1  <0> A   1     -12.450   7.147  41.511  0.00  0.00    -0.449 OA
ATOM     30  O2  <0> A   1     -13.575   8.645  42.714  0.00  0.00    -0.370 OA
BRANCH  26  31
ATOM     31  O3  <0> A   1     -11.625  10.565  40.697  0.00  0.00    -0.564 OA
ATOM     32  H19 <0> A   1     -11.133  10.542  39.865  0.00  0.00    +0.388 HD
ENDBRANCH  26  31
ENDBRANCH  23  24
ENDBRANCH  22  23
ENDBRANCH   5  22
TORSDOF 7
ENDMDL
MODEL 3
REMARK VINA RESULT:      -7.7      2.845      5.818
REMARK  Name = CHEMBL120897
REMARK  9 active torsions:
REMARK  status: ('A' for Active; 'I' for Inactive)
REMARK    1  A    between atoms: C1_1  and  C2_2
REMARK    2  A    between atoms: C2_2  and  C3_3
REMARK    3  A    between atoms: C2_2  and  C4_4
REMARK    4  A    between atoms: C6_6  and  C21_28
REMARK    5  A    between atoms: C7_7  and  C15_21
REMARK    6  A    between atoms: N1_8  and  C8_9
REMARK    7  A    between atoms: C8_9  and  C9_10
REMARK    8  A    between atoms: C9_10  and  C10_11
REMARK    9  A    between atoms: C12_14  and  O3_20
REMARK                            x       y       z     vdW  Elec       q    Type
REMARK                         _______ _______ _______ _____ _____    ______ ____
ROOT
ATOM      1  C4  <0> A   1     -13.226   8.912  42.390  0.00  0.00    +0.043 C 
ATOM      2  C5  <0> A   1     -13.784   7.687  42.401  0.00  0.00    -0.028 C 
ATOM      3  C6  <0> A   1     -14.000   7.324  43.752  0.00  0.00    -0.116 C 
ATOM      4  C7  <0> A   1     -13.550   8.382  44.526  0.00  0.00    +0.069 C 
ATOM      5  N1  <0> A   1     -13.072   9.342  43.676  0.00  0.00    -0.426 N 
ENDROOT
BRANCH   4   6
ATOM      6  C15 <0> A   1     -13.573   8.455  46.001  0.00  0.00    -0.028 A 
ATOM      7  C16 <0> A   1     -14.764   8.741  46.670  0.00  0.00    +0.043 A 
ATOM      8  C17 <0> A   1     -14.780   8.808  48.048  0.00  0.00    -0.008 A 
ATOM      9  C18 <0> A   1     -13.615   8.593  48.767  0.00  0.00    +0.104 A 
ATOM     10  C19 <0> A   1     -12.429   8.311  48.109  0.00  0.00    -0.007 A 
ATOM     11  C20 <0> A   1     -12.403   8.236  46.732  0.00  0.00    +0.070 A 
ATOM     12  F1  <0> A   1     -13.636   8.662  50.116  0.00  0.00    -0.137 F 
ENDBRANCH   4   6
BRANCH   3  13
ATOM     13  C21 <0> A   1     -14.594   6.060  44.243  0.00  0.00    +0.044 A 
ATOM     14  C22 <0> A   1     -15.872   5.661  43.838  0.00  0.00    -0.033 A 
ATOM     15  C23 <0> A   1     -16.387   4.476  44.320  0.00  0.00    +0.254 A 
ATOM     16  N2  <0> A   1     -15.690   3.723  45.151  0.00  0.00    -0.491 NA
ATOM     17  C24 <0> A   1     -14.481   4.063  45.558  0.00  0.00    +0.254 A 
ATOM     18  C25 <0> A   1     -13.889   5.228  45.119  0.00  0.00    -0.032 A 
ENDBRANCH   3  13
BRANCH   1  20
ATOM     19  C1  <0> A   1     -12.676   8.716  39.980  0.00  0.00    +0.040 C 
ATOM     20  C2  <0> A   1     -12.828   9.681  41.157  0.00  0.00    +0.048 C 
ATOM     21  C3  <0> A   1     -13.907  10.717  40.832  0.00  0.00    +0.033 C 
ENDBRANCH   1  20
BRANCH   5  22
ATOM     22  C8  <0> A   1     -12.495  10.626  44.080  0.00  0.00    +0.292 C 
BRANCH  22  23
ATOM     23  C9  <0> A   1     -13.614  11.656  44.256  0.00  0.00    +0.052 C 
BRANCH  23  24
ATOM     24  C10 <0> A   1     -13.454  12.357  45.606  0.00  0.00    +0.203 C 
ATOM     25  C11 <0> A   1     -12.200  11.832  46.310  0.00  0.00    +0.045 C 
ATOM     26  C12 <0> A   1     -12.067  12.506  47.679  0.00  0.00    +0.187 C 
ATOM     27  C13 <0> A   1     -13.315  12.190  48.512  0.00  0.00    +0.025 C 
ATOM     28  C14 <0> A   1     -14.536  12.544  47.690  0.00  0.00    +0.497 C 
ATOM     29  O1  <0> A   1     -15.427  13.214  48.158  0.00  0.00    -0.449 OA
ATOM     30  O2  <0> A   1     -14.601  12.092  46.422  0.00  0.00    -0.370 OA
BRANCH  26  31
ATOM     31  O3  <0> A   1     -11.948  13.920  47.507  0.00  0.00    -0.564 OA
ATOM     32  H19 <0> A   1     -12.780  14.360  47.287  0.00  0.00    +0.388 HD
ENDBRANCH  26  31
ENDBRANCH  23  24
ENDBRANCH  22  23
ENDBRANCH   5  22
TORSDOF 7
ENDMDL
MODEL 4
REMARK VINA RESULT:      -7.7      3.522      6.146
REMARK  Name = CHEMBL120897
REMARK  9 active torsions:
REMARK  status: ('A' for Active; 'I' for Inactive)
REMARK    1  A    between atoms: C1_1  and  C2_2
REMARK    2  A    between atoms: C2_2  and  C3_3
REMARK    3  A    between atoms: C2_2  and  C4_4
REMARK    4  A    between atoms: C6_6  and  C21_28
REMARK    5  A    between atoms: C7_7  and  C15_21
REMARK    6  A    between atoms: N1_8  and  C8_9
REMARK    7  A    between atoms: C8_9  and  C9_10
REMARK    8  A    between atoms: C9_10  and  C10_11
REMARK    9  A    between atoms: C12_14  and  O3_20
REMARK                            x       y       z     vdW  Elec       q    Type
REMARK                         _______ _______ _______ _____ _____    ______ ____
ROOT
ATOM      1  C4  <0> A   1     -14.861   6.469  45.681  0.00  0.00    +0.043 C 
ATOM      2  C5  <0> A   1     -15.913   6.180  46.470  0.00  0.00    -0.028 C 
ATOM      3  C6  <0> A   1     -16.262   7.359  47.171  0.00  0.00    -0.116 C 
ATOM      4  C7  <0> A   1     -15.376   8.344  46.762  0.00  0.00    +0.069 C 
ATOM      5  N1  <0> A   1     -14.521   7.779  45.855  0.00  0.00    -0.426 N 
ENDROOT
BRANCH   4   6
ATOM      6  C15 <0> A   1     -15.354   9.745  47.226  0.00  0.00    -0.028 A 
ATOM      7  C16 <0> A   1     -16.288  10.661  46.738  0.00  0.00    +0.043 A 
ATOM      8  C17 <0> A   1     -16.263  11.969  47.176  0.00  0.00    -0.008 A 
ATOM      9  C18 <0> A   1     -15.311  12.374  48.098  0.00  0.00    +0.104 A 
ATOM     10  C19 <0> A   1     -14.380  11.471  48.585  0.00  0.00    -0.007 A 
ATOM     11  C20 <0> A   1     -14.400  10.159  48.159  0.00  0.00    +0.070 A 
ATOM     12  F1  <0> A   1     -15.290  13.657  48.522  0.00  0.00    -0.137 F 
ENDBRANCH   4   6
BRANCH   3  13
ATOM     13  C21 <0> A   1     -17.360   7.512  48.152  0.00  0.00    +0.044 A 
ATOM     14  C22 <0> A   1     -18.637   7.007  47.885  0.00  0.00    -0.033 A 
ATOM     15  C23 <0> A   1     -19.631   7.171  48.827  0.00  0.00    +0.254 A 
ATOM     16  N2  <0> A   1     -19.389   7.794  49.966  0.00  0.00    -0.491 NA
ATOM     17  C24 <0> A   1     -18.199   8.286  50.257  0.00  0.00    +0.254 A 
ATOM     18  C25 <0> A   1     -17.147   8.159  49.374  0.00  0.00    -0.032 A 
ENDBRANCH   3  13
BRANCH   1  20
ATOM     19  C1  <0> A   1     -14.128   4.115  45.411  0.00  0.00    +0.040 C 
ATOM     20  C2  <0> A   1     -14.166   5.499  44.760  0.00  0.00    +0.048 C 
ATOM     21  C3  <0> A   1     -14.928   5.419  43.435  0.00  0.00    +0.033 C 
ENDBRANCH   1  20
BRANCH   5  22
ATOM     22  C8  <0> A   1     -13.423   8.470  45.175  0.00  0.00    +0.292 C 
BRANCH  22  23
ATOM     23  C9  <0> A   1     -13.994   9.450  44.148  0.00  0.00    +0.052 C 
BRANCH  23  24
ATOM     24  C10 <0> A   1     -13.176   9.373  42.858  0.00  0.00    +0.203 C 
ATOM     25  C11 <0> A   1     -13.761  10.337  41.822  0.00  0.00    +0.045 C 
ATOM     26  C12 <0> A   1     -12.965  10.225  40.518  0.00  0.00    +0.187 C 
ATOM     27  C13 <0> A   1     -13.049   8.782  40.007  0.00  0.00    +0.025 C 
ATOM     28  C14 <0> A   1     -12.649   7.855  41.136  0.00  0.00    +0.497 C 
ATOM     29  O1  <0> A   1     -11.838   6.976  40.960  0.00  0.00    -0.449 OA
ATOM     30  O2  <0> A   1     -13.223   8.038  42.342  0.00  0.00    -0.370 OA
BRANCH  26  31
ATOM     31  O3  <0> A   1     -11.599  10.571  40.760  0.00  0.00    -0.564 OA
ATOM     32  H19 <0> A   1     -11.161  10.009  41.413  0.00  0.00    +0.388 HD
ENDBRANCH  26  31
ENDBRANCH  23  24
ENDBRANCH  22  23
ENDBRANCH   5  22
TORSDOF 7
ENDMDL
MODEL 5
REMARK VINA RESULT:      -7.6      3.099      5.665
REMARK  Name = CHEMBL120897
REMARK  9 active torsions:
REMARK  status: ('A' for Active; 'I' for Inactive)
REMARK    1  A    between atoms: C1_1  and  C2_2
REMARK    2  A    between atoms: C2_2  and  C3_3
REMARK    3  A    between atoms: C2_2  and  C4_4
REMARK    4  A    between atoms: C6_6  and  C21_28
REMARK    5  A    between atoms: C7_7  and  C15_21
REMARK    6  A    between atoms: N1_8  and  C8_9
REMARK    7  A    between atoms: C8_9  and  C9_10
REMARK    8  A    between atoms: C9_10  and  C10_11
REMARK    9  A    between atoms: C12_14  and  O3_20
REMARK                            x       y       z     vdW  Elec       q    Type
REMARK                         _______ _______ _______ _____ _____    ______ ____
ROOT
ATOM      1  C4  <0> A   1     -14.348   6.538  45.347  0.00  0.00    +0.043 C 
ATOM      2  C5  <0> A   1     -15.066   6.785  46.459  0.00  0.00    -0.028 C 
ATOM      3  C6  <0> A   1     -14.776   8.108  46.873  0.00  0.00    -0.116 C 
ATOM      4  C7  <0> A   1     -13.866   8.620  45.963  0.00  0.00    +0.069 C 
ATOM      5  N1  <0> A   1     -13.610   7.643  45.040  0.00  0.00    -0.426 N 
ENDROOT
BRANCH   4   6
ATOM      6  C15 <0> A   1     -13.273   9.973  45.989  0.00  0.00    -0.028 A 
ATOM      7  C16 <0> A   1     -13.934  11.040  45.379  0.00  0.00    +0.043 A 
ATOM      8  C17 <0> A   1     -13.376  12.302  45.407  0.00  0.00    -0.008 A 
ATOM      9  C18 <0> A   1     -12.161  12.509  46.039  0.00  0.00    +0.104 A 
ATOM     10  C19 <0> A   1     -11.498  11.453  46.645  0.00  0.00    -0.007 A 
ATOM     11  C20 <0> A   1     -12.050  10.190  46.629  0.00  0.00    +0.070 A 
ATOM     12  F1  <0> A   1     -11.618  13.746  46.063  0.00  0.00    -0.137 F 
ENDBRANCH   4   6
BRANCH   3  13
ATOM     13  C21 <0> A   1     -15.338   8.808  48.050  0.00  0.00    +0.044 A 
ATOM     14  C22 <0> A   1     -16.252   9.855  47.896  0.00  0.00    -0.033 A 
ATOM     15  C23 <0> A   1     -16.751  10.479  49.020  0.00  0.00    +0.254 A 
ATOM     16  N2  <0> A   1     -16.375  10.100  50.228  0.00  0.00    -0.491 NA
ATOM     17  C24 <0> A   1     -15.514   9.117  50.418  0.00  0.00    +0.254 A 
ATOM     18  C25 <0> A   1     -14.973   8.435  49.349  0.00  0.00    -0.032 A 
ENDBRANCH   3  13
BRANCH   1  20
ATOM     19  C1  <0> A   1     -14.133   4.074  45.531  0.00  0.00    +0.040 C 
ATOM     20  C2  <0> A   1     -14.354   5.246  44.571  0.00  0.00    +0.048 C 
ATOM     21  C3  <0> A   1     -15.702   5.081  43.865  0.00  0.00    +0.033 C 
ENDBRANCH   1  20
BRANCH   5  22
ATOM     22  C8  <0> A   1     -12.695   7.766  43.902  0.00  0.00    +0.292 C 
BRANCH  22  23
ATOM     23  C9  <0> A   1     -13.501   7.796  42.601  0.00  0.00    +0.052 C 
BRANCH  23  24
ATOM     24  C10 <0> A   1     -13.221   9.104  41.858  0.00  0.00    +0.203 C 
ATOM     25  C11 <0> A   1     -14.215  10.175  42.314  0.00  0.00    +0.045 C 
ATOM     26  C12 <0> A   1     -13.959  11.470  41.538  0.00  0.00    +0.187 C 
ATOM     27  C13 <0> A   1     -14.128  11.192  40.039  0.00  0.00    +0.025 C 
ATOM     28  C14 <0> A   1     -13.272   9.997  39.679  0.00  0.00    +0.497 C 
ATOM     29  O1  <0> A   1     -12.527  10.030  38.728  0.00  0.00    -0.449 OA
ATOM     30  O2  <0> A   1     -13.364   8.894  40.448  0.00  0.00    -0.370 OA
BRANCH  26  31
ATOM     31  O3  <0> A   1     -12.630  11.928  41.795  0.00  0.00    -0.564 OA
ATOM     32  H19 <0> A   1     -12.589  12.756  42.292  0.00  0.00    +0.388 HD
ENDBRANCH  26  31
ENDBRANCH  23  24
ENDBRANCH  22  23
ENDBRANCH   5  22
TORSDOF 7
ENDMDL
MODEL 6
REMARK VINA RESULT:      -7.6     16.163     19.247
REMARK  Name = CHEMBL120897
REMARK  9 active torsions:
REMARK  status: ('A' for Active; 'I' for Inactive)
REMARK    1  A    between atoms: C1_1  and  C2_2
REMARK    2  A    between atoms: C2_2  and  C3_3
REMARK    3  A    between atoms: C2_2  and  C4_4
REMARK    4  A    between atoms: C6_6  and  C21_28
REMARK    5  A    between atoms: C7_7  and  C15_21
REMARK    6  A    between atoms: N1_8  and  C8_9
REMARK    7  A    between atoms: C8_9  and  C9_10
REMARK    8  A    between atoms: C9_10  and  C10_11
REMARK    9  A    between atoms: C12_14  and  O3_20
REMARK                            x       y       z     vdW  Elec       q    Type
REMARK                         _______ _______ _______ _____ _____    ______ ____
ROOT
ATOM      1  C4  <0> A   1     -27.772  -4.961  50.961  0.00  0.00    +0.043 C 
ATOM      2  C5  <0> A   1     -28.431  -3.800  50.786  0.00  0.00    -0.028 C 
ATOM      3  C6  <0> A   1     -27.519  -2.746  51.031  0.00  0.00    -0.116 C 
ATOM      4  C7  <0> A   1     -26.306  -3.335  51.355  0.00  0.00    +0.069 C 
ATOM      5  N1  <0> A   1     -26.482  -4.692  51.314  0.00  0.00    -0.426 N 
ENDROOT
BRANCH   4   6
ATOM      6  C15 <0> A   1     -25.054  -2.628  51.691  0.00  0.00    -0.028 A 
ATOM      7  C16 <0> A   1     -24.036  -2.517  50.743  0.00  0.00    +0.043 A 
ATOM      8  C17 <0> A   1     -22.868  -1.854  51.062  0.00  0.00    -0.008 A 
ATOM      9  C18 <0> A   1     -22.707  -1.300  52.322  0.00  0.00    +0.104 A 
ATOM     10  C19 <0> A   1     -23.714  -1.408  53.268  0.00  0.00    -0.007 A 
ATOM     11  C20 <0> A   1     -24.887  -2.062  52.958  0.00  0.00    +0.070 A 
ATOM     12  F1  <0> A   1     -21.561  -0.653  52.630  0.00  0.00    -0.137 F 
ENDBRANCH   4   6
BRANCH   3  13
ATOM     13  C21 <0> A   1     -27.803  -1.296  50.957  0.00  0.00    +0.044 A 
ATOM     14  C22 <0> A   1     -27.048  -0.456  50.132  0.00  0.00    -0.033 A 
ATOM     15  C23 <0> A   1     -27.348   0.889  50.092  0.00  0.00    +0.254 A 
ATOM     16  N2  <0> A   1     -28.332   1.385  50.820  0.00  0.00    -0.491 NA
ATOM     17  C24 <0> A   1     -29.069   0.629  51.612  0.00  0.00    +0.254 A 
ATOM     18  C25 <0> A   1     -28.841  -0.728  51.705  0.00  0.00    -0.032 A 
ENDBRANCH   3  13
BRANCH   1  20
ATOM     19  C1  <0> A   1     -29.760  -6.368  51.433  0.00  0.00    +0.040 C 
ATOM     20  C2  <0> A   1     -28.367  -6.337  50.801  0.00  0.00    +0.048 C 
ATOM     21  C3  <0> A   1     -28.474  -6.676  49.312  0.00  0.00    +0.033 C 
ENDBRANCH   1  20
BRANCH   5  22
ATOM     22  C8  <0> A   1     -25.451  -5.693  51.596  0.00  0.00    +0.292 C 
BRANCH  22  23
ATOM     23  C9  <0> A   1     -24.845  -6.187  50.281  0.00  0.00    +0.052 C 
BRANCH  23  24
ATOM     24  C10 <0> A   1     -24.139  -7.524  50.515  0.00  0.00    +0.203 C 
ATOM     25  C11 <0> A   1     -25.097  -8.673  50.193  0.00  0.00    +0.045 C 
ATOM     26  C12 <0> A   1     -24.400 -10.009  50.469  0.00  0.00    +0.187 C 
ATOM     27  C13 <0> A   1     -23.989 -10.059  51.946  0.00  0.00    +0.025 C 
ATOM     28  C14 <0> A   1     -23.211  -8.800  52.264  0.00  0.00    +0.497 C 
ATOM     29  O1  <0> A   1     -22.150  -8.856  52.841  0.00  0.00    -0.449 OA
ATOM     30  O2  <0> A   1     -23.733  -7.616  51.886  0.00  0.00    -0.370 OA
BRANCH  26  31
ATOM     31  O3  <0> A   1     -23.239 -10.123  49.643  0.00  0.00    -0.564 OA
ATOM     32  H19 <0> A   1     -23.159 -10.975  49.192  0.00  0.00    +0.388 HD
ENDBRANCH  26  31
ENDBRANCH  23  24
ENDBRANCH  22  23
ENDBRANCH   5  22
TORSDOF 7
ENDMDL
MODEL 7
REMARK VINA RESULT:      -7.4      9.273     12.130
REMARK  Name = CHEMBL120897
REMARK  9 active torsions:
REMARK  status: ('A' for Active; 'I' for Inactive)
REMARK    1  A    between atoms: C1_1  and  C2_2
REMARK    2  A    between atoms: C2_2  and  C3_3
REMARK    3  A    between atoms: C2_2  and  C4_4
REMARK    4  A    between atoms: C6_6  and  C21_28
REMARK    5  A    between atoms: C7_7  and  C15_21
REMARK    6  A    between atoms: N1_8  and  C8_9
REMARK    7  A    between atoms: C8_9  and  C9_10
REMARK    8  A    between atoms: C9_10  and  C10_11
REMARK    9  A    between atoms: C12_14  and  O3_20
REMARK                            x       y       z     vdW  Elec       q    Type
REMARK                         _______ _______ _______ _____ _____    ______ ____
ROOT
ATOM      1  C4  <0> A   1      -5.533   4.221  47.833  0.00  0.00    +0.043 C 
ATOM      2  C5  <0> A   1      -5.892   3.824  49.068  0.00  0.00    -0.028 C 
ATOM      3  C6  <0> A   1      -5.038   4.471  49.993  0.00  0.00    -0.116 C 
ATOM      4  C7  <0> A   1      -4.170   5.258  49.252  0.00  0.00    +0.069 C 
ATOM      5  N1  <0> A   1      -4.483   5.086  47.931  0.00  0.00    -0.426 N 
ENDROOT
BRANCH   4   6
ATOM      6  C15 <0> A   1      -3.097   6.118  49.790  0.00  0.00    -0.028 A 
ATOM      7  C16 <0> A   1      -3.265   7.503  49.833  0.00  0.00    +0.043 A 
ATOM      8  C17 <0> A   1      -2.259   8.302  50.337  0.00  0.00    -0.008 A 
ATOM      9  C18 <0> A   1      -1.084   7.731  50.799  0.00  0.00    +0.104 A 
ATOM     10  C19 <0> A   1      -0.910   6.357  50.757  0.00  0.00    -0.007 A 
ATOM     11  C20 <0> A   1      -1.911   5.548  50.261  0.00  0.00    +0.070 A 
ATOM     12  F1  <0> A   1      -0.102   8.518  51.290  0.00  0.00    -0.137 F 
ENDBRANCH   4   6
BRANCH   3  13
ATOM     13  C21 <0> A   1      -5.066   4.334  51.466  0.00  0.00    +0.044 A 
ATOM     14  C22 <0> A   1      -4.435   3.258  52.101  0.00  0.00    -0.033 A 
ATOM     15  C23 <0> A   1      -4.485   3.170  53.476  0.00  0.00    +0.254 A 
ATOM     16  N2  <0> A   1      -5.117   4.083  54.190  0.00  0.00    -0.491 NA
ATOM     17  C24 <0> A   1      -5.725   5.113  53.632  0.00  0.00    +0.254 A 
ATOM     18  C25 <0> A   1      -5.718   5.281  52.264  0.00  0.00    -0.032 A 
ENDBRANCH   3  13
BRANCH   1  20
ATOM     19  C1  <0> A   1      -6.709   2.347  46.711  0.00  0.00    +0.040 C 
ATOM     20  C2  <0> A   1      -6.181   3.774  46.547  0.00  0.00    +0.048 C 
ATOM     21  C3  <0> A   1      -7.342   4.712  46.209  0.00  0.00    +0.033 C 
ENDBRANCH   1  20
BRANCH   5  22
ATOM     22  C8  <0> A   1      -3.805   5.733  46.804  0.00  0.00    +0.292 C 
BRANCH  22  23
ATOM     23  C9  <0> A   1      -2.397   5.153  46.655  0.00  0.00    +0.052 C 
BRANCH  23  24
ATOM     24  C10 <0> A   1      -2.460   3.863  45.835  0.00  0.00    +0.203 C 
ATOM     25  C11 <0> A   1      -1.100   3.603  45.183  0.00  0.00    +0.045 C 
ATOM     26  C12 <0> A   1      -1.179   2.334  44.329  0.00  0.00    +0.187 C 
ATOM     27  C13 <0> A   1      -2.255   2.527  43.253  0.00  0.00    +0.025 C 
ATOM     28  C14 <0> A   1      -3.531   2.977  43.933  0.00  0.00    +0.497 C 
ATOM     29  O1  <0> A   1      -4.586   2.438  43.693  0.00  0.00    -0.449 OA
ATOM     30  O2  <0> A   1      -3.457   3.994  44.814  0.00  0.00    -0.370 OA
BRANCH  26  31
ATOM     31  O3  <0> A   1      -1.521   1.221  45.157  0.00  0.00    -0.564 OA
ATOM     32  H19 <0> A   1      -2.371   0.815  44.939  0.00  0.00    +0.388 HD
ENDBRANCH  26  31
ENDBRANCH  23  24
ENDBRANCH  22  23
ENDBRANCH   5  22
TORSDOF 7
ENDMDL
MODEL 8
REMARK VINA RESULT:      -7.4     17.092     21.294
REMARK  Name = CHEMBL120897
REMARK  9 active torsions:
REMARK  status: ('A' for Active; 'I' for Inactive)
REMARK    1  A    between atoms: C1_1  and  C2_2
REMARK    2  A    between atoms: C2_2  and  C3_3
REMARK    3  A    between atoms: C2_2  and  C4_4
REMARK    4  A    between atoms: C6_6  and  C21_28
REMARK    5  A    between atoms: C7_7  and  C15_21
REMARK    6  A    between atoms: N1_8  and  C8_9
REMARK    7  A    between atoms: C8_9  and  C9_10
REMARK    8  A    between atoms: C9_10  and  C10_11
REMARK    9  A    between atoms: C12_14  and  O3_20
REMARK                            x       y       z     vdW  Elec       q    Type
REMARK                         _______ _______ _______ _____ _____    ______ ____
ROOT
ATOM      1  C4  <0> A   1     -24.913  -3.294  51.313  0.00  0.00    +0.043 C 
ATOM      2  C5  <0> A   1     -24.115  -4.336  51.013  0.00  0.00    -0.028 C 
ATOM      3  C6  <0> A   1     -24.875  -5.520  51.169  0.00  0.00    -0.116 C 
ATOM      4  C7  <0> A   1     -26.143  -5.129  51.570  0.00  0.00    +0.069 C 
ATOM      5  N1  <0> A   1     -26.146  -3.764  51.660  0.00  0.00    -0.426 N 
ENDROOT
BRANCH   4   6
ATOM      6  C15 <0> A   1     -27.282  -6.025  51.857  0.00  0.00    -0.028 A 
ATOM      7  C16 <0> A   1     -27.788  -6.122  53.154  0.00  0.00    +0.043 A 
ATOM      8  C17 <0> A   1     -28.853  -6.960  53.416  0.00  0.00    -0.008 A 
ATOM      9  C18 <0> A   1     -29.418  -7.705  52.393  0.00  0.00    +0.104 A 
ATOM     10  C19 <0> A   1     -28.919  -7.614  51.103  0.00  0.00    -0.007 A 
ATOM     11  C20 <0> A   1     -27.860  -6.775  50.829  0.00  0.00    +0.070 A 
ATOM     12  F1  <0> A   1     -30.460  -8.525  52.655  0.00  0.00    -0.137 F 
ENDBRANCH   4   6
BRANCH   3  13
ATOM     13  C21 <0> A   1     -24.407  -6.906  50.948  0.00  0.00    +0.044 A 
ATOM     14  C22 <0> A   1     -24.024  -7.717  52.022  0.00  0.00    -0.033 A 
ATOM     15  C23 <0> A   1     -23.595  -9.003  51.770  0.00  0.00    +0.254 A 
ATOM     16  N2  <0> A   1     -23.543  -9.470  50.537  0.00  0.00    -0.491 NA
ATOM     17  C24 <0> A   1     -23.894  -8.739  49.495  0.00  0.00    +0.254 A 
ATOM     18  C25 <0> A   1     -24.342  -7.445  49.658  0.00  0.00    -0.032 A 
ENDBRANCH   3  13
BRANCH   1  20
ATOM     19  C1  <0> A   1     -22.981  -1.739  51.311  0.00  0.00    +0.040 C 
ATOM     20  C2  <0> A   1     -24.507  -1.843  51.279  0.00  0.00    +0.048 C 
ATOM     21  C3  <0> A   1     -25.036  -1.196  49.996  0.00  0.00    +0.033 C 
ENDBRANCH   1  20
BRANCH   5  22
ATOM     22  C8  <0> A   1     -27.290  -2.939  52.057  0.00  0.00    +0.292 C 
BRANCH  22  23
ATOM     23  C9  <0> A   1     -28.272  -2.831  50.889  0.00  0.00    +0.052 C 
BRANCH  23  24
ATOM     24  C10 <0> A   1     -29.704  -2.939  51.414  0.00  0.00    +0.203 C 
ATOM     25  C11 <0> A   1     -29.745  -2.505  52.882  0.00  0.00    +0.045 C 
ATOM     26  C12 <0> A   1     -31.172  -2.655  53.417  0.00  0.00    +0.187 C 
ATOM     27  C13 <0> A   1     -31.600  -4.122  53.286  0.00  0.00    +0.025 C 
ATOM     28  C14 <0> A   1     -31.353  -4.562  51.859  0.00  0.00    +0.497 C 
ATOM     29  O1  <0> A   1     -32.210  -5.135  51.228  0.00  0.00    -0.449 OA
ATOM     30  O2  <0> A   1     -30.150  -4.296  51.310  0.00  0.00    -0.370 OA
BRANCH  26  31
ATOM     31  O3  <0> A   1     -32.057  -1.826  52.660  0.00  0.00    -0.564 OA
ATOM     32  H19 <0> A   1     -32.308  -2.199  51.804  0.00  0.00    +0.388 HD
ENDBRANCH  26  31
ENDBRANCH  23  24
ENDBRANCH  22  23
ENDBRANCH   5  22
TORSDOF 7
ENDMDL
MODEL 9
REMARK VINA RESULT:      -7.4     16.093     19.231
REMARK  Name = CHEMBL120897
REMARK  9 active torsions:
REMARK  status: ('A' for Active; 'I' for Inactive)
REMARK    1  A    between atoms: C1_1  and  C2_2
REMARK    2  A    between atoms: C2_2  and  C3_3
REMARK    3  A    between atoms: C2_2  and  C4_4
REMARK    4  A    between atoms: C6_6  and  C21_28
REMARK    5  A    between atoms: C7_7  and  C15_21
REMARK    6  A    between atoms: N1_8  and  C8_9
REMARK    7  A    between atoms: C8_9  and  C9_10
REMARK    8  A    between atoms: C9_10  and  C10_11
REMARK    9  A    between atoms: C12_14  and  O3_20
REMARK                            x       y       z     vdW  Elec       q    Type
REMARK                         _______ _______ _______ _____ _____    ______ ____
ROOT
ATOM      1  C4  <0> A   1     -27.860  -4.860  50.963  0.00  0.00    +0.043 C 
ATOM      2  C5  <0> A   1     -28.520  -3.700  50.785  0.00  0.00    -0.028 C 
ATOM      3  C6  <0> A   1     -27.614  -2.645  51.048  0.00  0.00    -0.116 C 
ATOM      4  C7  <0> A   1     -26.404  -3.232  51.384  0.00  0.00    +0.069 C 
ATOM      5  N1  <0> A   1     -26.575  -4.589  51.333  0.00  0.00    -0.426 N 
ENDROOT
BRANCH   4   6
ATOM      6  C15 <0> A   1     -25.158  -2.523  51.739  0.00  0.00    -0.028 A 
ATOM      7  C16 <0> A   1     -24.974  -2.038  53.035  0.00  0.00    +0.043 A 
ATOM      8  C17 <0> A   1     -23.808  -1.376  53.362  0.00  0.00    -0.008 A 
ATOM      9  C18 <0> A   1     -22.822  -1.192  52.405  0.00  0.00    +0.104 A 
ATOM     10  C19 <0> A   1     -23.001  -1.670  51.116  0.00  0.00    -0.007 A 
ATOM     11  C20 <0> A   1     -24.159  -2.338  50.781  0.00  0.00    +0.070 A 
ATOM     12  F1  <0> A   1     -21.683  -0.542  52.730  0.00  0.00    -0.137 F 
ENDBRANCH   4   6
BRANCH   3  13
ATOM     13  C21 <0> A   1     -27.902  -1.195  50.978  0.00  0.00    +0.044 A 
ATOM     14  C22 <0> A   1     -28.919  -0.626  51.753  0.00  0.00    -0.033 A 
ATOM     15  C23 <0> A   1     -29.153   0.730  51.657  0.00  0.00    +0.254 A 
ATOM     16  N2  <0> A   1     -28.433   1.486  50.848  0.00  0.00    -0.491 NA
ATOM     17  C24 <0> A   1     -27.465   0.990  50.100  0.00  0.00    +0.254 A 
ATOM     18  C25 <0> A   1     -27.160  -0.355  50.140  0.00  0.00    -0.032 A 
ENDBRANCH   3  13
BRANCH   1  20
ATOM     19  C1  <0> A   1     -29.772  -6.327  51.550  0.00  0.00    +0.040 C 
ATOM     20  C2  <0> A   1     -28.448  -6.237  50.788  0.00  0.00    +0.048 C 
ATOM     21  C3  <0> A   1     -28.697  -6.500  49.301  0.00  0.00    +0.033 C 
ENDBRANCH   1  20
BRANCH   5  22
ATOM     22  C8  <0> A   1     -25.545  -5.589  51.623  0.00  0.00    +0.292 C 
BRANCH  22  23
ATOM     23  C9  <0> A   1     -24.700  -5.829  50.370  0.00  0.00    +0.052 C 
BRANCH  23  24
ATOM     24  C10 <0> A   1     -25.082  -7.173  49.748  0.00  0.00    +0.203 C 
ATOM     25  C11 <0> A   1     -25.073  -8.259  50.828  0.00  0.00    +0.045 C 
ATOM     26  C12 <0> A   1     -25.414  -9.610  50.193  0.00  0.00    +0.187 C 
ATOM     27  C13 <0> A   1     -24.373  -9.928  49.113  0.00  0.00    +0.025 C 
ATOM     28  C14 <0> A   1     -24.277  -8.739  48.182  0.00  0.00    +0.497 C 
ATOM     29  O1  <0> A   1     -24.326  -8.883  46.982  0.00  0.00    -0.449 OA
ATOM     30  O2  <0> A   1     -24.136  -7.514  48.727  0.00  0.00    -0.370 OA
BRANCH  26  31
ATOM     31  O3  <0> A   1     -26.715  -9.548  49.604  0.00  0.00    -0.564 OA
ATOM     32  H19 <0> A   1     -26.777  -9.977  48.740  0.00  0.00    +0.388 HD
ENDBRANCH  26  31
ENDBRANCH  23  24
ENDBRANCH  22  23
ENDBRANCH   5  22
TORSDOF 7
ENDMDL
MODEL 10
REMARK VINA RESULT:      -7.4      3.679      5.576
REMARK  Name = CHEMBL120897
REMARK  9 active torsions:
REMARK  status: ('A' for Active; 'I' for Inactive)
REMARK    1  A    between atoms: C1_1  and  C2_2
REMARK    2  A    between atoms: C2_2  and  C3_3
REMARK    3  A    between atoms: C2_2  and  C4_4
REMARK    4  A    between atoms: C6_6  and  C21_28
REMARK    5  A    between atoms: C7_7  and  C15_21
REMARK    6  A    between atoms: N1_8  and  C8_9
REMARK    7  A    between atoms: C8_9  and  C9_10
REMARK    8  A    between atoms: C9_10  and  C10_11
REMARK    9  A    between atoms: C12_14  and  O3_20
REMARK                            x       y       z     vdW  Elec       q    Type
REMARK                         _______ _______ _______ _____ _____    ______ ____
ROOT
ATOM      1  C4  <0> A   1     -15.120   6.743  45.586  0.00  0.00    +0.043 C 
ATOM      2  C5  <0> A   1     -14.104   7.576  45.293  0.00  0.00    -0.028 C 
ATOM      3  C6  <0> A   1     -14.048   8.560  46.309  0.00  0.00    -0.116 C 
ATOM      4  C7  <0> A   1     -15.067   8.269  47.203  0.00  0.00    +0.069 C 
ATOM      5  N1  <0> A   1     -15.717   7.157  46.741  0.00  0.00    -0.426 N 
ENDROOT
BRANCH   4   6
ATOM      6  C15 <0> A   1     -15.396   9.026  48.428  0.00  0.00    -0.028 A 
ATOM      7  C16 <0> A   1     -16.247  10.130  48.362  0.00  0.00    +0.043 A 
ATOM      8  C17 <0> A   1     -16.551  10.834  49.509  0.00  0.00    -0.008 A 
ATOM      9  C18 <0> A   1     -16.012  10.445  50.726  0.00  0.00    +0.104 A 
ATOM     10  C19 <0> A   1     -15.165   9.351  50.797  0.00  0.00    -0.007 A 
ATOM     11  C20 <0> A   1     -14.859   8.637  49.658  0.00  0.00    +0.070 A 
ATOM     12  F1  <0> A   1     -16.312  11.138  51.846  0.00  0.00    -0.137 F 
ENDBRANCH   4   6
BRANCH   3  13
ATOM     13  C21 <0> A   1     -13.088   9.683  46.400  0.00  0.00    +0.044 A 
ATOM     14  C22 <0> A   1     -11.824   9.504  46.973  0.00  0.00    -0.033 A 
ATOM     15  C23 <0> A   1     -10.961  10.577  47.036  0.00  0.00    +0.254 A 
ATOM     16  N2  <0> A   1     -11.314  11.759  46.566  0.00  0.00    -0.491 NA
ATOM     17  C24 <0> A   1     -12.496  11.971  46.018  0.00  0.00    +0.254 A 
ATOM     18  C25 <0> A   1     -13.417  10.951  45.908  0.00  0.00    -0.032 A 
ENDBRANCH   3  13
BRANCH   1  20
ATOM     19  C1  <0> A   1     -15.255   5.822  43.287  0.00  0.00    +0.040 C 
ATOM     20  C2  <0> A   1     -15.535   5.548  44.766  0.00  0.00    +0.048 C 
ATOM     21  C3  <0> A   1     -14.742   4.320  45.217  0.00  0.00    +0.033 C 
ENDBRANCH   1  20
BRANCH   5  22
ATOM     22  C8  <0> A   1     -16.864   6.512  47.384  0.00  0.00    +0.292 C 
BRANCH  22  23
ATOM     23  C9  <0> A   1     -18.159   7.148  46.874  0.00  0.00    +0.052 C 
BRANCH  23  24
ATOM     24  C10 <0> A   1     -19.262   6.966  47.918  0.00  0.00    +0.203 C 
ATOM     25  C11 <0> A   1     -18.787   7.516  49.266  0.00  0.00    +0.045 C 
ATOM     26  C12 <0> A   1     -19.877   7.295  50.318  0.00  0.00    +0.187 C 
ATOM     27  C13 <0> A   1     -20.162   5.792  50.429  0.00  0.00    +0.025 C 
ATOM     28  C14 <0> A   1     -20.432   5.256  49.039  0.00  0.00    +0.497 C 
ATOM     29  O1  <0> A   1     -21.398   4.565  48.817  0.00  0.00    -0.449 OA
ATOM     30  O2  <0> A   1     -19.566   5.573  48.056  0.00  0.00    -0.370 OA
BRANCH  26  31
ATOM     31  O3  <0> A   1     -21.067   7.983  49.926  0.00  0.00    -0.564 OA
ATOM     32  H19 <0> A   1     -21.203   8.020  48.970  0.00  0.00    +0.388 HD
ENDBRANCH  26  31
ENDBRANCH  23  24
ENDBRANCH  22  23
ENDBRANCH   5  22
TORSDOF 7
ENDMDL
