REMARK VINA RESULT:      -7.9      6.648     10.874
REMARK  Name = CHEMBL398523
REMARK  15 active torsions:
REMARK  status: ('A' for Active; 'I' for Inactive)
REMARK    1  A    between atoms: C1_1  and  C2_2
REMARK    2  A    between atoms: C2_2  and  C3_3
REMARK    3  A    between atoms: C2_2  and  C4_4
REMARK    4  A    between atoms: C5_5  and  C25_30
REMARK    5  A    between atoms: N1_6  and  C19_23
REMARK    6  A    between atoms: C6_8  and  C7_9
REMARK    7  A    between atoms: C12_16  and  C13_17
REMARK    8  A    between atoms: C25_30  and  C26_31
REMARK    9  A    between atoms: C26_31  and  C27_32
REMARK   10  A    between atoms: C27_32  and  C28_34
REMARK   11  A    between atoms: C27_32  and  O5_42
REMARK   12  A    between atoms: C28_34  and  C29_35
REMARK   13  A    between atoms: C29_35  and  C30_37
REMARK   14  A    between atoms: C29_35  and  O4_41
REMARK   15  A    between atoms: C30_37  and  C31_38
REMARK                            x       y       z     vdW  Elec       q    Type
REMARK                         _______ _______ _______ _____ _____    ______ ____
ROOT
ATOM      1  C4  <0> A   1     -25.316  -3.776  51.170  0.00  0.00    -0.123 C 
ATOM      2  C5  <0> A   1     -25.943  -4.910  50.780  0.00  0.00    +0.031 C 
ATOM      3  N1  <0> A   1     -27.151  -4.933  51.404  0.00  0.00    -0.236 N 
ATOM      4  N2  <0> A   1     -27.288  -3.889  52.139  0.00  0.00    -0.263 NA
ATOM      5  C6  <0> A   1     -26.210  -3.132  52.059  0.00  0.00    +0.002 C 
ENDROOT
BRANCH   5   6
ATOM      6  C7  <0> A   1     -25.981  -1.854  52.761  0.00  0.00    +0.594 C 
ATOM      7  O1  <0> A   1     -25.223  -1.809  53.710  0.00  0.00    -0.481 OA
ATOM      8  N3  <0> A   1     -26.611  -0.737  52.348  0.00  0.00    -0.597 N 
ATOM      9  C8  <0> A   1     -27.631  -0.799  51.293  0.00  0.00    +0.274 C 
ATOM     10  C9  <0> A   1     -27.263   0.199  50.190  0.00  0.00    +0.009 C 
ATOM     11  C10 <0> A   1     -27.079   1.588  50.807  0.00  0.00    +0.009 C 
ATOM     12  C11 <0> A   1     -25.939   1.550  51.825  0.00  0.00    +0.021 C 
ATOM     13  C12 <0> A   1     -26.296   0.567  52.950  0.00  0.00    +0.268 C 
BRANCH  13  14
ATOM     14  C13 <0> A   1     -25.125   0.420  53.887  0.00  0.00    -0.055 A 
ATOM     15  C14 <0> A   1     -25.340   0.272  55.244  0.00  0.00    +0.040 A 
ATOM     16  C15 <0> A   1     -24.266   0.136  56.103  0.00  0.00    -0.005 A 
ATOM     17  C16 <0> A   1     -22.976   0.148  55.605  0.00  0.00    -0.006 A 
ATOM     18  C17 <0> A   1     -22.762   0.296  54.247  0.00  0.00    -0.006 A 
ATOM     19  C18 <0> A   1     -23.836   0.427  53.388  0.00  0.00    -0.003 A 
ENDBRANCH  13  14
ENDBRANCH   5   6
BRANCH   3  20
ATOM     20  C19 <0> A   1     -28.108  -5.947  51.263  0.00  0.00    +0.117 A 
ATOM     21  C20 <0> A   1     -28.956  -5.955  50.163  0.00  0.00    +0.068 A 
ATOM     22  C21 <0> A   1     -29.898  -6.956  50.026  0.00  0.00    +0.020 A 
ATOM     23  C22 <0> A   1     -29.997  -7.950  50.984  0.00  0.00    +0.112 A 
ATOM     24  C23 <0> A   1     -29.153  -7.943  52.082  0.00  0.00    +0.008 A 
ATOM     25  C24 <0> A   1     -28.206  -6.948  52.220  0.00  0.00    +0.070 A 
ATOM     26  F1  <0> A   1     -30.920  -8.928  50.848  0.00  0.00    -0.131 F 
ENDBRANCH   3  20
BRANCH   1  28
ATOM     27  C1  <0> A   1     -24.021  -1.824  50.354  0.00  0.00    +0.028 C 
ATOM     28  C2  <0> A   1     -23.949  -3.301  50.750  0.00  0.00    +0.060 C 
ATOM     29  C3  <0> A   1     -22.971  -3.469  51.914  0.00  0.00    +0.025 C 
ENDBRANCH   1  28
BRANCH   2  30
ATOM     30  C25 <0> A   1     -25.405  -5.951  49.834  0.00  0.00    +0.127 C 
BRANCH  30  31
ATOM     31  C26 <0> A   1     -24.535  -6.943  50.608  0.00  0.00    -0.008 C 
BRANCH  31  32
ATOM     32  C27 <0> A   1     -24.191  -8.131  49.707  0.00  0.00    +0.214 C 
BRANCH  32  33
ATOM     33  O5  <0> A   1     -23.426  -7.676  48.589  0.00  0.00    -0.540 OA
ATOM     34  H37 <0> A   1     -22.681  -8.249  48.361  0.00  0.00    +0.363 HD
ENDBRANCH  32  33
BRANCH  32  35
ATOM     35  C28 <0> A   1     -23.374  -9.153  50.501  0.00  0.00    -0.052 C 
BRANCH  35  36
ATOM     36  C29 <0> A   1     -24.084 -10.508  50.471  0.00  0.00    +0.231 C 
BRANCH  36  37
ATOM     37  O4  <0> A   1     -25.497 -10.303  50.411  0.00  0.00    -0.528 OA
ATOM     38  H36 <0> A   1     -25.847 -10.233  49.513  0.00  0.00    +0.349 HD
ENDBRANCH  36  37
BRANCH  36  39
ATOM     39  C30 <0> A   1     -23.630 -11.294  49.239  0.00  0.00    -0.103 C 
BRANCH  39  40
ATOM     40  C31 <0> A   1     -24.728 -12.234  48.811  0.00  0.00    +0.491 C 
ATOM     41  O2  <0> A   1     -25.355 -12.012  47.789  0.00  0.00    -0.681 OA
ATOM     42  O3  <0> A   1     -24.987 -13.216  49.485  0.00  0.00    -0.713 OA
ENDBRANCH  39  40
ENDBRANCH  36  39
ENDBRANCH  35  36
ENDBRANCH  32  35
ENDBRANCH  31  32
ENDBRANCH  30  31
ENDBRANCH   2  30
TORSDOF 13
