REMARK VINA RESULT:      -7.5      4.098      7.129
REMARK  Name = CHEMBL419542
REMARK  11 active torsions:
REMARK  status: ('A' for Active; 'I' for Inactive)
REMARK    1  A    between atoms: C6_6  and  C7_7
REMARK    2  A    between atoms: C7_7  and  C17_27
REMARK    3  A    between atoms: C8_8  and  C9_9
REMARK    4  A    between atoms: C8_8  and  C16_22
REMARK    5  A    between atoms: C10_10  and  C11_11
REMARK    6  A    between atoms: C11_11  and  C12_13
REMARK    7  A    between atoms: C11_11  and  O4_21
REMARK    8  A    between atoms: C12_13  and  C13_14
REMARK    9  A    between atoms: C13_14  and  C14_16
REMARK   10  A    between atoms: C13_14  and  O3_20
REMARK   11  A    between atoms: C14_16  and  C15_17
REMARK                            x       y       z     vdW  Elec       q    Type
REMARK                         _______ _______ _______ _____ _____    ______ ____
ROOT
ATOM      1  C7  <0> A   1     -13.657   9.508  44.081  0.00  0.00    +0.014 C 
ATOM      2  C8  <0> A   1     -13.809   8.167  44.252  0.00  0.00    -0.039 C 
ENDROOT
BRANCH   1   8
ATOM      3  C1  <0> A   1     -12.423  10.762  45.845  0.00  0.00    +0.070 A 
ATOM      4  C2  <0> A   1     -12.410  11.599  46.940  0.00  0.00    -0.012 A 
ATOM      5  C3  <0> A   1     -13.600  12.086  47.457  0.00  0.00    +0.110 A 
ATOM      6  C4  <0> A   1     -14.808  11.734  46.878  0.00  0.00    -0.007 A 
ATOM      7  C5  <0> A   1     -14.833  10.898  45.782  0.00  0.00    +0.068 A 
ATOM      8  C6  <0> A   1     -13.638  10.405  45.256  0.00  0.00    -0.064 A 
ATOM      9  F2  <0> A   1     -13.582  12.906  48.531  0.00  0.00    -0.136 F 
ENDBRANCH   1   8
BRANCH   1  10
ATOM     10  C17 <0> A   1     -13.513  10.068  42.720  0.00  0.00    -0.078 A 
ATOM     11  C18 <0> A   1     -14.452  10.980  42.235  0.00  0.00    +0.058 A 
ATOM     12  C19 <0> A   1     -14.314  11.499  40.965  0.00  0.00    -0.009 A 
ATOM     13  C20 <0> A   1     -13.244  11.116  40.170  0.00  0.00    +0.108 A 
ATOM     14  C21 <0> A   1     -12.309  10.211  40.647  0.00  0.00    -0.008 A 
ATOM     15  C22 <0> A   1     -12.435   9.691  41.917  0.00  0.00    +0.078 A 
ATOM     16  F1  <0> A   1     -13.113  11.627  38.926  0.00  0.00    -0.136 F 
ENDBRANCH   1  10
BRANCH   2  17
ATOM     17  C16 <0> A   1     -13.829   7.253  43.054  0.00  0.00    +0.246 C 
ATOM     18  N1  <0> A   1     -15.178   6.697  42.850  0.00  0.00    -0.116 NA
ATOM     19  N2  <0> A   1     -15.065   5.470  42.964  0.00  0.00    -0.041 NA
ATOM     20  N3  <0> A   1     -13.752   5.089  43.231  0.00  0.00    -0.042 NA
ATOM     21  N4  <0> A   1     -12.992   6.066  43.296  0.00  0.00    -0.118 NA
ENDBRANCH   2  17
BRANCH   2  22
ATOM     22  C9  <0> A   1     -13.951   7.613  45.597  0.00  0.00    +0.012 C 
ATOM     23  C10 <0> A   1     -15.152   7.241  46.042  0.00  0.00    -0.065 C 
BRANCH  23  24
ATOM     24  C11 <0> A   1     -15.298   6.670  47.430  0.00  0.00    +0.258 C 
BRANCH  24  25
ATOM     25  O4  <0> A   1     -15.449   7.736  48.369  0.00  0.00    -0.533 OA
ATOM     26  H14 <0> A   1     -15.845   7.466  49.210  0.00  0.00    +0.365 HD
ENDBRANCH  24  25
BRANCH  24  27
ATOM     27  C12 <0> A   1     -16.532   5.766  47.482  0.00  0.00    -0.037 C 
BRANCH  27  28
ATOM     28  C13 <0> A   1     -17.763   6.603  47.836  0.00  0.00    +0.233 C 
BRANCH  28  29
ATOM     29  O3  <0> A   1     -18.513   6.872  46.650  0.00  0.00    -0.528 OA
ATOM     30  H13 <0> A   1     -19.200   6.217  46.462  0.00  0.00    +0.350 HD
ENDBRANCH  28  29
BRANCH  28  31
ATOM     31  C14 <0> A   1     -18.635   5.832  48.828  0.00  0.00    -0.099 C 
BRANCH  31  32
ATOM     32  C15 <0> A   1     -20.078   6.223  48.637  0.00  0.00    +0.491 C 
ATOM     33  O1  <0> A   1     -20.847   5.459  48.078  0.00  0.00    -0.681 OA
ATOM     34  O2  <0> A   1     -20.476   7.302  49.041  0.00  0.00    -0.712 OA
ENDBRANCH  31  32
ENDBRANCH  28  31
ENDBRANCH  27  28
ENDBRANCH  24  27
ENDBRANCH  23  24
ENDBRANCH   2  22
TORSDOF 11
