REMARK VINA RESULT:      -7.3      2.827      4.094
REMARK  Name = CHEMBL121052
REMARK  12 active torsions:
REMARK  status: ('A' for Active; 'I' for Inactive)
REMARK    1  A    between atoms: C3_3  and  C5_6
REMARK    2  A    between atoms: C6_7  and  C16_28
REMARK    3  A    between atoms: C7_9  and  C15_24
REMARK    4  A    between atoms: N2_10  and  C8_11
REMARK    5  A    between atoms: C8_11  and  C9_12
REMARK    6  A    between atoms: C9_12  and  C10_13
REMARK    7  A    between atoms: C10_13  and  C11_15
REMARK    8  A    between atoms: C10_13  and  O4_23
REMARK    9  A    between atoms: C11_15  and  C12_16
REMARK   10  A    between atoms: C12_16  and  C13_18
REMARK   11  A    between atoms: C12_16  and  O3_22
REMARK   12  A    between atoms: C13_18  and  C14_19
REMARK                            x       y       z     vdW  Elec       q    Type
REMARK                         _______ _______ _______ _____ _____    ______ ____
ROOT
ATOM      1  C5  <0> A   1     -14.260   7.927  46.395  0.00  0.00    +0.115 C 
ATOM      2  C6  <0> A   1     -15.525   7.586  46.847  0.00  0.00    +0.073 C 
ATOM      3  N1  <0> A   1     -16.015   6.652  46.010  0.00  0.00    -0.413 NA
ATOM      4  C7  <0> A   1     -15.140   6.396  45.079  0.00  0.00    +0.119 C 
ATOM      5  N2  <0> A   1     -14.037   7.164  45.269  0.00  0.00    -0.413 N 
ENDROOT
BRANCH   2   6
ATOM      6  C16 <0> A   1     -16.212   8.146  48.033  0.00  0.00    -0.015 A 
ATOM      7  C17 <0> A   1     -16.730   7.295  49.009  0.00  0.00    +0.066 A 
ATOM      8  C18 <0> A   1     -17.370   7.823  50.112  0.00  0.00    -0.013 A 
ATOM      9  C19 <0> A   1     -17.496   9.196  50.252  0.00  0.00    +0.103 A 
ATOM     10  C20 <0> A   1     -16.982  10.046  49.285  0.00  0.00    -0.015 A 
ATOM     11  C21 <0> A   1     -16.336   9.529  48.182  0.00  0.00    +0.080 A 
ATOM     12  F4  <0> A   1     -18.122   9.707  51.334  0.00  0.00    -0.139 F 
ENDBRANCH   2   6
BRANCH   1  15
ATOM     13  C1  <0> A   1     -12.189  10.948  47.344  0.00  0.00    -0.020 C 
ATOM     14  C2  <0> A   1     -13.103  10.218  46.619  0.00  0.00    +0.032 C 
ATOM     15  C3  <0> A   1     -13.344   8.909  46.993  0.00  0.00    -0.117 C 
ATOM     16  S1  <0> A   1     -12.252   8.722  48.393  0.00  0.00    +0.081 S 
ATOM     17  C4  <0> A   1     -11.556  10.366  48.394  0.00  0.00    +0.032 C 
ENDBRANCH   1  15
BRANCH   4  18
ATOM     18  C15 <0> A   1     -15.326   5.405  43.959  0.00  0.00    +0.565 C 
ATOM     19  F1  <0> A   1     -15.300   6.076  42.732  0.00  0.00    -0.148 F 
ATOM     20  F2  <0> A   1     -14.296   4.460  43.997  0.00  0.00    -0.166 F 
ATOM     21  F3  <0> A   1     -16.558   4.757  44.111  0.00  0.00    -0.161 F 
ENDBRANCH   4  18
BRANCH   5  22
ATOM     22  C8  <0> A   1     -12.832   7.179  44.436  0.00  0.00    +0.309 C 
BRANCH  22  23
ATOM     23  C9  <0> A   1     -12.985   8.233  43.337  0.00  0.00    -0.012 C 
BRANCH  23  24
ATOM     24  C10 <0> A   1     -12.218   7.785  42.091  0.00  0.00    +0.223 C 
BRANCH  24  25
ATOM     25  O4  <0> A   1     -11.885   6.400  42.210  0.00  0.00    -0.537 OA
ATOM     26  H15 <0> A   1     -12.452   5.909  42.819  0.00  0.00    +0.365 HD
ENDBRANCH  24  25
BRANCH  24  27
ATOM     27  C11 <0> A   1     -13.090   7.995  40.852  0.00  0.00    -0.045 C 
BRANCH  27  28
ATOM     28  C12 <0> A   1     -12.566   9.192  40.056  0.00  0.00    +0.233 C 
BRANCH  28  29
ATOM     29  O3  <0> A   1     -12.994   9.083  38.696  0.00  0.00    -0.527 OA
ATOM     30  H14 <0> A   1     -12.281   8.873  38.077  0.00  0.00    +0.350 HD
ENDBRANCH  28  29
BRANCH  28  31
ATOM     31  C13 <0> A   1     -13.114  10.486  40.662  0.00  0.00    -0.101 C 
BRANCH  31  32
ATOM     32  C14 <0> A   1     -13.899  11.237  39.617  0.00  0.00    +0.491 C 
ATOM     33  O1  <0> A   1     -13.321  11.957  38.821  0.00  0.00    -0.681 OA
ATOM     34  O2  <0> A   1     -15.111  11.123  39.568  0.00  0.00    -0.712 OA
ENDBRANCH  31  32
ENDBRANCH  28  31
ENDBRANCH  27  28
ENDBRANCH  24  27
ENDBRANCH  23  24
ENDBRANCH  22  23
ENDBRANCH   5  22
TORSDOF 12
