REMARK VINA RESULT:      -7.4      2.398      4.534
REMARK  Name = CHEMBL143347
REMARK  12 active torsions:
REMARK  status: ('A' for Active; 'I' for Inactive)
REMARK    1  A    between atoms: C1_1  and  C2_2
REMARK    2  A    between atoms: C2_2  and  C3_3
REMARK    3  A    between atoms: C2_2  and  C4_4
REMARK    4  A    between atoms: C5_5  and  C19_22
REMARK    5  A    between atoms: C6_6  and  C13_15
REMARK    6  A    between atoms: C20_23  and  C21_24
REMARK    7  A    between atoms: C21_24  and  C22_25
REMARK    8  A    between atoms: C21_24  and  O4_33
REMARK    9  A    between atoms: C22_25  and  C23_26
REMARK   10  A    between atoms: C23_26  and  C24_28
REMARK   11  A    between atoms: C23_26  and  O3_32
REMARK   12  A    between atoms: C24_28  and  C25_29
REMARK                            x       y       z     vdW  Elec       q    Type
REMARK                         _______ _______ _______ _____ _____    ______ ____
ROOT
ATOM      1  C4  <0> A   1     -13.580  10.897  45.827  0.00  0.00    +0.189 A 
ATOM      2  C5  <0> A   1     -13.512   9.544  45.461  0.00  0.00    -0.076 A 
ATOM      3  C6  <0> A   1     -14.341   8.616  46.107  0.00  0.00    +0.019 A 
ATOM      4  C7  <0> A   1     -15.217   9.101  47.110  0.00  0.00    -0.082 A 
ATOM      5  C8  <0> A   1     -16.077   8.237  47.803  0.00  0.00    +0.058 A 
ATOM      6  C9  <0> A   1     -16.906   8.739  48.762  0.00  0.00    -0.033 A 
ATOM      7  C10 <0> A   1     -16.908  10.100  49.062  0.00  0.00    +0.042 A 
ATOM      8  C11 <0> A   1     -16.086  10.964  48.407  0.00  0.00    +0.070 A 
ATOM      9  C12 <0> A   1     -15.216  10.484  47.413  0.00  0.00    +0.134 A 
ATOM     10  N1  <0> A   1     -14.395  11.317  46.762  0.00  0.00    -0.465 NA
ATOM     11 Cl1  <0> A   1     -17.971   7.669  49.620  0.00  0.00    -0.066 Cl
ENDROOT
BRANCH   3  12
ATOM     12  C13 <0> A   1     -14.303   7.181  45.754  0.00  0.00    -0.064 A 
ATOM     13  C14 <0> A   1     -13.469   6.309  46.456  0.00  0.00    +0.073 A 
ATOM     14  C15 <0> A   1     -13.438   4.972  46.122  0.00  0.00    -0.006 A 
ATOM     15  C16 <0> A   1     -14.232   4.493  45.091  0.00  0.00    +0.110 A 
ATOM     16  C17 <0> A   1     -15.060   5.354  44.390  0.00  0.00    -0.011 A 
ATOM     17  C18 <0> A   1     -15.104   6.693  44.719  0.00  0.00    +0.062 A 
ATOM     18  F1  <0> A   1     -14.196   3.180  44.768  0.00  0.00    -0.136 F 
ENDBRANCH   3  12
BRANCH   1  20
ATOM     19  C1  <0> A   1     -13.490  12.634  44.060  0.00  0.00    +0.041 C 
ATOM     20  C2  <0> A   1     -12.688  11.892  45.131  0.00  0.00    +0.039 C 
ATOM     21  C3  <0> A   1     -12.149  12.896  46.152  0.00  0.00    +0.040 C 
ENDBRANCH   1  20
BRANCH   2  22
ATOM     22  C19 <0> A   1     -12.578   9.103  44.407  0.00  0.00    +0.010 C 
ATOM     23  C20 <0> A   1     -12.989   9.022  43.147  0.00  0.00    -0.037 C 
BRANCH  23  24
ATOM     24  C21 <0> A   1     -12.035   8.572  42.072  0.00  0.00    +0.252 C 
BRANCH  24  25
ATOM     25  O4  <0> A   1     -11.276   7.456  42.544  0.00  0.00    -0.536 OA
ATOM     26  H24 <0> A   1     -11.639   6.597  42.286  0.00  0.00    +0.366 HD
ENDBRANCH  24  25
BRANCH  24  27
ATOM     27  C22 <0> A   1     -12.826   8.160  40.828  0.00  0.00    -0.041 C 
BRANCH  27  28
ATOM     28  C23 <0> A   1     -12.660   9.225  39.743  0.00  0.00    +0.232 C 
BRANCH  28  29
ATOM     29  O3  <0> A   1     -12.360   8.591  38.496  0.00  0.00    -0.527 OA
ATOM     30  H23 <0> A   1     -11.927   9.170  37.856  0.00  0.00    +0.350 HD
ENDBRANCH  28  29
BRANCH  28  31
ATOM     31  C24 <0> A   1     -13.958  10.024  39.609  0.00  0.00    -0.102 C 
BRANCH  31  32
ATOM     32  C25 <0> A   1     -13.792  11.367  40.270  0.00  0.00    +0.490 C 
ATOM     33  O1  <0> A   1     -14.765  12.075  40.467  0.00  0.00    -0.681 OA
ATOM     34  O2  <0> A   1     -12.684  11.746  40.610  0.00  0.00    -0.713 OA
ENDBRANCH  31  32
ENDBRANCH  28  31
ENDBRANCH  27  28
ENDBRANCH  24  27
ENDBRANCH  23  24
ENDBRANCH   2  22
TORSDOF 10
