REMARK VINA RESULT:      -7.5      0.000      0.000
REMARK  Name = CHEMBL84252
REMARK  13 active torsions:
REMARK  status: ('A' for Active; 'I' for Inactive)
REMARK    1  A    between atoms: C1_1  and  C2_2
REMARK    2  A    between atoms: C2_2  and  C3_3
REMARK    3  A    between atoms: C3_3  and  C4_4
REMARK    4  A    between atoms: C3_3  and  C5_5
REMARK    5  A    between atoms: C3_3  and  C6_6
REMARK    6  A    between atoms: C6_6  and  O2_8
REMARK    7  A    between atoms: O2_8  and  C7_9
REMARK    8  A    between atoms: C9_12  and  C25_37
REMARK    9  A    between atoms: C13_19  and  C18_26
REMARK   10  A    between atoms: C14_21  and  C17_25
REMARK   11  A    between atoms: C18_26  and  C19_27
REMARK   12  A    between atoms: C19_27  and  C20_28
REMARK   13  A    between atoms: C22_30  and  O6_36
REMARK                            x       y       z     vdW  Elec       q    Type
REMARK                         _______ _______ _______ _____ _____    ______ ____
ROOT
ATOM      1  C7  <0> A   1     -13.755   9.243  47.272  0.00  0.00    +0.184 C 
ATOM      2  C8  <0> A   1     -12.822   8.292  48.042  0.00  0.00    +0.028 C 
ATOM      3  C9  <0> A   1     -12.431   8.935  49.375  0.00  0.00    -0.030 C 
ATOM      4  C10 <0> A   1     -11.818  10.288  49.084  0.00  0.00    +0.366 C 
ATOM      5  O3  <0> A   1     -10.744  10.591  49.548  0.00  0.00    -0.443 OA
ATOM      6  C11 <0> A   1     -12.586  11.242  48.201  0.00  0.00    -0.020 C 
ATOM      7  C12 <0> A   1     -13.004  10.512  46.913  0.00  0.00    +0.023 C 
ATOM      8  C13 <0> A   1     -13.751  11.493  46.032  0.00  0.00    -0.002 C 
ATOM      9  C14 <0> A   1     -14.942  12.158  46.700  0.00  0.00    -0.015 C 
ATOM     10  C15 <0> A   1     -14.598  12.718  48.074  0.00  0.00    +0.023 C 
ATOM     11  C16 <0> A   1     -13.849  11.704  48.931  0.00  0.00    +0.028 C 
ATOM     12  C17 <0> A   1     -16.151  11.230  46.768  0.00  0.00    +0.016 C 
ATOM     13  C25 <0> A   1     -11.410   8.052  50.094  0.00  0.00    +0.050 C 
ENDROOT
BRANCH   1  14
ATOM     14  O2  <0> A   1     -14.213   8.542  46.115  0.00  0.00    -0.331 OA
BRANCH  14  15
ATOM     15  C6  <0> A   1     -15.121   7.573  46.310  0.00  0.00    +0.471 C 
ATOM     16  O1  <0> A   1     -16.054   7.759  47.055  0.00  0.00    -0.505 OA
BRANCH  15  17
ATOM     17  C3  <0> A   1     -14.977   6.252  45.597  0.00  0.00    -0.056 C 
ATOM     18  C4  <0> A   1     -16.349   5.787  45.106  0.00  0.00    +0.057 C 
ATOM     19  C5  <0> A   1     -14.402   5.213  46.562  0.00  0.00    +0.077 C 
BRANCH  17  21
ATOM     20  C1  <0> A   1     -14.818   6.210  43.105  0.00  0.00    +0.023 C 
ATOM     21  C2  <0> A   1     -14.036   6.417  44.403  0.00  0.00    +0.034 C 
ENDBRANCH  17  21
ENDBRANCH  15  17
ENDBRANCH  14  15
ENDBRANCH   1  14
BRANCH   8  22
ATOM     22  C18 <0> A   1     -14.152  10.890  44.689  0.00  0.00    +0.038 C 
BRANCH  22  23
ATOM     23  C19 <0> A   1     -13.736  11.837  43.561  0.00  0.00    +0.045 C 
BRANCH  23  24
ATOM     24  C20 <0> A   1     -13.090  11.031  42.433  0.00  0.00    +0.195 C 
ATOM     25  C21 <0> A   1     -13.963  11.117  41.177  0.00  0.00    +0.037 C 
ATOM     26  C22 <0> A   1     -13.334  10.276  40.062  0.00  0.00    +0.182 C 
ATOM     27  C23 <0> A   1     -13.230   8.821  40.538  0.00  0.00    +0.016 C 
ATOM     28  C24 <0> A   1     -12.533   8.810  41.880  0.00  0.00    +0.495 C 
ATOM     29  O4  <0> A   1     -11.611   8.058  42.095  0.00  0.00    -0.447 OA
ATOM     30  O5  <0> A   1     -12.970   9.661  42.832  0.00  0.00    -0.361 OA
BRANCH  26  31
ATOM     31  O6  <0> A   1     -12.031  10.778  39.760  0.00  0.00    -0.563 OA
ATOM     32  H37 <0> A   1     -12.030  11.656  39.357  0.00  0.00    +0.386 HD
ENDBRANCH  26  31
ENDBRANCH  23  24
ENDBRANCH  22  23
ENDBRANCH   8  22
TORSDOF 8
