REMARK  Name = CHEMBL154335
REMARK  8 active torsions:
REMARK  status: ('A' for Active; 'I' for Inactive)
REMARK    1  A    between atoms: C1_1  and  C2_2
REMARK    2  A    between atoms: C2_2  and  C3_3
REMARK    3  A    between atoms: C2_2  and  C4_4
REMARK    4  A    between atoms: C5_5  and  C20_23
REMARK    5  A    between atoms: C6_6  and  C14_16
REMARK    6  A    between atoms: C7_8  and  C8_10
REMARK    7  A    between atoms: C21_24  and  C22_25
REMARK    8  A    between atoms: C24_27  and  O3_33
REMARK                            x       y       z     vdW  Elec       q    Type
REMARK                         _______ _______ _______ _____ _____    ______ ____
ROOT
ATOM      1  C4  <0> A   1      -1.412  -0.526   0.013  0.00  0.00    +0.204 A 
ATOM      2  C5  <0> A   1      -1.877  -1.335  -1.027  0.00  0.00    -0.160 A 
ATOM      3  C6  <0> A   1      -3.209  -1.794  -0.964  0.00  0.00    +0.230 A 
ATOM      4  N1  <0> A   1      -3.959  -1.438   0.076  0.00  0.00    -0.504 NA
ATOM      5  C7  <0> A   1      -3.471  -0.673   1.030  0.00  0.00    +0.335 A 
ATOM      6  N2  <0> A   1      -2.229  -0.229   1.009  0.00  0.00    -0.510 NA
ENDROOT
BRANCH   3   7
ATOM      7  C14 <0> A   1      -3.762  -2.655  -2.035  0.00  0.00    -0.071 A 
ATOM      8  C15 <0> A   1      -3.363  -2.469  -3.358  0.00  0.00    +0.086 A 
ATOM      9  C16 <0> A   1      -3.881  -3.272  -4.352  0.00  0.00    -0.018 A 
ATOM     10  C17 <0> A   1      -4.797  -4.264  -4.037  0.00  0.00    +0.120 A 
ATOM     11  C18 <0> A   1      -5.197  -4.452  -2.724  0.00  0.00    -0.020 A 
ATOM     12  C19 <0> A   1      -4.680  -3.658  -1.722  0.00  0.00    +0.096 A 
ATOM     13  F1  <0> A   1      -5.303  -5.048  -5.014  0.00  0.00    -0.135 F 
ENDBRANCH   3   7
BRANCH   5  14
ATOM     14  C8  <0> A   1      -4.359  -0.297   2.187  0.00  0.00    +0.080 C 
ATOM     15  C9  <0> A   1      -4.820  -1.565   2.909  0.00  0.00    +0.027 C 
ATOM     16  C10 <0> A   1      -5.722  -1.183   4.085  0.00  0.00    +0.011 C 
ATOM     17  C11 <0> A   1      -6.942  -0.420   3.565  0.00  0.00    +0.005 C 
ATOM     18  C12 <0> A   1      -6.481   0.848   2.843  0.00  0.00    +0.011 C 
ATOM     19  C13 <0> A   1      -5.579   0.466   1.667  0.00  0.00    +0.027 C 
ENDBRANCH   5  14
BRANCH   1  21
ATOM     20  C1  <0> A   1      -0.019   1.526   0.010  0.00  0.00    +0.044 C 
ATOM     21  C2  <0> A   1       0.002  -0.004   0.002  0.00  0.00    +0.045 C 
ATOM     22  C3  <0> A   1       0.742  -0.511   1.242  0.00  0.00    +0.044 C 
ENDBRANCH   1  21
BRANCH   2  23
ATOM     23  C20 <0> A   1      -1.000  -1.699  -2.158  0.00  0.00    +0.052 C 
ATOM     24  C21 <0> A   1      -0.889  -2.967  -2.530  0.00  0.00    -0.007 C 
BRANCH  24  25
ATOM     25  C22 <0> A   1       0.006  -3.338  -3.685  0.00  0.00    +0.244 C 
ATOM     26  C23 <0> A   1       1.014  -4.396  -3.230  0.00  0.00    +0.051 C 
ATOM     27  C24 <0> A   1       1.949  -4.741  -4.395  0.00  0.00    +0.186 C 
ATOM     28  C25 <0> A   1       2.679  -3.466  -4.838  0.00  0.00    +0.024 C 
ATOM     29  C26 <0> A   1       1.645  -2.389  -5.085  0.00  0.00    +0.498 C 
ATOM     30  O1  <0> A   1       1.658  -1.737  -6.103  0.00  0.00    -0.449 OA
ATOM     31  O2  <0> A   1       0.710  -2.176  -4.136  0.00  0.00    -0.370 OA
BRANCH  27  32
ATOM     32  O3  <0> A   1       1.184  -5.261  -5.484  0.00  0.00    -0.563 OA
ATOM     33  H31 <0> A   1       1.714  -5.501  -6.257  0.00  0.00    +0.388 HD
ENDBRANCH  27  32
ENDBRANCH  24  25
ENDBRANCH   2  23
TORSDOF 6
