REMARK VINA RESULT:      -7.5      3.941      8.093
REMARK  Name = CHEMBL102168
REMARK  15 active torsions:
REMARK  status: ('A' for Active; 'I' for Inactive)
REMARK    1  A    between atoms: C1_1  and  C2_2
REMARK    2  A    between atoms: C2_2  and  C3_3
REMARK    3  A    between atoms: C2_2  and  C4_4
REMARK    4  A    between atoms: C6_6  and  S1_29
REMARK    5  A    between atoms: C8_8  and  C16_22
REMARK    6  A    between atoms: C9_9  and  O1_10
REMARK    7  A    between atoms: O1_10  and  C10_11
REMARK    8  A    between atoms: C10_11  and  C11_12
REMARK    9  A    between atoms: C11_12  and  C12_13
REMARK   10  A    between atoms: C11_12  and  O5_21
REMARK   11  A    between atoms: C12_13  and  C13_14
REMARK   12  A    between atoms: C13_14  and  C14_16
REMARK   13  A    between atoms: C13_14  and  O4_20
REMARK   14  A    between atoms: C14_16  and  C15_17
REMARK   15  A    between atoms: S1_29  and  C22_30
REMARK                            x       y       z     vdW  Elec       q    Type
REMARK                         _______ _______ _______ _____ _____    ______ ____
ROOT
ATOM      1  C4  <0> A   1     -14.564   6.877  45.806  0.00  0.00    -0.097 A 
ATOM      2  C5  <0> A   1     -13.602   6.876  44.814  0.00  0.00    +0.091 A 
ATOM      3  C6  <0> A   1     -12.995   8.064  44.427  0.00  0.00    -0.151 A 
ATOM      4  C7  <0> A   1     -13.353   9.259  45.035  0.00  0.00    +0.095 A 
ATOM      5  C8  <0> A   1     -14.322   9.264  46.035  0.00  0.00    -0.070 A 
ATOM      6  C9  <0> A   1     -14.932   8.065  46.416  0.00  0.00    +0.147 A 
ENDROOT
BRANCH   5   7
ATOM      7  C16 <0> A   1     -14.709  10.537  46.689  0.00  0.00    -0.063 A 
ATOM      8  C17 <0> A   1     -13.771  11.260  47.423  0.00  0.00    +0.083 A 
ATOM      9  C18 <0> A   1     -14.136  12.444  48.029  0.00  0.00    -0.012 A 
ATOM     10  C19 <0> A   1     -15.434  12.915  47.909  0.00  0.00    +0.107 A 
ATOM     11  C20 <0> A   1     -16.370  12.200  47.181  0.00  0.00    -0.018 A 
ATOM     12  C21 <0> A   1     -16.012  11.016  46.567  0.00  0.00    +0.055 A 
ATOM     13  F1  <0> A   1     -15.787  14.075  48.505  0.00  0.00    -0.137 F 
ENDBRANCH   5   7
BRANCH   1  15
ATOM     14  C1  <0> A   1     -16.290   5.205  45.199  0.00  0.00    +0.031 C 
ATOM     15  C2  <0> A   1     -15.218   5.584  46.222  0.00  0.00    +0.035 C 
ATOM     16  C3  <0> A   1     -14.163   4.478  46.290  0.00  0.00    +0.028 C 
ENDBRANCH   1  15
BRANCH   6  17
ATOM     17  O1  <0> A   1     -15.882   8.066  47.389  0.00  0.00    -0.317 OA
BRANCH  17  18
ATOM     18  C10 <0> A   1     -15.426   8.010  48.742  0.00  0.00    +0.156 C 
BRANCH  18  19
ATOM     19  C11 <0> A   1     -16.612   7.743  49.670  0.00  0.00    +0.226 C 
BRANCH  19  20
ATOM     20  O5  <0> A   1     -17.693   8.612  49.323  0.00  0.00    -0.530 OA
ATOM     21  H19 <0> A   1     -17.700   9.446  49.813  0.00  0.00    +0.363 HD
ENDBRANCH  19  20
BRANCH  19  22
ATOM     22  C12 <0> A   1     -17.061   6.288  49.519  0.00  0.00    -0.042 C 
BRANCH  22  23
ATOM     23  C13 <0> A   1     -18.476   6.247  48.941  0.00  0.00    +0.235 C 
BRANCH  23  24
ATOM     24  O4  <0> A   1     -18.411   6.309  47.515  0.00  0.00    -0.526 OA
ATOM     25  H18 <0> A   1     -17.837   5.638  47.118  0.00  0.00    +0.350 HD
ENDBRANCH  23  24
BRANCH  23  26
ATOM     26  C14 <0> A   1     -19.163   4.946  49.363  0.00  0.00    -0.101 C 
BRANCH  26  27
ATOM     27  C15 <0> A   1     -20.622   5.005  48.993  0.00  0.00    +0.491 C 
ATOM     28  O2  <0> A   1     -20.974   5.613  47.996  0.00  0.00    -0.680 OA
ATOM     29  O3  <0> A   1     -21.452   4.446  49.690  0.00  0.00    -0.712 OA
ENDBRANCH  26  27
ENDBRANCH  23  26
ENDBRANCH  22  23
ENDBRANCH  19  22
ENDBRANCH  18  19
ENDBRANCH  17  18
ENDBRANCH   6  17
BRANCH   3  30
ATOM     30  S1  <0> A   1     -11.768   8.054  43.162  0.00  0.00    +0.004 S 
BRANCH  30  31
ATOM     31  C22 <0> A   1     -12.451   9.074  41.898  0.00  0.00    -0.110 A 
ATOM     32  C23 <0> A   1     -12.848   8.514  40.690  0.00  0.00    +0.067 A 
ATOM     33  C24 <0> A   1     -13.383   9.316  39.701  0.00  0.00    +0.004 A 
ATOM     34  C25 <0> A   1     -13.524  10.677  39.913  0.00  0.00    +0.093 A 
ATOM     35  C26 <0> A   1     -13.131  11.238  41.116  0.00  0.00    +0.005 A 
ATOM     36  C27 <0> A   1     -12.600  10.439  42.110  0.00  0.00    +0.040 A 
ATOM     37  F2  <0> A   1     -14.048  11.460  38.943  0.00  0.00    -0.139 F 
ENDBRANCH  30  31
ENDBRANCH   3  30
TORSDOF 13
