REMARK VINA RESULT:      -8.4      3.208      6.050
REMARK  Name = CHEMBL341284
REMARK  11 active torsions:
REMARK  status: ('A' for Active; 'I' for Inactive)
REMARK    1  A    between atoms: C1_1  and  C2_2
REMARK    2  A    between atoms: C5_5  and  S1_8
REMARK    3  A    between atoms: S1_8  and  N1_11
REMARK    4  A    between atoms: C8_12  and  C21_31
REMARK    5  A    between atoms: C9_13  and  C14_19
REMARK    6  A    between atoms: C10_14  and  C11_16
REMARK    7  A    between atoms: C11_16  and  C12_17
REMARK    8  A    between atoms: C11_16  and  C13_18
REMARK    9  A    between atoms: C14_19  and  C15_20
REMARK   10  A    between atoms: C15_20  and  C16_21
REMARK   11  A    between atoms: C18_24  and  O5_30
REMARK                            x       y       z     vdW  Elec       q    Type
REMARK                         _______ _______ _______ _____ _____    ______ ____
ROOT
ATOM      1  N1  <0> A   1     -12.629  10.775  43.975  0.00  0.00    -0.734 N 
ATOM      2  C8  <0> A   1     -12.479   9.421  44.015  0.00  0.00    +0.141 C 
ATOM      3  C9  <0> A   1     -12.839   8.935  42.789  0.00  0.00    -0.168 C 
ATOM      4  C10 <0> A   1     -13.213  10.018  41.993  0.00  0.00    +0.127 C 
ATOM      5  N2  <0> A   1     -13.095  11.115  42.698  0.00  0.00    -0.237 NA
ENDROOT
BRANCH   2   6
ATOM      6  C21 <0> A   1     -12.013   8.624  45.171  0.00  0.00    -0.089 A 
ATOM      7  C22 <0> A   1     -12.899   8.300  46.200  0.00  0.00    +0.084 A 
ATOM      8  C23 <0> A   1     -12.459   7.557  47.276  0.00  0.00    -0.020 A 
ATOM      9  C24 <0> A   1     -11.141   7.133  47.336  0.00  0.00    +0.124 A 
ATOM     10  C25 <0> A   1     -10.258   7.453  46.317  0.00  0.00    -0.011 A 
ATOM     11  C26 <0> A   1     -10.690   8.191  45.234  0.00  0.00    +0.127 A 
ATOM     12  F1  <0> A   1     -10.716   6.405  48.393  0.00  0.00    -0.134 F 
ENDBRANCH   2   6
BRANCH   1  13
ATOM     13  S1  <0> A   1     -12.323  11.829  45.215  0.00  0.00    +2.687 S 
ATOM     14  O1  <0> A   1     -12.567  13.133  44.708  0.00  0.00    -0.914 OA
ATOM     15  O2  <0> A   1     -11.071  11.449  45.769  0.00  0.00    -0.921 OA
BRANCH  13  20
ATOM     16  C1  <0> A   1     -16.469  10.823  49.480  0.00  0.00    +0.105 C 
ATOM     17  C2  <0> A   1     -15.434  11.075  48.414  0.00  0.00    -0.018 A 
ATOM     18  C3  <0> A   1     -15.802  11.091  47.083  0.00  0.00    -0.005 A 
ATOM     19  C4  <0> A   1     -14.852  11.321  46.105  0.00  0.00    +0.131 A 
ATOM     20  C5  <0> A   1     -13.534  11.536  46.460  0.00  0.00    -0.682 A 
ATOM     21  C6  <0> A   1     -13.165  11.521  47.792  0.00  0.00    +0.137 A 
ATOM     22  C7  <0> A   1     -14.116  11.294  48.770  0.00  0.00    -0.004 A 
ENDBRANCH  13  20
ENDBRANCH   1  13
BRANCH   4  23
ATOM     23  C11 <0> A   1     -13.681   9.938  40.563  0.00  0.00    +0.076 C 
ATOM     24  C12 <0> A   1     -14.533  11.166  40.235  0.00  0.00    +0.041 C 
ATOM     25  C13 <0> A   1     -12.469   9.895  39.631  0.00  0.00    +0.041 C 
ENDBRANCH   4  23
BRANCH   3  26
ATOM     26  C14 <0> A   1     -12.831   7.488  42.372  0.00  0.00    +0.117 C 
BRANCH  26  27
ATOM     27  C15 <0> A   1     -14.269   6.969  42.303  0.00  0.00    +0.055 C 
BRANCH  27  28
ATOM     28  C16 <0> A   1     -14.695   6.459  43.682  0.00  0.00    +0.198 C 
ATOM     29  C17 <0> A   1     -16.131   5.934  43.612  0.00  0.00    +0.040 C 
ATOM     30  C18 <0> A   1     -16.538   5.386  44.984  0.00  0.00    +0.183 C 
ATOM     31  C19 <0> A   1     -15.576   4.255  45.372  0.00  0.00    +0.021 C 
ATOM     32  C20 <0> A   1     -14.160   4.768  45.233  0.00  0.00    +0.496 C 
ATOM     33  O3  <0> A   1     -13.354   4.617  46.121  0.00  0.00    -0.452 OA
ATOM     34  O4  <0> A   1     -13.821   5.400  44.089  0.00  0.00    -0.366 OA
BRANCH  30  35
ATOM     35  O5  <0> A   1     -16.469   6.430  45.956  0.00  0.00    -0.564 OA
ATOM     36  H25 <0> A   1     -16.763   6.167  46.839  0.00  0.00    +0.387 HD
ENDBRANCH  30  35
ENDBRANCH  27  28
ENDBRANCH  26  27
ENDBRANCH   3  26
TORSDOF 8
