MODEL 1
REMARK VINA RESULT:      -8.2      0.000      0.000
REMARK  Name = CHEMBL350272
REMARK  4 active torsions:
REMARK  status: ('A' for Active; 'I' for Inactive)
REMARK    1  A    between atoms: C7_8  and  C11_14
REMARK    2  A    between atoms: C11_14  and  C12_15
REMARK    3  A    between atoms: C12_15  and  C13_16
REMARK    4  A    between atoms: C15_18  and  O3_24
REMARK                            x       y       z     vdW  Elec       q    Type
REMARK                         _______ _______ _______ _____ _____    ______ ____
ROOT
ATOM      1  C1  <0> A   1      -2.138   5.435  46.632  0.00  0.00    +0.042 A 
ATOM      2  C2  <0> A   1      -1.855   4.359  45.846  0.00  0.00    +0.057 A 
ATOM      3  C3  <0> A   1      -2.901   3.559  45.359  0.00  0.00    -0.043 A 
ATOM      4  C4  <0> A   1      -4.240   3.886  45.693  0.00  0.00    -0.021 A 
ATOM      5  C5  <0> A   1      -4.494   5.002  46.505  0.00  0.00    +0.059 A 
ATOM      6  C6  <0> A   1      -3.454   5.756  46.960  0.00  0.00    -0.022 A 
ATOM      7 Cl1  <0> A   1      -3.772   7.136  47.965  0.00  0.00    -0.058 Cl
ATOM      8  C7  <0> A   1      -5.286   3.083  45.205  0.00  0.00    -0.046 A 
ATOM      9  C8  <0> A   1      -5.002   2.007  44.421  0.00  0.00    -0.024 A 
ATOM     10  C9  <0> A   1      -3.686   1.686  44.091  0.00  0.00    +0.056 A 
ATOM     11  C10 <0> A   1      -2.646   2.440  44.546  0.00  0.00    -0.015 A 
ATOM     12 Cl2  <0> A   1      -1.015   2.022  44.123  0.00  0.00    -0.044 Cl
ATOM     13 Cl3  <0> A   1      -6.299   1.020  43.822  0.00  0.00    -0.047 Cl
ENDROOT
BRANCH   8  14
ATOM     14  C11 <0> A   1      -6.716   3.413  45.550  0.00  0.00    +0.090 C 
BRANCH  14  15
ATOM     15  C12 <0> A   1      -7.198   2.486  46.667  0.00  0.00    +0.065 C 
BRANCH  15  16
ATOM     16  C13 <0> A   1      -7.561   3.318  47.900  0.00  0.00    +0.200 C 
ATOM     17  C14 <0> A   1      -7.143   2.565  49.166  0.00  0.00    +0.043 C 
ATOM     18  C15 <0> A   1      -7.546   3.382  50.398  0.00  0.00    +0.185 C 
ATOM     19  C16 <0> A   1      -9.066   3.590  50.380  0.00  0.00    +0.022 C 
ATOM     20  C17 <0> A   1      -9.452   4.152  49.030  0.00  0.00    +0.497 C 
ATOM     21  O1  <0> A   1     -10.167   5.122  48.942  0.00  0.00    -0.451 OA
ATOM     22  O2  <0> A   1      -8.975   3.540  47.926  0.00  0.00    -0.369 OA
BRANCH  18  23
ATOM     23  O3  <0> A   1      -6.885   4.649  50.369  0.00  0.00    -0.564 OA
ATOM     24  H15 <0> A   1      -6.780   5.057  51.239  0.00  0.00    +0.387 HD
ENDBRANCH  18  23
ENDBRANCH  15  16
ENDBRANCH  14  15
ENDBRANCH   8  14
TORSDOF 4
ENDMDL
MODEL 2
REMARK VINA RESULT:      -8.1      3.136      4.999
REMARK  Name = CHEMBL350272
REMARK  4 active torsions:
REMARK  status: ('A' for Active; 'I' for Inactive)
REMARK    1  A    between atoms: C7_8  and  C11_14
REMARK    2  A    between atoms: C11_14  and  C12_15
REMARK    3  A    between atoms: C12_15  and  C13_16
REMARK    4  A    between atoms: C15_18  and  O3_24
REMARK                            x       y       z     vdW  Elec       q    Type
REMARK                         _______ _______ _______ _____ _____    ______ ____
ROOT
ATOM      1  C1  <0> A   1      -2.436   1.924  44.055  0.00  0.00    +0.042 A 
ATOM      2  C2  <0> A   1      -3.755   1.607  43.939  0.00  0.00    +0.057 A 
ATOM      3  C3  <0> A   1      -4.721   2.405  44.572  0.00  0.00    -0.043 A 
ATOM      4  C4  <0> A   1      -4.307   3.533  45.325  0.00  0.00    -0.021 A 
ATOM      5  C5  <0> A   1      -2.938   3.830  45.423  0.00  0.00    +0.059 A 
ATOM      6  C6  <0> A   1      -2.028   3.033  44.795  0.00  0.00    -0.022 A 
ATOM      7 Cl1  <0> A   1      -0.336   3.404  44.919  0.00  0.00    -0.058 Cl
ATOM      8  C7  <0> A   1      -5.275   4.330  45.959  0.00  0.00    -0.046 A 
ATOM      9  C8  <0> A   1      -6.594   4.011  45.843  0.00  0.00    -0.024 A 
ATOM     10  C9  <0> A   1      -7.002   2.903  45.103  0.00  0.00    +0.056 A 
ATOM     11  C10 <0> A   1      -6.092   2.107  44.474  0.00  0.00    -0.015 A 
ATOM     12 Cl2  <0> A   1      -6.623   0.731  43.557  0.00  0.00    -0.044 Cl
ATOM     13 Cl3  <0> A   1      -7.785   5.001  46.629  0.00  0.00    -0.047 Cl
ENDROOT
BRANCH   8  14
ATOM     14  C11 <0> A   1      -4.854   5.533  46.765  0.00  0.00    +0.090 C 
BRANCH  14  15
ATOM     15  C12 <0> A   1      -4.521   5.099  48.193  0.00  0.00    +0.065 C 
BRANCH  15  16
ATOM     16  C13 <0> A   1      -3.472   6.045  48.782  0.00  0.00    +0.200 C 
ATOM     17  C14 <0> A   1      -3.284   5.737  50.270  0.00  0.00    +0.043 C 
ATOM     18  C15 <0> A   1      -2.263   6.712  50.865  0.00  0.00    +0.185 C 
ATOM     19  C16 <0> A   1      -2.780   8.145  50.680  0.00  0.00    +0.022 C 
ATOM     20  C17 <0> A   1      -3.140   8.335  49.223  0.00  0.00    +0.497 C 
ATOM     21  O1  <0> A   1      -2.748   9.298  48.606  0.00  0.00    -0.451 OA
ATOM     22  O2  <0> A   1      -3.911   7.399  48.631  0.00  0.00    -0.369 OA
BRANCH  18  23
ATOM     23  O3  <0> A   1      -1.010   6.562  50.195  0.00  0.00    -0.564 OA
ATOM     24  H15 <0> A   1      -0.640   7.391  49.862  0.00  0.00    +0.387 HD
ENDBRANCH  18  23
ENDBRANCH  15  16
ENDBRANCH  14  15
ENDBRANCH   8  14
TORSDOF 4
ENDMDL
MODEL 3
REMARK VINA RESULT:      -7.8      3.294      6.727
REMARK  Name = CHEMBL350272
REMARK  4 active torsions:
REMARK  status: ('A' for Active; 'I' for Inactive)
REMARK    1  A    between atoms: C7_8  and  C11_14
REMARK    2  A    between atoms: C11_14  and  C12_15
REMARK    3  A    between atoms: C12_15  and  C13_16
REMARK    4  A    between atoms: C15_18  and  O3_24
REMARK                            x       y       z     vdW  Elec       q    Type
REMARK                         _______ _______ _______ _____ _____    ______ ____
ROOT
ATOM      1  C1  <0> A   1      -7.411   2.999  47.518  0.00  0.00    +0.042 A 
ATOM      2  C2  <0> A   1      -6.925   3.179  48.777  0.00  0.00    +0.057 A 
ATOM      3  C3  <0> A   1      -5.759   3.937  48.971  0.00  0.00    -0.043 A 
ATOM      4  C4  <0> A   1      -5.104   4.505  47.848  0.00  0.00    -0.021 A 
ATOM      5  C5  <0> A   1      -5.634   4.298  46.564  0.00  0.00    +0.059 A 
ATOM      6  C6  <0> A   1      -6.768   3.557  46.414  0.00  0.00    -0.022 A 
ATOM      7 Cl1  <0> A   1      -7.421   3.304  44.825  0.00  0.00    -0.058 Cl
ATOM      8  C7  <0> A   1      -3.936   5.262  48.043  0.00  0.00    -0.046 A 
ATOM      9  C8  <0> A   1      -3.449   5.440  49.303  0.00  0.00    -0.024 A 
ATOM     10  C9  <0> A   1      -4.093   4.883  50.406  0.00  0.00    +0.056 A 
ATOM     11  C10 <0> A   1      -5.227   4.143  50.256  0.00  0.00    -0.015 A 
ATOM     12 Cl2  <0> A   1      -6.012   3.457  51.645  0.00  0.00    -0.044 Cl
ATOM     13 Cl3  <0> A   1      -2.006   6.377  49.536  0.00  0.00    -0.047 Cl
ENDROOT
BRANCH   8  14
ATOM     14  C11 <0> A   1      -3.225   5.873  46.862  0.00  0.00    +0.090 C 
BRANCH  14  15
ATOM     15  C12 <0> A   1      -1.883   5.170  46.656  0.00  0.00    +0.065 C 
BRANCH  15  16
ATOM     16  C13 <0> A   1      -2.092   3.910  45.813  0.00  0.00    +0.200 C 
ATOM     17  C14 <0> A   1      -0.764   3.499  45.170  0.00  0.00    +0.043 C 
ATOM     18  C15 <0> A   1      -0.986   2.262  44.294  0.00  0.00    +0.185 C 
ATOM     19  C16 <0> A   1      -2.020   2.599  43.211  0.00  0.00    +0.022 C 
ATOM     20  C17 <0> A   1      -3.239   3.188  43.886  0.00  0.00    +0.497 C 
ATOM     21  O1  <0> A   1      -4.348   2.785  43.627  0.00  0.00    -0.451 OA
ATOM     22  O2  <0> A   1      -3.053   4.176  44.786  0.00  0.00    -0.369 OA
BRANCH  18  23
ATOM     23  O3  <0> A   1      -1.468   1.185  45.100  0.00  0.00    -0.564 OA
ATOM     24  H15 <0> A   1      -0.865   0.430  45.149  0.00  0.00    +0.387 HD
ENDBRANCH  18  23
ENDBRANCH  15  16
ENDBRANCH  14  15
ENDBRANCH   8  14
TORSDOF 4
ENDMDL
MODEL 4
REMARK VINA RESULT:      -7.5     19.155     22.098
REMARK  Name = CHEMBL350272
REMARK  4 active torsions:
REMARK  status: ('A' for Active; 'I' for Inactive)
REMARK    1  A    between atoms: C7_8  and  C11_14
REMARK    2  A    between atoms: C11_14  and  C12_15
REMARK    3  A    between atoms: C12_15  and  C13_16
REMARK    4  A    between atoms: C15_18  and  O3_24
REMARK                            x       y       z     vdW  Elec       q    Type
REMARK                         _______ _______ _______ _____ _____    ______ ____
ROOT
ATOM      1  C1  <0> A   1     -22.862  -1.345  51.003  0.00  0.00    +0.042 A 
ATOM      2  C2  <0> A   1     -24.132  -1.010  50.647  0.00  0.00    +0.057 A 
ATOM      3  C3  <0> A   1     -25.132  -1.995  50.629  0.00  0.00    -0.043 A 
ATOM      4  C4  <0> A   1     -24.802  -3.328  50.982  0.00  0.00    -0.021 A 
ATOM      5  C5  <0> A   1     -23.480  -3.637  51.344  0.00  0.00    +0.059 A 
ATOM      6  C6  <0> A   1     -22.536  -2.655  51.351  0.00  0.00    -0.022 A 
ATOM      7 Cl1  <0> A   1     -20.903  -3.041  51.798  0.00  0.00    -0.058 Cl
ATOM      8  C7  <0> A   1     -25.803  -4.314  50.962  0.00  0.00    -0.046 A 
ATOM      9  C8  <0> A   1     -27.074  -3.979  50.605  0.00  0.00    -0.024 A 
ATOM     10  C9  <0> A   1     -27.400  -2.669  50.258  0.00  0.00    +0.056 A 
ATOM     11  C10 <0> A   1     -26.456  -1.686  50.266  0.00  0.00    -0.015 A 
ATOM     12 Cl2  <0> A   1     -26.884  -0.061  49.830  0.00  0.00    -0.044 Cl
ATOM     13 Cl3  <0> A   1     -28.306  -5.202  50.582  0.00  0.00    -0.047 Cl
ENDROOT
BRANCH   8  14
ATOM     14  C11 <0> A   1     -25.471  -5.737  51.334  0.00  0.00    +0.090 C 
BRANCH  14  15
ATOM     15  C12 <0> A   1     -25.288  -6.567  50.062  0.00  0.00    +0.065 C 
BRANCH  15  16
ATOM     16  C13 <0> A   1     -24.409  -7.782  50.367  0.00  0.00    +0.200 C 
ATOM     17  C14 <0> A   1     -25.196  -9.065  50.091  0.00  0.00    +0.043 C 
ATOM     18  C15 <0> A   1     -24.327 -10.278  50.437  0.00  0.00    +0.185 C 
ATOM     19  C16 <0> A   1     -23.938 -10.203  51.919  0.00  0.00    +0.022 C 
ATOM     20  C17 <0> A   1     -23.344  -8.837  52.185  0.00  0.00    +0.497 C 
ATOM     21  O1  <0> A   1     -22.296  -8.718  52.775  0.00  0.00    -0.451 OA
ATOM     22  O2  <0> A   1     -24.018  -7.754  51.745  0.00  0.00    -0.369 OA
BRANCH  18  23
ATOM     23  O3  <0> A   1     -23.149 -10.270  49.629  0.00  0.00    -0.564 OA
ATOM     24  H15 <0> A   1     -22.365 -10.621  50.072  0.00  0.00    +0.387 HD
ENDBRANCH  18  23
ENDBRANCH  15  16
ENDBRANCH  14  15
ENDBRANCH   8  14
TORSDOF 4
ENDMDL
MODEL 5
REMARK VINA RESULT:      -7.5      2.429      4.340
REMARK  Name = CHEMBL350272
REMARK  4 active torsions:
REMARK  status: ('A' for Active; 'I' for Inactive)
REMARK    1  A    between atoms: C7_8  and  C11_14
REMARK    2  A    between atoms: C11_14  and  C12_15
REMARK    3  A    between atoms: C12_15  and  C13_16
REMARK    4  A    between atoms: C15_18  and  O3_24
REMARK                            x       y       z     vdW  Elec       q    Type
REMARK                         _______ _______ _______ _____ _____    ______ ____
ROOT
ATOM      1  C1  <0> A   1      -7.455   3.517  45.369  0.00  0.00    +0.042 A 
ATOM      2  C2  <0> A   1      -6.582   2.584  44.898  0.00  0.00    +0.057 A 
ATOM      3  C3  <0> A   1      -5.201   2.825  44.969  0.00  0.00    -0.043 A 
ATOM      4  C4  <0> A   1      -4.735   4.041  45.530  0.00  0.00    -0.021 A 
ATOM      5  C5  <0> A   1      -5.664   4.981  46.005  0.00  0.00    +0.059 A 
ATOM      6  C6  <0> A   1      -6.998   4.713  45.921  0.00  0.00    -0.022 A 
ATOM      7 Cl1  <0> A   1      -8.144   5.877  46.509  0.00  0.00    -0.058 Cl
ATOM      8  C7  <0> A   1      -3.352   4.283  45.598  0.00  0.00    -0.046 A 
ATOM      9  C8  <0> A   1      -2.480   3.349  45.127  0.00  0.00    -0.024 A 
ATOM     10  C9  <0> A   1      -2.937   2.153  44.575  0.00  0.00    +0.056 A 
ATOM     11  C10 <0> A   1      -4.271   1.884  44.492  0.00  0.00    -0.015 A 
ATOM     12 Cl2  <0> A   1      -4.818   0.389  43.801  0.00  0.00    -0.044 Cl
ATOM     13 Cl3  <0> A   1      -0.773   3.653  45.215  0.00  0.00    -0.047 Cl
ENDROOT
BRANCH   8  14
ATOM     14  C11 <0> A   1      -2.837   5.570  46.191  0.00  0.00    +0.090 C 
BRANCH  14  15
ATOM     15  C12 <0> A   1      -2.165   5.279  47.534  0.00  0.00    +0.065 C 
BRANCH  15  16
ATOM     16  C13 <0> A   1      -3.132   5.618  48.672  0.00  0.00    +0.200 C 
ATOM     17  C14 <0> A   1      -2.335   5.982  49.927  0.00  0.00    +0.043 C 
ATOM     18  C15 <0> A   1      -3.305   6.280  51.075  0.00  0.00    +0.185 C 
ATOM     19  C16 <0> A   1      -4.165   5.036  51.333  0.00  0.00    +0.022 C 
ATOM     20  C17 <0> A   1      -4.773   4.598  50.019  0.00  0.00    +0.497 C 
ATOM     21  O1  <0> A   1      -5.954   4.358  49.930  0.00  0.00    -0.451 OA
ATOM     22  O2  <0> A   1      -3.960   4.483  48.949  0.00  0.00    -0.369 OA
BRANCH  18  23
ATOM     23  O3  <0> A   1      -4.145   7.381  50.719  0.00  0.00    -0.564 OA
ATOM     24  H15 <0> A   1      -3.676   8.222  50.633  0.00  0.00    +0.387 HD
ENDBRANCH  18  23
ENDBRANCH  15  16
ENDBRANCH  14  15
ENDBRANCH   8  14
TORSDOF 4
ENDMDL
MODEL 6
REMARK VINA RESULT:      -7.3     18.868     21.755
REMARK  Name = CHEMBL350272
REMARK  4 active torsions:
REMARK  status: ('A' for Active; 'I' for Inactive)
REMARK    1  A    between atoms: C7_8  and  C11_14
REMARK    2  A    between atoms: C11_14  and  C12_15
REMARK    3  A    between atoms: C12_15  and  C13_16
REMARK    4  A    between atoms: C15_18  and  O3_24
REMARK                            x       y       z     vdW  Elec       q    Type
REMARK                         _______ _______ _______ _____ _____    ______ ____
ROOT
ATOM      1  C1  <0> A   1     -21.590  -1.648  53.689  0.00  0.00    +0.042 A 
ATOM      2  C2  <0> A   1     -22.694  -1.034  54.197  0.00  0.00    +0.057 A 
ATOM      3  C3  <0> A   1     -23.967  -1.384  53.718  0.00  0.00    -0.043 A 
ATOM      4  C4  <0> A   1     -24.082  -2.374  52.709  0.00  0.00    -0.021 A 
ATOM      5  C5  <0> A   1     -22.921  -2.986  52.208  0.00  0.00    +0.059 A 
ATOM      6  C6  <0> A   1     -21.702  -2.621  52.698  0.00  0.00    -0.022 A 
ATOM      7 Cl1  <0> A   1     -20.269  -3.379  52.076  0.00  0.00    -0.058 Cl
ATOM      8  C7  <0> A   1     -25.356  -2.723  52.229  0.00  0.00    -0.046 A 
ATOM      9  C8  <0> A   1     -26.460  -2.108  52.736  0.00  0.00    -0.024 A 
ATOM     10  C9  <0> A   1     -26.348  -1.135  53.728  0.00  0.00    +0.056 A 
ATOM     11  C10 <0> A   1     -25.129  -0.771  54.218  0.00  0.00    -0.015 A 
ATOM     12 Cl2  <0> A   1     -25.013   0.443  55.453  0.00  0.00    -0.044 Cl
ATOM     13 Cl3  <0> A   1     -28.031  -2.544  52.139  0.00  0.00    -0.047 Cl
ENDROOT
BRANCH   8  14
ATOM     14  C11 <0> A   1     -25.499  -3.773  51.156  0.00  0.00    +0.090 C 
BRANCH  14  15
ATOM     15  C12 <0> A   1     -25.818  -5.122  51.803  0.00  0.00    +0.065 C 
BRANCH  15  16
ATOM     16  C13 <0> A   1     -24.929  -6.205  51.188  0.00  0.00    +0.200 C 
ATOM     17  C14 <0> A   1     -25.682  -6.899  50.050  0.00  0.00    +0.043 C 
ATOM     18  C15 <0> A   1     -24.804  -8.010  49.465  0.00  0.00    +0.185 C 
ATOM     19  C16 <0> A   1     -24.471  -9.017  50.575  0.00  0.00    +0.022 C 
ATOM     20  C17 <0> A   1     -23.913  -8.254  51.755  0.00  0.00    +0.497 C 
ATOM     21  O1  <0> A   1     -22.890  -8.604  52.295  0.00  0.00    -0.451 OA
ATOM     22  O2  <0> A   1     -24.590  -7.170  52.190  0.00  0.00    -0.369 OA
BRANCH  18  23
ATOM     23  O3  <0> A   1     -23.597  -7.446  48.950  0.00  0.00    -0.564 OA
ATOM     24  H15 <0> A   1     -23.533  -6.487  49.059  0.00  0.00    +0.387 HD
ENDBRANCH  18  23
ENDBRANCH  15  16
ENDBRANCH  14  15
ENDBRANCH   8  14
TORSDOF 4
ENDMDL
MODEL 7
REMARK VINA RESULT:      -7.3     19.216     22.275
REMARK  Name = CHEMBL350272
REMARK  4 active torsions:
REMARK  status: ('A' for Active; 'I' for Inactive)
REMARK    1  A    between atoms: C7_8  and  C11_14
REMARK    2  A    between atoms: C11_14  and  C12_15
REMARK    3  A    between atoms: C12_15  and  C13_16
REMARK    4  A    between atoms: C15_18  and  O3_24
REMARK                            x       y       z     vdW  Elec       q    Type
REMARK                         _______ _______ _______ _____ _____    ______ ____
ROOT
ATOM      1  C1  <0> A   1     -22.775  -1.572  51.147  0.00  0.00    +0.042 A 
ATOM      2  C2  <0> A   1     -24.023  -1.288  50.685  0.00  0.00    +0.057 A 
ATOM      3  C3  <0> A   1     -25.008  -2.288  50.682  0.00  0.00    -0.043 A 
ATOM      4  C4  <0> A   1     -24.686  -3.583  51.162  0.00  0.00    -0.021 A 
ATOM      5  C5  <0> A   1     -23.387  -3.840  51.630  0.00  0.00    +0.059 A 
ATOM      6  C6  <0> A   1     -22.457  -2.845  51.618  0.00  0.00    -0.022 A 
ATOM      7 Cl1  <0> A   1     -20.852  -3.166  52.198  0.00  0.00    -0.058 Cl
ATOM      8  C7  <0> A   1     -25.672  -4.585  51.157  0.00  0.00    -0.046 A 
ATOM      9  C8  <0> A   1     -26.921  -4.301  50.694  0.00  0.00    -0.024 A 
ATOM     10  C9  <0> A   1     -27.239  -3.027  50.223  0.00  0.00    +0.056 A 
ATOM     11  C10 <0> A   1     -26.309  -2.031  50.212  0.00  0.00    -0.015 A 
ATOM     12 Cl2  <0> A   1     -26.727  -0.454  49.621  0.00  0.00    -0.044 Cl
ATOM     13 Cl3  <0> A   1     -28.134  -5.542  50.691  0.00  0.00    -0.047 Cl
ENDROOT
BRANCH   8  14
ATOM     14  C11 <0> A   1     -25.348  -5.968  51.662  0.00  0.00    +0.090 C 
BRANCH  14  15
ATOM     15  C12 <0> A   1     -24.269  -6.594  50.776  0.00  0.00    +0.065 C 
BRANCH  15  16
ATOM     16  C13 <0> A   1     -24.933  -7.344  49.618  0.00  0.00    +0.200 C 
ATOM     17  C14 <0> A   1     -25.687  -8.560  50.163  0.00  0.00    +0.043 C 
ATOM     18  C15 <0> A   1     -26.315  -9.331  48.997  0.00  0.00    +0.185 C 
ATOM     19  C16 <0> A   1     -25.201  -9.780  48.042  0.00  0.00    +0.022 C 
ATOM     20  C17 <0> A   1     -24.362  -8.572  47.690  0.00  0.00    +0.497 C 
ATOM     21  O1  <0> A   1     -24.086  -8.320  46.541  0.00  0.00    -0.451 OA
ATOM     22  O2  <0> A   1     -23.929  -7.784  48.696  0.00  0.00    -0.369 OA
BRANCH  18  23
ATOM     23  O3  <0> A   1     -27.233  -8.485  48.302  0.00  0.00    -0.564 OA
ATOM     24  H15 <0> A   1     -26.832  -7.683  47.940  0.00  0.00    +0.387 HD
ENDBRANCH  18  23
ENDBRANCH  15  16
ENDBRANCH  14  15
ENDBRANCH   8  14
TORSDOF 4
ENDMDL
MODEL 8
REMARK VINA RESULT:      -7.2     21.073     23.798
REMARK  Name = CHEMBL350272
REMARK  4 active torsions:
REMARK  status: ('A' for Active; 'I' for Inactive)
REMARK    1  A    between atoms: C7_8  and  C11_14
REMARK    2  A    between atoms: C11_14  and  C12_15
REMARK    3  A    between atoms: C12_15  and  C13_16
REMARK    4  A    between atoms: C15_18  and  O3_24
REMARK                            x       y       z     vdW  Elec       q    Type
REMARK                         _______ _______ _______ _____ _____    ______ ____
ROOT
ATOM      1  C1  <0> A   1     -25.088  -2.936  51.838  0.00  0.00    +0.042 A 
ATOM      2  C2  <0> A   1     -26.375  -3.261  51.533  0.00  0.00    +0.057 A 
ATOM      3  C3  <0> A   1     -26.652  -4.483  50.899  0.00  0.00    -0.043 A 
ATOM      4  C4  <0> A   1     -25.584  -5.361  50.584  0.00  0.00    -0.021 A 
ATOM      5  C5  <0> A   1     -24.269  -4.992  50.912  0.00  0.00    +0.059 A 
ATOM      6  C6  <0> A   1     -24.038  -3.798  51.528  0.00  0.00    -0.022 A 
ATOM      7 Cl1  <0> A   1     -22.411  -3.345  51.933  0.00  0.00    -0.058 Cl
ATOM      8  C7  <0> A   1     -25.862  -6.582  49.947  0.00  0.00    -0.046 A 
ATOM      9  C8  <0> A   1     -27.149  -6.907  49.642  0.00  0.00    -0.024 A 
ATOM     10  C9  <0> A   1     -28.200  -6.045  49.952  0.00  0.00    +0.056 A 
ATOM     11  C10 <0> A   1     -27.968  -4.852  50.569  0.00  0.00    -0.015 A 
ATOM     12 Cl2  <0> A   1     -29.292  -3.794  50.946  0.00  0.00    -0.044 Cl
ATOM     13 Cl3  <0> A   1     -27.486  -8.418  48.856  0.00  0.00    -0.047 Cl
ENDROOT
BRANCH   8  14
ATOM     14  C11 <0> A   1     -24.740  -7.529  49.603  0.00  0.00    +0.090 C 
BRANCH  14  15
ATOM     15  C12 <0> A   1     -24.453  -8.436  50.801  0.00  0.00    +0.065 C 
BRANCH  15  16
ATOM     16  C13 <0> A   1     -24.891  -9.865  50.474  0.00  0.00    +0.200 C 
ATOM     17  C14 <0> A   1     -24.190 -10.843  51.421  0.00  0.00    +0.043 C 
ATOM     18  C15 <0> A   1     -24.599 -12.276  51.064  0.00  0.00    +0.185 C 
ATOM     19  C16 <0> A   1     -24.195 -12.560  49.612  0.00  0.00    +0.022 C 
ATOM     20  C17 <0> A   1     -24.747 -11.454  48.740  0.00  0.00    +0.497 C 
ATOM     21  O1  <0> A   1     -25.360 -11.705  47.730  0.00  0.00    -0.451 OA
ATOM     22  O2  <0> A   1     -24.535 -10.177  49.123  0.00  0.00    -0.369 OA
BRANCH  18  23
ATOM     23  O3  <0> A   1     -26.013 -12.420  51.208  0.00  0.00    -0.564 OA
ATOM     24  H15 <0> A   1     -26.437 -11.692  51.682  0.00  0.00    +0.387 HD
ENDBRANCH  18  23
ENDBRANCH  15  16
ENDBRANCH  14  15
ENDBRANCH   8  14
TORSDOF 4
ENDMDL
MODEL 9
REMARK VINA RESULT:      -7.2      9.906     11.955
REMARK  Name = CHEMBL350272
REMARK  4 active torsions:
REMARK  status: ('A' for Active; 'I' for Inactive)
REMARK    1  A    between atoms: C7_8  and  C11_14
REMARK    2  A    between atoms: C11_14  and  C12_15
REMARK    3  A    between atoms: C12_15  and  C13_16
REMARK    4  A    between atoms: C15_18  and  O3_24
REMARK                            x       y       z     vdW  Elec       q    Type
REMARK                         _______ _______ _______ _____ _____    ______ ____
ROOT
ATOM      1  C1  <0> A   1     -16.053   9.698  47.710  0.00  0.00    +0.042 A 
ATOM      2  C2  <0> A   1     -16.492   8.416  47.847  0.00  0.00    +0.057 A 
ATOM      3  C3  <0> A   1     -15.947   7.404  47.040  0.00  0.00    -0.043 A 
ATOM      4  C4  <0> A   1     -14.946   7.735  46.091  0.00  0.00    -0.021 A 
ATOM      5  C5  <0> A   1     -14.519   9.068  45.977  0.00  0.00    +0.059 A 
ATOM      6  C6  <0> A   1     -15.070  10.023  46.777  0.00  0.00    -0.022 A 
ATOM      7 Cl1  <0> A   1     -14.539  11.670  46.633  0.00  0.00    -0.058 Cl
ATOM      8  C7  <0> A   1     -14.403   6.722  45.282  0.00  0.00    -0.046 A 
ATOM      9  C8  <0> A   1     -14.843   5.440  45.420  0.00  0.00    -0.024 A 
ATOM     10  C9  <0> A   1     -15.826   5.114  46.353  0.00  0.00    +0.056 A 
ATOM     11  C10 <0> A   1     -16.376   6.070  47.154  0.00  0.00    -0.015 A 
ATOM     12 Cl2  <0> A   1     -17.599   5.642  48.309  0.00  0.00    -0.044 Cl
ATOM     13 Cl3  <0> A   1     -14.168   4.193  44.418  0.00  0.00    -0.047 Cl
ENDROOT
BRANCH   8  14
ATOM     14  C11 <0> A   1     -13.339   7.053  44.267  0.00  0.00    +0.090 C 
BRANCH  14  15
ATOM     15  C12 <0> A   1     -13.968   7.121  42.874  0.00  0.00    +0.065 C 
BRANCH  15  16
ATOM     16  C13 <0> A   1     -13.212   8.145  42.024  0.00  0.00    +0.200 C 
ATOM     17  C14 <0> A   1     -13.627   9.559  42.440  0.00  0.00    +0.043 C 
ATOM     18  C15 <0> A   1     -12.900  10.580  41.559  0.00  0.00    +0.185 C 
ATOM     19  C16 <0> A   1     -13.275  10.327  40.093  0.00  0.00    +0.022 C 
ATOM     20  C17 <0> A   1     -13.034   8.865  39.788  0.00  0.00    +0.497 C 
ATOM     21  O1  <0> A   1     -12.413   8.529  38.807  0.00  0.00    -0.451 OA
ATOM     22  O2  <0> A   1     -13.531   7.947  40.642  0.00  0.00    -0.369 OA
BRANCH  18  23
ATOM     23  O3  <0> A   1     -11.488  10.439  41.726  0.00  0.00    -0.564 OA
ATOM     24  H15 <0> A   1     -10.983  11.228  41.489  0.00  0.00    +0.387 HD
ENDBRANCH  18  23
ENDBRANCH  15  16
ENDBRANCH  14  15
ENDBRANCH   8  14
TORSDOF 4
ENDMDL
MODEL 10
REMARK VINA RESULT:      -7.1     20.068     23.100
REMARK  Name = CHEMBL350272
REMARK  4 active torsions:
REMARK  status: ('A' for Active; 'I' for Inactive)
REMARK    1  A    between atoms: C7_8  and  C11_14
REMARK    2  A    between atoms: C11_14  and  C12_15
REMARK    3  A    between atoms: C12_15  and  C13_16
REMARK    4  A    between atoms: C15_18  and  O3_24
REMARK                            x       y       z     vdW  Elec       q    Type
REMARK                         _______ _______ _______ _____ _____    ______ ____
ROOT
ATOM      1  C1  <0> A   1     -23.668  -2.106  52.564  0.00  0.00    +0.042 A 
ATOM      2  C2  <0> A   1     -25.025  -2.155  52.661  0.00  0.00    +0.057 A 
ATOM      3  C3  <0> A   1     -25.726  -3.223  52.079  0.00  0.00    -0.043 A 
ATOM      4  C4  <0> A   1     -25.007  -4.237  51.396  0.00  0.00    -0.021 A 
ATOM      5  C5  <0> A   1     -23.607  -4.154  51.316  0.00  0.00    +0.059 A 
ATOM      6  C6  <0> A   1     -22.960  -3.102  51.893  0.00  0.00    -0.022 A 
ATOM      7 Cl1  <0> A   1     -21.230  -3.002  51.791  0.00  0.00    -0.058 Cl
ATOM      8  C7  <0> A   1     -25.710  -5.305  50.812  0.00  0.00    -0.046 A 
ATOM      9  C8  <0> A   1     -27.068  -5.353  50.909  0.00  0.00    -0.024 A 
ATOM     10  C9  <0> A   1     -27.775  -4.357  51.581  0.00  0.00    +0.056 A 
ATOM     11  C10 <0> A   1     -27.128  -3.306  52.159  0.00  0.00    -0.015 A 
ATOM     12 Cl2  <0> A   1     -28.029  -2.077  52.990  0.00  0.00    -0.044 Cl
ATOM     13 Cl3  <0> A   1     -27.929  -6.675  50.186  0.00  0.00    -0.047 Cl
ENDROOT
BRANCH   8  14
ATOM     14  C11 <0> A   1     -24.963  -6.393  50.082  0.00  0.00    +0.090 C 
BRANCH  14  15
ATOM     15  C12 <0> A   1     -24.624  -7.521  51.057  0.00  0.00    +0.065 C 
BRANCH  15  16
ATOM     16  C13 <0> A   1     -25.047  -8.862  50.451  0.00  0.00    +0.200 C 
ATOM     17  C14 <0> A   1     -23.856  -9.825  50.462  0.00  0.00    +0.043 C 
ATOM     18  C15 <0> A   1     -24.272 -11.151  49.817  0.00  0.00    +0.185 C 
ATOM     19  C16 <0> A   1     -24.725 -10.882  48.376  0.00  0.00    +0.022 C 
ATOM     20  C17 <0> A   1     -25.761  -9.781  48.403  0.00  0.00    +0.497 C 
ATOM     21  O1  <0> A   1     -26.810  -9.899  47.815  0.00  0.00    -0.451 OA
ATOM     22  O2  <0> A   1     -25.481  -8.661  49.102  0.00  0.00    -0.369 OA
BRANCH  18  23
ATOM     23  O3  <0> A   1     -25.346 -11.730  50.560  0.00  0.00    -0.564 OA
ATOM     24  H15 <0> A   1     -25.147 -11.871  51.496  0.00  0.00    +0.387 HD
ENDBRANCH  18  23
ENDBRANCH  15  16
ENDBRANCH  14  15
ENDBRANCH   8  14
TORSDOF 4
ENDMDL
