REMARK VINA RESULT:      -7.6     16.883     21.169
REMARK  Name = CHEMBL329307
REMARK  14 active torsions:
REMARK  status: ('A' for Active; 'I' for Inactive)
REMARK    1  A    between atoms: C1_1  and  C2_2
REMARK    2  A    between atoms: C2_2  and  C3_3
REMARK    3  A    between atoms: C2_2  and  C4_4
REMARK    4  A    between atoms: C6_6  and  C22_29
REMARK    5  A    between atoms: C8_8  and  C16_22
REMARK    6  A    between atoms: C9_9  and  O1_10
REMARK    7  A    between atoms: O1_10  and  C10_11
REMARK    8  A    between atoms: C10_11  and  C11_12
REMARK    9  A    between atoms: C11_12  and  C12_13
REMARK   10  A    between atoms: C11_12  and  O5_21
REMARK   11  A    between atoms: C12_13  and  C13_14
REMARK   12  A    between atoms: C13_14  and  C14_16
REMARK   13  A    between atoms: C13_14  and  O4_20
REMARK   14  A    between atoms: C14_16  and  C15_17
REMARK                            x       y       z     vdW  Elec       q    Type
REMARK                         _______ _______ _______ _____ _____    ______ ____
ROOT
ATOM      1  C4  <0> A   1     -28.469  -6.976  51.049  0.00  0.00    -0.085 A 
ATOM      2  C5  <0> A   1     -29.294  -6.844  52.147  0.00  0.00    +0.040 A 
ATOM      3  C6  <0> A   1     -29.300  -5.659  52.880  0.00  0.00    -0.052 A 
ATOM      4  C7  <0> A   1     -28.472  -4.604  52.506  0.00  0.00    +0.043 A 
ATOM      5  C8  <0> A   1     -27.642  -4.738  51.399  0.00  0.00    -0.059 A 
ATOM      6  C9  <0> A   1     -27.637  -5.933  50.672  0.00  0.00    +0.119 A 
ENDROOT
BRANCH   5   7
ATOM      7  C16 <0> A   1     -26.757  -3.617  50.994  0.00  0.00    -0.061 A 
ATOM      8  C17 <0> A   1     -27.214  -2.658  50.092  0.00  0.00    +0.083 A 
ATOM      9  C18 <0> A   1     -26.388  -1.617  49.717  0.00  0.00    -0.013 A 
ATOM     10  C19 <0> A   1     -25.106  -1.527  50.237  0.00  0.00    +0.104 A 
ATOM     11  C20 <0> A   1     -24.649  -2.479  51.132  0.00  0.00    -0.020 A 
ATOM     12  C21 <0> A   1     -25.469  -3.519  51.517  0.00  0.00    +0.052 A 
ATOM     13  F1  <0> A   1     -24.301  -0.507  49.866  0.00  0.00    -0.138 F 
ENDBRANCH   5   7
BRANCH   3  14
ATOM     14  C22 <0> A   1     -30.189  -5.521  54.060  0.00  0.00    -0.047 A 
ATOM     15  C23 <0> A   1     -30.396  -4.270  54.638  0.00  0.00    +0.053 A 
ATOM     16  C24 <0> A   1     -31.225  -4.146  55.734  0.00  0.00    -0.011 A 
ATOM     17  C25 <0> A   1     -31.851  -5.264  56.260  0.00  0.00    +0.096 A 
ATOM     18  C26 <0> A   1     -31.649  -6.510  55.689  0.00  0.00    -0.011 A 
ATOM     19  C27 <0> A   1     -30.827  -6.642  54.589  0.00  0.00    +0.053 A 
ATOM     20  F2  <0> A   1     -32.662  -5.139  57.334  0.00  0.00    -0.140 F 
ENDBRANCH   3  14
BRANCH   1  22
ATOM     21  C1  <0> A   1     -28.782  -9.432  51.193  0.00  0.00    +0.030 C 
ATOM     22  C2  <0> A   1     -28.466  -8.260  50.260  0.00  0.00    +0.033 C 
ATOM     23  C3  <0> A   1     -29.527  -8.184  49.159  0.00  0.00    +0.025 C 
ENDBRANCH   1  22
BRANCH   6  24
ATOM     24  O1  <0> A   1     -26.823  -6.069  49.594  0.00  0.00    -0.316 OA
BRANCH  24  25
ATOM     25  C10 <0> A   1     -25.493  -6.530  49.838  0.00  0.00    +0.151 C 
BRANCH  25  26
ATOM     26  C11 <0> A   1     -25.300  -7.902  49.188  0.00  0.00    +0.225 C 
BRANCH  26  27
ATOM     27  O5  <0> A   1     -24.474  -7.767  48.029  0.00  0.00    -0.531 OA
ATOM     28  H19 <0> A   1     -24.216  -6.856  47.834  0.00  0.00    +0.363 HD
ENDBRANCH  26  27
BRANCH  26  29
ATOM     29  C12 <0> A   1     -24.630  -8.849  50.185  0.00  0.00    -0.043 C 
BRANCH  29  30
ATOM     30  C13 <0> A   1     -25.320 -10.214  50.133  0.00  0.00    +0.235 C 
BRANCH  30  31
ATOM     31  O4  <0> A   1     -25.779 -10.465  48.803  0.00  0.00    -0.526 OA
ATOM     32  H18 <0> A   1     -26.574  -9.971  48.562  0.00  0.00    +0.350 HD
ENDBRANCH  30  31
BRANCH  30  33
ATOM     33  C14 <0> A   1     -24.326 -11.303  50.544  0.00  0.00    -0.101 C 
BRANCH  33  34
ATOM     34  C15 <0> A   1     -24.311 -12.389  49.500  0.00  0.00    +0.491 C 
ATOM     35  O2  <0> A   1     -23.485 -12.363  48.604  0.00  0.00    -0.680 OA
ATOM     36  O3  <0> A   1     -25.126 -13.295  49.551  0.00  0.00    -0.713 OA
ENDBRANCH  33  34
ENDBRANCH  30  33
ENDBRANCH  29  30
ENDBRANCH  26  29
ENDBRANCH  25  26
ENDBRANCH  24  25
ENDBRANCH   6  24
TORSDOF 12
