MODEL 1
REMARK VINA RESULT:      -8.8      0.000      0.000
REMARK  Name = CHEMBL77486
REMARK  14 active torsions:
REMARK  status: ('A' for Active; 'I' for Inactive)
REMARK    1  A    between atoms: C1_1  and  C2_2
REMARK    2  A    between atoms: C2_2  and  C3_3
REMARK    3  A    between atoms: C3_3  and  C4_5
REMARK    4  A    between atoms: C3_3  and  C5_6
REMARK    5  A    between atoms: C5_6  and  O2_8
REMARK    6  A    between atoms: O2_8  and  C6_9
REMARK    7  A    between atoms: C8_12  and  C24_38
REMARK    8  A    between atoms: C12_19  and  C17_26
REMARK    9  A    between atoms: C13_21  and  C16_25
REMARK   10  A    between atoms: C17_26  and  C18_27
REMARK   11  A    between atoms: C18_27  and  C19_28
REMARK   12  A    between atoms: C21_31  and  O5_37
REMARK   13  A    between atoms: C25_39  and  C26_40
REMARK   14  A    between atoms: C26_40  and  C27_41
REMARK                            x       y       z     vdW  Elec       q    Type
REMARK                         _______ _______ _______ _____ _____    ______ ____
ROOT
ATOM      1  C6  <0> A   1     -13.884   7.892  47.282  0.00  0.00    +0.183 C 
ATOM      2  C7  <0> A   1     -12.364   7.973  47.455  0.00  0.00    +0.020 C 
ATOM      3  C8  <0> A   1     -11.765   8.906  46.401  0.00  0.00    +0.019 C 
ATOM      4  C9  <0> A   1     -12.381  10.303  46.525  0.00  0.00    +0.034 C 
ATOM      5  C10 <0> A   1     -13.891  10.192  46.332  0.00  0.00    +0.039 C 
ATOM      6  C11 <0> A   1     -14.474   9.291  47.429  0.00  0.00    +0.017 C 
ATOM      7  C12 <0> A   1     -15.996   9.270  47.279  0.00  0.00    +0.004 C 
ATOM      8  C13 <0> A   1     -16.528  10.666  47.617  0.00  0.00    +0.023 C 
ATOM      9  C14 <0> A   1     -15.723  11.725  46.926  0.00  0.00    -0.050 C 
ATOM     10  C15 <0> A   1     -14.561  11.529  46.385  0.00  0.00    -0.043 C 
ATOM     11  C16 <0> A   1     -16.450  10.881  49.130  0.00  0.00    +0.027 C 
ENDROOT
BRANCH   3  12
ATOM     12  C24 <0> A   1     -12.049   8.356  45.027  0.00  0.00    -0.009 C 
ATOM     13  C25 <0> A   1     -11.757   9.064  43.965  0.00  0.00    -0.061 C 
BRANCH  13  14
ATOM     14  C26 <0> A   1     -12.154   8.569  42.597  0.00  0.00    +0.104 C 
BRANCH  14  15
ATOM     15  C27 <0> A   1     -13.020   9.600  41.922  0.00  0.00    -0.075 A 
ATOM     16  C28 <0> A   1     -13.748  10.497  42.680  0.00  0.00    +0.005 A 
ATOM     17  C29 <0> A   1     -14.542  11.443  42.061  0.00  0.00    +0.002 A 
ATOM     18  C30 <0> A   1     -14.609  11.492  40.680  0.00  0.00    -0.006 A 
ATOM     19  C31 <0> A   1     -13.881  10.597  39.921  0.00  0.00    +0.002 A 
ATOM     20  C32 <0> A   1     -13.083   9.653  40.541  0.00  0.00    +0.001 A 
ENDBRANCH  14  15
ENDBRANCH  13  14
ENDBRANCH   3  12
BRANCH   1  21
ATOM     21  O2  <0> A   1     -14.191   7.376  45.985  0.00  0.00    -0.332 OA
BRANCH  21  22
ATOM     22  C5  <0> A   1     -14.312   6.043  45.872  0.00  0.00    +0.460 C 
ATOM     23  O1  <0> A   1     -14.532   5.371  46.852  0.00  0.00    -0.503 OA
BRANCH  22  24
ATOM     24  C3  <0> A   1     -14.172   5.385  44.524  0.00  0.00    +0.022 C 
ATOM     25  C4  <0> A   1     -14.349   3.873  44.672  0.00  0.00    +0.056 C 
BRANCH  24  27
ATOM     26  C1  <0> A   1     -16.627   5.533  44.085  0.00  0.00    +0.022 C 
ATOM     27  C2  <0> A   1     -15.240   5.934  43.576  0.00  0.00    +0.031 C 
ENDBRANCH  24  27
ENDBRANCH  22  24
ENDBRANCH  21  22
ENDBRANCH   1  21
BRANCH   7  28
ATOM     28  C17 <0> A   1     -16.595   8.241  48.239  0.00  0.00    +0.019 C 
BRANCH  28  29
ATOM     29  C18 <0> A   1     -17.490   7.275  47.461  0.00  0.00    +0.051 C 
BRANCH  29  30
ATOM     30  C19 <0> A   1     -18.838   7.144  48.171  0.00  0.00    +0.193 C 
ATOM     31  C20 <0> A   1     -18.694   7.595  49.627  0.00  0.00    +0.040 C 
ATOM     32  C21 <0> A   1     -20.036   7.423  50.347  0.00  0.00    +0.183 C 
ATOM     33  C22 <0> A   1     -20.446   5.945  50.286  0.00  0.00    +0.021 C 
ATOM     34  C23 <0> A   1     -20.379   5.494  48.843  0.00  0.00    +0.496 C 
ATOM     35  O3  <0> A   1     -21.299   4.896  48.336  0.00  0.00    -0.453 OA
ATOM     36  O4  <0> A   1     -19.264   5.777  48.139  0.00  0.00    -0.367 OA
BRANCH  32  37
ATOM     37  O5  <0> A   1     -21.030   8.224  49.705  0.00  0.00    -0.563 OA
ATOM     38  H35 <0> A   1     -21.122   8.052  48.758  0.00  0.00    +0.386 HD
ENDBRANCH  32  37
ENDBRANCH  29  30
ENDBRANCH  28  29
ENDBRANCH   7  28
TORSDOF 11
ENDMDL
MODEL 2
REMARK VINA RESULT:      -8.0     13.258     18.283
REMARK  Name = CHEMBL77486
REMARK  14 active torsions:
REMARK  status: ('A' for Active; 'I' for Inactive)
REMARK    1  A    between atoms: C1_1  and  C2_2
REMARK    2  A    between atoms: C2_2  and  C3_3
REMARK    3  A    between atoms: C3_3  and  C4_5
REMARK    4  A    between atoms: C3_3  and  C5_6
REMARK    5  A    between atoms: C5_6  and  O2_8
REMARK    6  A    between atoms: O2_8  and  C6_9
REMARK    7  A    between atoms: C8_12  and  C24_38
REMARK    8  A    between atoms: C12_19  and  C17_26
REMARK    9  A    between atoms: C13_21  and  C16_25
REMARK   10  A    between atoms: C17_26  and  C18_27
REMARK   11  A    between atoms: C18_27  and  C19_28
REMARK   12  A    between atoms: C21_31  and  O5_37
REMARK   13  A    between atoms: C25_39  and  C26_40
REMARK   14  A    between atoms: C26_40  and  C27_41
REMARK                            x       y       z     vdW  Elec       q    Type
REMARK                         _______ _______ _______ _____ _____    ______ ____
ROOT
ATOM      1  C6  <0> A   1     -27.409  -3.805  52.099  0.00  0.00    +0.183 C 
ATOM      2  C7  <0> A   1     -28.356  -3.049  53.037  0.00  0.00    +0.020 C 
ATOM      3  C8  <0> A   1     -29.410  -2.297  52.223  0.00  0.00    +0.019 C 
ATOM      4  C9  <0> A   1     -30.204  -3.280  51.358  0.00  0.00    +0.034 C 
ATOM      5  C10 <0> A   1     -29.239  -4.005  50.424  0.00  0.00    +0.039 C 
ATOM      6  C11 <0> A   1     -28.222  -4.789  51.263  0.00  0.00    +0.017 C 
ATOM      7  C12 <0> A   1     -27.324  -5.586  50.316  0.00  0.00    +0.004 C 
ATOM      8  C13 <0> A   1     -28.177  -6.669  49.649  0.00  0.00    +0.023 C 
ATOM      9  C14 <0> A   1     -29.471  -6.099  49.151  0.00  0.00    -0.050 C 
ATOM     10  C15 <0> A   1     -29.951  -4.947  49.506  0.00  0.00    -0.043 C 
ATOM     11  C16 <0> A   1     -28.473  -7.773  50.666  0.00  0.00    +0.027 C 
ENDROOT
BRANCH   3  12
ATOM     12  C24 <0> A   1     -28.729  -1.288  51.334  0.00  0.00    -0.009 C 
ATOM     13  C25 <0> A   1     -28.680  -0.028  51.690  0.00  0.00    -0.061 C 
BRANCH  13  14
ATOM     14  C26 <0> A   1     -28.110   1.000  50.746  0.00  0.00    +0.104 C 
BRANCH  14  15
ATOM     15  C27 <0> A   1     -26.680   1.289  51.121  0.00  0.00    -0.075 A 
ATOM     16  C28 <0> A   1     -26.396   2.227  52.096  0.00  0.00    +0.005 A 
ATOM     17  C29 <0> A   1     -25.085   2.492  52.441  0.00  0.00    +0.002 A 
ATOM     18  C30 <0> A   1     -24.055   1.818  51.810  0.00  0.00    -0.006 A 
ATOM     19  C31 <0> A   1     -24.338   0.879  50.836  0.00  0.00    +0.002 A 
ATOM     20  C32 <0> A   1     -25.650   0.611  50.495  0.00  0.00    +0.001 A 
ENDBRANCH  14  15
ENDBRANCH  13  14
ENDBRANCH   3  12
BRANCH   1  21
ATOM     21  O2  <0> A   1     -26.747  -2.877  51.237  0.00  0.00    -0.332 OA
BRANCH  21  22
ATOM     22  C5  <0> A   1     -25.423  -2.727  51.405  0.00  0.00    +0.460 C 
ATOM     23  O1  <0> A   1     -24.682  -2.789  50.453  0.00  0.00    -0.503 OA
BRANCH  22  24
ATOM     24  C3  <0> A   1     -24.862  -2.481  52.782  0.00  0.00    +0.022 C 
ATOM     25  C4  <0> A   1     -23.366  -2.177  52.678  0.00  0.00    +0.056 C 
BRANCH  24  27
ATOM     26  C1  <0> A   1     -24.707  -0.703  54.530  0.00  0.00    +0.022 C 
ATOM     27  C2  <0> A   1     -25.581  -1.292  53.421  0.00  0.00    +0.031 C 
ENDBRANCH  24  27
ENDBRANCH  22  24
ENDBRANCH  21  22
ENDBRANCH   1  21
BRANCH   7  28
ATOM     28  C17 <0> A   1     -26.187  -6.235  51.105  0.00  0.00    +0.019 C 
BRANCH  28  29
ATOM     29  C18 <0> A   1     -24.922  -6.268  50.246  0.00  0.00    +0.051 C 
BRANCH  29  30
ATOM     30  C19 <0> A   1     -24.165  -7.572  50.502  0.00  0.00    +0.193 C 
ATOM     31  C20 <0> A   1     -25.078  -8.762  50.192  0.00  0.00    +0.040 C 
ATOM     32  C21 <0> A   1     -24.332 -10.067  50.490  0.00  0.00    +0.183 C 
ATOM     33  C22 <0> A   1     -23.924 -10.079  51.969  0.00  0.00    +0.021 C 
ATOM     34  C23 <0> A   1     -23.196  -8.788  52.272  0.00  0.00    +0.496 C 
ATOM     35  O3  <0> A   1     -22.136  -8.795  52.853  0.00  0.00    -0.453 OA
ATOM     36  O4  <0> A   1     -23.762  -7.630  51.875  0.00  0.00    -0.367 OA
BRANCH  32  37
ATOM     37  O5  <0> A   1     -23.164 -10.147  49.670  0.00  0.00    -0.563 OA
ATOM     38  H35 <0> A   1     -22.981  -9.343  49.165  0.00  0.00    +0.386 HD
ENDBRANCH  32  37
ENDBRANCH  29  30
ENDBRANCH  28  29
ENDBRANCH   7  28
TORSDOF 11
ENDMDL
MODEL 3
REMARK VINA RESULT:      -8.0      1.333      2.272
REMARK  Name = CHEMBL77486
REMARK  14 active torsions:
REMARK  status: ('A' for Active; 'I' for Inactive)
REMARK    1  A    between atoms: C1_1  and  C2_2
REMARK    2  A    between atoms: C2_2  and  C3_3
REMARK    3  A    between atoms: C3_3  and  C4_5
REMARK    4  A    between atoms: C3_3  and  C5_6
REMARK    5  A    between atoms: C5_6  and  O2_8
REMARK    6  A    between atoms: O2_8  and  C6_9
REMARK    7  A    between atoms: C8_12  and  C24_38
REMARK    8  A    between atoms: C12_19  and  C17_26
REMARK    9  A    between atoms: C13_21  and  C16_25
REMARK   10  A    between atoms: C17_26  and  C18_27
REMARK   11  A    between atoms: C18_27  and  C19_28
REMARK   12  A    between atoms: C21_31  and  O5_37
REMARK   13  A    between atoms: C25_39  and  C26_40
REMARK   14  A    between atoms: C26_40  and  C27_41
REMARK                            x       y       z     vdW  Elec       q    Type
REMARK                         _______ _______ _______ _____ _____    ______ ____
ROOT
ATOM      1  C6  <0> A   1     -12.503   7.992  47.003  0.00  0.00    +0.183 C 
ATOM      2  C7  <0> A   1     -11.079   7.569  46.628  0.00  0.00    +0.020 C 
ATOM      3  C8  <0> A   1     -10.657   8.251  45.325  0.00  0.00    +0.019 C 
ATOM      4  C9  <0> A   1     -10.727   9.773  45.482  0.00  0.00    +0.034 C 
ATOM      5  C10 <0> A   1     -12.158  10.165  45.840  0.00  0.00    +0.039 C 
ATOM      6  C11 <0> A   1     -12.542   9.508  47.172  0.00  0.00    +0.017 C 
ATOM      7  C12 <0> A   1     -13.940   9.988  47.563  0.00  0.00    +0.004 C 
ATOM      8  C13 <0> A   1     -13.858  11.482  47.890  0.00  0.00    +0.023 C 
ATOM      9  C14 <0> A   1     -13.082  12.216  46.839  0.00  0.00    -0.050 C 
ATOM     10  C15 <0> A   1     -12.319  11.647  45.957  0.00  0.00    -0.043 C 
ATOM     11  C16 <0> A   1     -13.167  11.663  49.243  0.00  0.00    +0.027 C 
ENDROOT
BRANCH   3  12
ATOM     12  C24 <0> A   1     -11.580   7.821  44.214  0.00  0.00    -0.009 C 
ATOM     13  C25 <0> A   1     -11.450   8.339  43.018  0.00  0.00    -0.061 C 
BRANCH  13  14
ATOM     14  C26 <0> A   1     -12.449   8.004  41.939  0.00  0.00    +0.104 C 
BRANCH  14  15
ATOM     15  C27 <0> A   1     -13.190   9.252  41.536  0.00  0.00    -0.075 A 
ATOM     16  C28 <0> A   1     -13.374   9.546  40.198  0.00  0.00    +0.005 A 
ATOM     17  C29 <0> A   1     -14.055  10.690  39.828  0.00  0.00    +0.002 A 
ATOM     18  C30 <0> A   1     -14.553  11.541  40.796  0.00  0.00    -0.006 A 
ATOM     19  C31 <0> A   1     -14.372  11.247  42.134  0.00  0.00    +0.002 A 
ATOM     20  C32 <0> A   1     -13.695  10.101  42.505  0.00  0.00    +0.001 A 
ENDBRANCH  14  15
ENDBRANCH  13  14
ENDBRANCH   3  12
BRANCH   1  21
ATOM     21  O2  <0> A   1     -13.408   7.602  45.967  0.00  0.00    -0.332 OA
BRANCH  21  22
ATOM     22  C5  <0> A   1     -13.941   6.373  46.055  0.00  0.00    +0.460 C 
ATOM     23  O1  <0> A   1     -14.300   5.945  47.126  0.00  0.00    -0.503 OA
BRANCH  22  24
ATOM     24  C3  <0> A   1     -14.091   5.527  44.816  0.00  0.00    +0.022 C 
ATOM     25  C4  <0> A   1     -14.569   4.128  45.208  0.00  0.00    +0.056 C 
BRANCH  24  27
ATOM     26  C1  <0> A   1     -16.464   5.468  44.036  0.00  0.00    +0.022 C 
ATOM     27  C2  <0> A   1     -15.114   6.172  43.880  0.00  0.00    +0.031 C 
ENDBRANCH  24  27
ENDBRANCH  22  24
ENDBRANCH  21  22
ENDBRANCH   1  21
BRANCH   7  28
ATOM     28  C17 <0> A   1     -14.426   9.215  48.790  0.00  0.00    +0.019 C 
BRANCH  28  29
ATOM     29  C18 <0> A   1     -15.922   9.466  48.992  0.00  0.00    +0.051 C 
BRANCH  29  30
ATOM     30  C19 <0> A   1     -16.689   8.156  48.805  0.00  0.00    +0.193 C 
ATOM     31  C20 <0> A   1     -17.066   7.991  47.330  0.00  0.00    +0.040 C 
ATOM     32  C21 <0> A   1     -17.870   6.699  47.153  0.00  0.00    +0.183 C 
ATOM     33  C22 <0> A   1     -19.134   6.778  48.019  0.00  0.00    +0.021 C 
ATOM     34  C23 <0> A   1     -18.721   7.141  49.429  0.00  0.00    +0.496 C 
ATOM     35  O3  <0> A   1     -19.132   6.514  50.377  0.00  0.00    -0.453 OA
ATOM     36  O4  <0> A   1     -17.881   8.182  49.598  0.00  0.00    -0.367 OA
BRANCH  32  37
ATOM     37  O5  <0> A   1     -17.078   5.582  47.561  0.00  0.00    -0.563 OA
ATOM     38  H35 <0> A   1     -16.206   5.822  47.903  0.00  0.00    +0.386 HD
ENDBRANCH  32  37
ENDBRANCH  29  30
ENDBRANCH  28  29
ENDBRANCH   7  28
TORSDOF 11
ENDMDL
MODEL 4
REMARK VINA RESULT:      -7.8     13.148     18.829
REMARK  Name = CHEMBL77486
REMARK  14 active torsions:
REMARK  status: ('A' for Active; 'I' for Inactive)
REMARK    1  A    between atoms: C1_1  and  C2_2
REMARK    2  A    between atoms: C2_2  and  C3_3
REMARK    3  A    between atoms: C3_3  and  C4_5
REMARK    4  A    between atoms: C3_3  and  C5_6
REMARK    5  A    between atoms: C5_6  and  O2_8
REMARK    6  A    between atoms: O2_8  and  C6_9
REMARK    7  A    between atoms: C8_12  and  C24_38
REMARK    8  A    between atoms: C12_19  and  C17_26
REMARK    9  A    between atoms: C13_21  and  C16_25
REMARK   10  A    between atoms: C17_26  and  C18_27
REMARK   11  A    between atoms: C18_27  and  C19_28
REMARK   12  A    between atoms: C21_31  and  O5_37
REMARK   13  A    between atoms: C25_39  and  C26_40
REMARK   14  A    between atoms: C26_40  and  C27_41
REMARK                            x       y       z     vdW  Elec       q    Type
REMARK                         _______ _______ _______ _____ _____    ______ ____
ROOT
ATOM      1  C6  <0> A   1     -27.131  -4.931  51.682  0.00  0.00    +0.183 C 
ATOM      2  C7  <0> A   1     -27.848  -3.934  52.598  0.00  0.00    +0.020 C 
ATOM      3  C8  <0> A   1     -28.735  -3.004  51.768  0.00  0.00    +0.019 C 
ATOM      4  C9  <0> A   1     -29.762  -3.823  50.980  0.00  0.00    +0.034 C 
ATOM      5  C10 <0> A   1     -29.020  -4.795  50.067  0.00  0.00    +0.039 C 
ATOM      6  C11 <0> A   1     -28.176  -5.746  50.924  0.00  0.00    +0.017 C 
ATOM      7  C12 <0> A   1     -27.516  -6.772  50.002  0.00  0.00    +0.004 C 
ATOM      8  C13 <0> A   1     -28.615  -7.666  49.420  0.00  0.00    +0.023 C 
ATOM      9  C14 <0> A   1     -29.764  -6.843  48.922  0.00  0.00    -0.050 C 
ATOM     10  C15 <0> A   1     -29.959  -5.596  49.221  0.00  0.00    -0.043 C 
ATOM     11  C16 <0> A   1     -29.113  -8.622  50.505  0.00  0.00    +0.027 C 
ENDROOT
BRANCH   3  12
ATOM     12  C24 <0> A   1     -27.878  -2.222  50.806  0.00  0.00    -0.009 C 
ATOM     13  C25 <0> A   1     -27.593  -0.967  51.053  0.00  0.00    -0.061 C 
BRANCH  13  14
ATOM     14  C26 <0> A   1     -26.842  -0.150  50.033  0.00  0.00    +0.104 C 
BRANCH  14  15
ATOM     15  C27 <0> A   1     -25.835   0.724  50.733  0.00  0.00    -0.075 A 
ATOM     16  C28 <0> A   1     -24.484   0.546  50.502  0.00  0.00    +0.005 A 
ATOM     17  C29 <0> A   1     -23.560   1.349  51.143  0.00  0.00    +0.002 A 
ATOM     18  C30 <0> A   1     -23.988   2.332  52.017  0.00  0.00    -0.006 A 
ATOM     19  C31 <0> A   1     -25.338   2.512  52.248  0.00  0.00    +0.002 A 
ATOM     20  C32 <0> A   1     -26.262   1.711  51.602  0.00  0.00    +0.001 A 
ENDBRANCH  14  15
ENDBRANCH  13  14
ENDBRANCH   3  12
BRANCH   1  21
ATOM     21  O2  <0> A   1     -26.309  -4.222  50.752  0.00  0.00    -0.332 OA
BRANCH  21  22
ATOM     22  C5  <0> A   1     -25.003  -4.119  51.048  0.00  0.00    +0.460 C 
ATOM     23  O1  <0> A   1     -24.339  -5.116  51.201  0.00  0.00    -0.503 OA
BRANCH  22  24
ATOM     24  C3  <0> A   1     -24.368  -2.760  51.189  0.00  0.00    +0.022 C 
ATOM     25  C4  <0> A   1     -24.492  -2.286  52.639  0.00  0.00    +0.056 C 
BRANCH  24  27
ATOM     26  C1  <0> A   1     -22.033  -2.294  51.946  0.00  0.00    +0.022 C 
ATOM     27  C2  <0> A   1     -22.890  -2.846  50.804  0.00  0.00    +0.031 C 
ENDBRANCH  24  27
ENDBRANCH  22  24
ENDBRANCH  21  22
ENDBRANCH   1  21
BRANCH   7  28
ATOM     28  C17 <0> A   1     -26.526  -7.622  50.800  0.00  0.00    +0.019 C 
BRANCH  28  29
ATOM     29  C18 <0> A   1     -25.427  -8.137  49.867  0.00  0.00    +0.051 C 
BRANCH  29  30
ATOM     30  C19 <0> A   1     -25.465  -9.665  49.830  0.00  0.00    +0.193 C 
ATOM     31  C20 <0> A   1     -24.465 -10.226  50.844  0.00  0.00    +0.040 C 
ATOM     32  C21 <0> A   1     -24.474 -11.757  50.774  0.00  0.00    +0.183 C 
ATOM     33  C22 <0> A   1     -24.090 -12.191  49.353  0.00  0.00    +0.021 C 
ATOM     34  C23 <0> A   1     -24.980 -11.454  48.375  0.00  0.00    +0.496 C 
ATOM     35  O3  <0> A   1     -25.555 -12.045  47.492  0.00  0.00    -0.453 OA
ATOM     36  O4  <0> A   1     -25.113 -10.120  48.517  0.00  0.00    -0.367 OA
BRANCH  32  37
ATOM     37  O5  <0> A   1     -25.782 -12.242  51.088  0.00  0.00    -0.563 OA
ATOM     38  H35 <0> A   1     -26.363 -11.579  51.484  0.00  0.00    +0.386 HD
ENDBRANCH  32  37
ENDBRANCH  29  30
ENDBRANCH  28  29
ENDBRANCH   7  28
TORSDOF 11
ENDMDL
MODEL 5
REMARK VINA RESULT:      -7.8     14.746     18.055
REMARK  Name = CHEMBL77486
REMARK  14 active torsions:
REMARK  status: ('A' for Active; 'I' for Inactive)
REMARK    1  A    between atoms: C1_1  and  C2_2
REMARK    2  A    between atoms: C2_2  and  C3_3
REMARK    3  A    between atoms: C3_3  and  C4_5
REMARK    4  A    between atoms: C3_3  and  C5_6
REMARK    5  A    between atoms: C5_6  and  O2_8
REMARK    6  A    between atoms: O2_8  and  C6_9
REMARK    7  A    between atoms: C8_12  and  C24_38
REMARK    8  A    between atoms: C12_19  and  C17_26
REMARK    9  A    between atoms: C13_21  and  C16_25
REMARK   10  A    between atoms: C17_26  and  C18_27
REMARK   11  A    between atoms: C18_27  and  C19_28
REMARK   12  A    between atoms: C21_31  and  O5_37
REMARK   13  A    between atoms: C25_39  and  C26_40
REMARK   14  A    between atoms: C26_40  and  C27_41
REMARK                            x       y       z     vdW  Elec       q    Type
REMARK                         _______ _______ _______ _____ _____    ______ ____
ROOT
ATOM      1  C6  <0> A   1     -26.465  -1.423  50.346  0.00  0.00    +0.183 C 
ATOM      2  C7  <0> A   1     -26.775  -0.080  49.677  0.00  0.00    +0.020 C 
ATOM      3  C8  <0> A   1     -27.262   0.926  50.721  0.00  0.00    +0.019 C 
ATOM      4  C9  <0> A   1     -26.195   1.115  51.805  0.00  0.00    +0.034 C 
ATOM      5  C10 <0> A   1     -25.920  -0.234  52.464  0.00  0.00    +0.039 C 
ATOM      6  C11 <0> A   1     -25.388  -1.210  51.407  0.00  0.00    +0.017 C 
ATOM      7  C12 <0> A   1     -25.026  -2.524  52.100  0.00  0.00    +0.004 C 
ATOM      8  C13 <0> A   1     -23.823  -2.266  53.013  0.00  0.00    +0.023 C 
ATOM      9  C14 <0> A   1     -24.026  -1.022  53.825  0.00  0.00    -0.050 C 
ATOM     10  C15 <0> A   1     -24.924  -0.120  53.575  0.00  0.00    -0.043 C 
ATOM     11  C16 <0> A   1     -22.566  -2.106  52.155  0.00  0.00    +0.027 C 
ENDROOT
BRANCH   3  12
ATOM     12  C24 <0> A   1     -28.531   0.416  51.354  0.00  0.00    -0.009 C 
ATOM     13  C25 <0> A   1     -29.450   1.260  51.751  0.00  0.00    -0.061 C 
BRANCH  13  14
ATOM     14  C26 <0> A   1     -30.662   0.759  52.495  0.00  0.00    +0.104 C 
BRANCH  14  15
ATOM     15  C27 <0> A   1     -31.771   1.772  52.390  0.00  0.00    -0.075 A 
ATOM     16  C28 <0> A   1     -33.013   1.392  51.919  0.00  0.00    +0.005 A 
ATOM     17  C29 <0> A   1     -34.032   2.322  51.823  0.00  0.00    +0.002 A 
ATOM     18  C30 <0> A   1     -33.807   3.633  52.197  0.00  0.00    -0.006 A 
ATOM     19  C31 <0> A   1     -32.565   4.015  52.669  0.00  0.00    +0.002 A 
ATOM     20  C32 <0> A   1     -31.549   3.083  52.770  0.00  0.00    +0.001 A 
ENDBRANCH  14  15
ENDBRANCH  13  14
ENDBRANCH   3  12
BRANCH   1  21
ATOM     21  O2  <0> A   1     -27.648  -1.936  50.961  0.00  0.00    -0.332 OA
BRANCH  21  22
ATOM     22  C5  <0> A   1     -28.244  -2.979  50.360  0.00  0.00    +0.460 C 
ATOM     23  O1  <0> A   1     -28.015  -3.218  49.198  0.00  0.00    -0.503 OA
BRANCH  22  24
ATOM     24  C3  <0> A   1     -29.199  -3.849  51.134  0.00  0.00    +0.022 C 
ATOM     25  C4  <0> A   1     -29.115  -5.287  50.616  0.00  0.00    +0.056 C 
BRANCH  24  27
ATOM     26  C1  <0> A   1     -29.903  -3.059  53.398  0.00  0.00    +0.022 C 
ATOM     27  C2  <0> A   1     -28.828  -3.819  52.618  0.00  0.00    +0.031 C 
ENDBRANCH  24  27
ENDBRANCH  22  24
ENDBRANCH  21  22
ENDBRANCH   1  21
BRANCH   7  28
ATOM     28  C17 <0> A   1     -24.664  -3.578  51.053  0.00  0.00    +0.019 C 
BRANCH  28  29
ATOM     29  C18 <0> A   1     -25.421  -4.874  51.350  0.00  0.00    +0.051 C 
BRANCH  29  30
ATOM     30  C19 <0> A   1     -24.636  -6.063  50.794  0.00  0.00    +0.193 C 
ATOM     31  C20 <0> A   1     -25.419  -6.699  49.643  0.00  0.00    +0.040 C 
ATOM     32  C21 <0> A   1     -24.649  -7.915  49.116  0.00  0.00    +0.183 C 
ATOM     33  C22 <0> A   1     -24.471  -8.923  50.259  0.00  0.00    +0.021 C 
ATOM     34  C23 <0> A   1     -23.875  -8.196  51.444  0.00  0.00    +0.496 C 
ATOM     35  O3  <0> A   1     -22.917  -8.643  52.030  0.00  0.00    -0.453 OA
ATOM     36  O4  <0> A   1     -24.442  -7.034  51.829  0.00  0.00    -0.367 OA
BRANCH  32  37
ATOM     37  O5  <0> A   1     -23.368  -7.500  48.637  0.00  0.00    -0.563 OA
ATOM     38  H35 <0> A   1     -22.911  -6.881  49.223  0.00  0.00    +0.386 HD
ENDBRANCH  32  37
ENDBRANCH  29  30
ENDBRANCH  28  29
ENDBRANCH   7  28
TORSDOF 11
ENDMDL
MODEL 6
REMARK VINA RESULT:      -7.8      1.316      2.143
REMARK  Name = CHEMBL77486
REMARK  14 active torsions:
REMARK  status: ('A' for Active; 'I' for Inactive)
REMARK    1  A    between atoms: C1_1  and  C2_2
REMARK    2  A    between atoms: C2_2  and  C3_3
REMARK    3  A    between atoms: C3_3  and  C4_5
REMARK    4  A    between atoms: C3_3  and  C5_6
REMARK    5  A    between atoms: C5_6  and  O2_8
REMARK    6  A    between atoms: O2_8  and  C6_9
REMARK    7  A    between atoms: C8_12  and  C24_38
REMARK    8  A    between atoms: C12_19  and  C17_26
REMARK    9  A    between atoms: C13_21  and  C16_25
REMARK   10  A    between atoms: C17_26  and  C18_27
REMARK   11  A    between atoms: C18_27  and  C19_28
REMARK   12  A    between atoms: C21_31  and  O5_37
REMARK   13  A    between atoms: C25_39  and  C26_40
REMARK   14  A    between atoms: C26_40  and  C27_41
REMARK                            x       y       z     vdW  Elec       q    Type
REMARK                         _______ _______ _______ _____ _____    ______ ____
ROOT
ATOM      1  C6  <0> A   1     -13.580   9.393  46.781  0.00  0.00    +0.183 C 
ATOM      2  C7  <0> A   1     -12.398  10.232  46.285  0.00  0.00    +0.020 C 
ATOM      3  C8  <0> A   1     -12.900  11.366  45.390  0.00  0.00    +0.019 C 
ATOM      4  C9  <0> A   1     -13.882  12.251  46.164  0.00  0.00    +0.034 C 
ATOM      5  C10 <0> A   1     -15.054  11.393  46.631  0.00  0.00    +0.039 C 
ATOM      6  C11 <0> A   1     -14.532  10.293  47.564  0.00  0.00    +0.017 C 
ATOM      7  C12 <0> A   1     -15.728   9.504  48.099  0.00  0.00    +0.004 C 
ATOM      8  C13 <0> A   1     -16.535  10.426  49.018  0.00  0.00    +0.023 C 
ATOM      9  C14 <0> A   1     -16.748  11.765  48.378  0.00  0.00    -0.050 C 
ATOM     10  C15 <0> A   1     -16.087  12.201  47.351  0.00  0.00    -0.043 C 
ATOM     11  C16 <0> A   1     -15.777  10.612  50.334  0.00  0.00    +0.027 C 
ENDROOT
BRANCH   3  12
ATOM     12  C24 <0> A   1     -13.596  10.783  44.187  0.00  0.00    -0.009 C 
ATOM     13  C25 <0> A   1     -13.621  11.448  43.058  0.00  0.00    -0.061 C 
BRANCH  13  14
ATOM     14  C26 <0> A   1     -14.421  10.924  41.893  0.00  0.00    +0.104 C 
BRANCH  14  15
ATOM     15  C27 <0> A   1     -13.635   9.853  41.184  0.00  0.00    -0.075 A 
ATOM     16  C28 <0> A   1     -13.358   9.976  39.836  0.00  0.00    +0.005 A 
ATOM     17  C29 <0> A   1     -12.635   8.993  39.185  0.00  0.00    +0.002 A 
ATOM     18  C30 <0> A   1     -12.191   7.886  39.883  0.00  0.00    -0.006 A 
ATOM     19  C31 <0> A   1     -12.467   7.762  41.232  0.00  0.00    +0.002 A 
ATOM     20  C32 <0> A   1     -13.185   8.748  41.883  0.00  0.00    +0.001 A 
ENDBRANCH  14  15
ENDBRANCH  13  14
ENDBRANCH   3  12
BRANCH   1  21
ATOM     21  O2  <0> A   1     -14.268   8.826  45.664  0.00  0.00    -0.332 OA
BRANCH  21  22
ATOM     22  C5  <0> A   1     -14.067   7.520  45.424  0.00  0.00    +0.460 C 
ATOM     23  O1  <0> A   1     -13.218   6.917  46.037  0.00  0.00    -0.503 OA
BRANCH  22  24
ATOM     24  C3  <0> A   1     -14.900   6.807  44.390  0.00  0.00    +0.022 C 
ATOM     25  C4  <0> A   1     -14.073   5.694  43.746  0.00  0.00    +0.056 C 
BRANCH  24  27
ATOM     26  C1  <0> A   1     -16.731   5.124  44.153  0.00  0.00    +0.022 C 
ATOM     27  C2  <0> A   1     -16.136   6.203  45.060  0.00  0.00    +0.031 C 
ENDBRANCH  24  27
ENDBRANCH  22  24
ENDBRANCH  21  22
ENDBRANCH   1  21
BRANCH   7  28
ATOM     28  C17 <0> A   1     -15.235   8.290  48.887  0.00  0.00    +0.019 C 
BRANCH  28  29
ATOM     29  C18 <0> A   1     -16.040   7.055  48.479  0.00  0.00    +0.051 C 
BRANCH  29  30
ATOM     30  C19 <0> A   1     -17.522   7.293  48.769  0.00  0.00    +0.193 C 
ATOM     31  C20 <0> A   1     -17.794   7.069  50.259  0.00  0.00    +0.040 C 
ATOM     32  C21 <0> A   1     -19.288   7.267  50.539  0.00  0.00    +0.183 C 
ATOM     33  C22 <0> A   1     -20.088   6.265  49.695  0.00  0.00    +0.021 C 
ATOM     34  C23 <0> A   1     -19.637   6.390  48.256  0.00  0.00    +0.496 C 
ATOM     35  O3  <0> A   1     -20.442   6.498  47.361  0.00  0.00    -0.453 OA
ATOM     36  O4  <0> A   1     -18.313   6.379  48.001  0.00  0.00    -0.367 OA
BRANCH  32  37
ATOM     37  O5  <0> A   1     -19.667   8.600  50.190  0.00  0.00    -0.563 OA
ATOM     38  H35 <0> A   1     -20.467   8.653  49.650  0.00  0.00    +0.386 HD
ENDBRANCH  32  37
ENDBRANCH  29  30
ENDBRANCH  28  29
ENDBRANCH   7  28
TORSDOF 11
ENDMDL
MODEL 7
REMARK VINA RESULT:      -7.8     14.895     18.195
REMARK  Name = CHEMBL77486
REMARK  14 active torsions:
REMARK  status: ('A' for Active; 'I' for Inactive)
REMARK    1  A    between atoms: C1_1  and  C2_2
REMARK    2  A    between atoms: C2_2  and  C3_3
REMARK    3  A    between atoms: C3_3  and  C4_5
REMARK    4  A    between atoms: C3_3  and  C5_6
REMARK    5  A    between atoms: C5_6  and  O2_8
REMARK    6  A    between atoms: O2_8  and  C6_9
REMARK    7  A    between atoms: C8_12  and  C24_38
REMARK    8  A    between atoms: C12_19  and  C17_26
REMARK    9  A    between atoms: C13_21  and  C16_25
REMARK   10  A    between atoms: C17_26  and  C18_27
REMARK   11  A    between atoms: C18_27  and  C19_28
REMARK   12  A    between atoms: C21_31  and  O5_37
REMARK   13  A    between atoms: C25_39  and  C26_40
REMARK   14  A    between atoms: C26_40  and  C27_41
REMARK                            x       y       z     vdW  Elec       q    Type
REMARK                         _______ _______ _______ _____ _____    ______ ____
ROOT
ATOM      1  C6  <0> A   1     -26.729  -1.074  50.383  0.00  0.00    +0.183 C 
ATOM      2  C7  <0> A   1     -26.861   0.264  49.649  0.00  0.00    +0.020 C 
ATOM      3  C8  <0> A   1     -27.405   1.332  50.600  0.00  0.00    +0.019 C 
ATOM      4  C9  <0> A   1     -26.473   1.485  51.806  0.00  0.00    +0.034 C 
ATOM      5  C10 <0> A   1     -26.374   0.142  52.525  0.00  0.00    +0.039 C 
ATOM      6  C11 <0> A   1     -25.782  -0.899  51.567  0.00  0.00    +0.017 C 
ATOM      7  C12 <0> A   1     -25.600  -2.211  52.330  0.00  0.00    +0.004 C 
ATOM      8  C13 <0> A   1     -24.506  -2.003  53.382  0.00  0.00    +0.023 C 
ATOM      9  C14 <0> A   1     -24.724  -0.724  54.133  0.00  0.00    -0.050 C 
ATOM     10  C15 <0> A   1     -25.520   0.226  53.750  0.00  0.00    -0.043 C 
ATOM     11  C16 <0> A   1     -23.144  -1.951  52.687  0.00  0.00    +0.027 C 
ENDROOT
BRANCH   3  12
ATOM     12  C24 <0> A   1     -28.775   0.924  51.078  0.00  0.00    -0.009 C 
ATOM     13  C25 <0> A   1     -29.551   1.801  51.666  0.00  0.00    -0.061 C 
BRANCH  13  14
ATOM     14  C26 <0> A   1     -30.869   1.365  52.254  0.00  0.00    +0.104 C 
BRANCH  14  15
ATOM     15  C27 <0> A   1     -30.619   0.439  53.416  0.00  0.00    -0.075 A 
ATOM     16  C28 <0> A   1     -29.520   0.632  54.231  0.00  0.00    +0.005 A 
ATOM     17  C29 <0> A   1     -29.291  -0.217  55.297  0.00  0.00    +0.002 A 
ATOM     18  C30 <0> A   1     -30.162  -1.261  55.548  0.00  0.00    -0.006 A 
ATOM     19  C31 <0> A   1     -31.263  -1.454  54.734  0.00  0.00    +0.002 A 
ATOM     20  C32 <0> A   1     -31.494  -0.602  53.671  0.00  0.00    +0.001 A 
ENDBRANCH  14  15
ENDBRANCH  13  14
ENDBRANCH   3  12
BRANCH   1  21
ATOM     21  O2  <0> A   1     -28.013  -1.491  50.854  0.00  0.00    -0.332 OA
BRANCH  21  22
ATOM     22  C5  <0> A   1     -28.501  -2.639  50.358  0.00  0.00    +0.460 C 
ATOM     23  O1  <0> A   1     -28.159  -3.017  49.262  0.00  0.00    -0.503 OA
BRANCH  22  24
ATOM     24  C3  <0> A   1     -29.475  -3.455  51.168  0.00  0.00    +0.022 C 
ATOM     25  C4  <0> A   1     -29.394  -4.922  50.738  0.00  0.00    +0.056 C 
BRANCH  24  27
ATOM     26  C1  <0> A   1     -29.203  -4.721  53.305  0.00  0.00    +0.022 C 
ATOM     27  C2  <0> A   1     -29.127  -3.339  52.653  0.00  0.00    +0.031 C 
ENDBRANCH  24  27
ENDBRANCH  22  24
ENDBRANCH  21  22
ENDBRANCH   1  21
BRANCH   7  28
ATOM     28  C17 <0> A   1     -25.182  -3.319  51.362  0.00  0.00    +0.019 C 
BRANCH  28  29
ATOM     29  C18 <0> A   1     -25.759  -4.655  51.835  0.00  0.00    +0.051 C 
BRANCH  29  30
ATOM     30  C19 <0> A   1     -24.961  -5.803  51.215  0.00  0.00    +0.193 C 
ATOM     31  C20 <0> A   1     -25.763  -6.419  50.065  0.00  0.00    +0.040 C 
ATOM     32  C21 <0> A   1     -24.980  -7.596  49.473  0.00  0.00    +0.183 C 
ATOM     33  C22 <0> A   1     -24.742  -8.638  50.574  0.00  0.00    +0.021 C 
ATOM     34  C23 <0> A   1     -24.129  -7.937  51.766  0.00  0.00    +0.496 C 
ATOM     35  O3  <0> A   1     -23.143  -8.379  52.308  0.00  0.00    -0.453 OA
ATOM     36  O4  <0> A   1     -24.713  -6.804  52.208  0.00  0.00    -0.367 OA
BRANCH  32  37
ATOM     37  O5  <0> A   1     -23.724  -7.131  48.972  0.00  0.00    -0.563 OA
ATOM     38  H35 <0> A   1     -23.223  -6.596  49.602  0.00  0.00    +0.386 HD
ENDBRANCH  32  37
ENDBRANCH  29  30
ENDBRANCH  28  29
ENDBRANCH   7  28
TORSDOF 11
ENDMDL
MODEL 8
REMARK VINA RESULT:      -7.8      8.286     15.425
REMARK  Name = CHEMBL77486
REMARK  14 active torsions:
REMARK  status: ('A' for Active; 'I' for Inactive)
REMARK    1  A    between atoms: C1_1  and  C2_2
REMARK    2  A    between atoms: C2_2  and  C3_3
REMARK    3  A    between atoms: C3_3  and  C4_5
REMARK    4  A    between atoms: C3_3  and  C5_6
REMARK    5  A    between atoms: C5_6  and  O2_8
REMARK    6  A    between atoms: O2_8  and  C6_9
REMARK    7  A    between atoms: C8_12  and  C24_38
REMARK    8  A    between atoms: C12_19  and  C17_26
REMARK    9  A    between atoms: C13_21  and  C16_25
REMARK   10  A    between atoms: C17_26  and  C18_27
REMARK   11  A    between atoms: C18_27  and  C19_28
REMARK   12  A    between atoms: C21_31  and  O5_37
REMARK   13  A    between atoms: C25_39  and  C26_40
REMARK   14  A    between atoms: C26_40  and  C27_41
REMARK                            x       y       z     vdW  Elec       q    Type
REMARK                         _______ _______ _______ _____ _____    ______ ____
ROOT
ATOM      1  C6  <0> A   1     -26.432   1.259  50.973  0.00  0.00    +0.183 C 
ATOM      2  C7  <0> A   1     -27.882   1.562  50.583  0.00  0.00    +0.020 C 
ATOM      3  C8  <0> A   1     -28.791   1.443  51.808  0.00  0.00    +0.019 C 
ATOM      4  C9  <0> A   1     -28.329   2.413  52.900  0.00  0.00    +0.034 C 
ATOM      5  C10 <0> A   1     -26.889   2.077  53.279  0.00  0.00    +0.039 C 
ATOM      6  C11 <0> A   1     -25.991   2.251  52.047  0.00  0.00    +0.017 C 
ATOM      7  C12 <0> A   1     -24.542   2.006  52.467  0.00  0.00    +0.004 C 
ATOM      8  C13 <0> A   1     -24.117   3.141  53.403  0.00  0.00    +0.023 C 
ATOM      9  C14 <0> A   1     -25.166   3.393  54.445  0.00  0.00    -0.050 C 
ATOM     10  C15 <0> A   1     -26.384   2.951  54.384  0.00  0.00    -0.043 C 
ATOM     11  C16 <0> A   1     -23.907   4.416  52.585  0.00  0.00    +0.027 C 
ENDROOT
BRANCH   3  12
ATOM     12  C24 <0> A   1     -28.733   0.033  52.338  0.00  0.00    -0.009 C 
ATOM     13  C25 <0> A   1     -29.627  -0.847  51.957  0.00  0.00    -0.061 C 
BRANCH  13  14
ATOM     14  C26 <0> A   1     -29.645  -2.220  52.580  0.00  0.00    +0.104 C 
BRANCH  14  15
ATOM     15  C27 <0> A   1     -28.723  -3.131  51.813  0.00  0.00    -0.075 A 
ATOM     16  C28 <0> A   1     -28.002  -4.105  52.478  0.00  0.00    +0.005 A 
ATOM     17  C29 <0> A   1     -27.157  -4.942  51.775  0.00  0.00    +0.002 A 
ATOM     18  C30 <0> A   1     -27.032  -4.806  50.405  0.00  0.00    -0.006 A 
ATOM     19  C31 <0> A   1     -27.754  -3.834  49.739  0.00  0.00    +0.002 A 
ATOM     20  C32 <0> A   1     -28.603  -3.000  50.442  0.00  0.00    +0.001 A 
ENDBRANCH  14  15
ENDBRANCH  13  14
ENDBRANCH   3  12
BRANCH   1  21
ATOM     21  O2  <0> A   1     -26.341  -0.073  51.484  0.00  0.00    -0.332 OA
BRANCH  21  22
ATOM     22  C5  <0> A   1     -25.539  -0.924  50.825  0.00  0.00    +0.460 C 
ATOM     23  O1  <0> A   1     -25.362  -0.791  49.637  0.00  0.00    -0.503 OA
BRANCH  22  24
ATOM     24  C3  <0> A   1     -24.861  -2.047  51.566  0.00  0.00    +0.022 C 
ATOM     25  C4  <0> A   1     -23.364  -2.036  51.251  0.00  0.00    +0.056 C 
BRANCH  24  27
ATOM     26  C1  <0> A   1     -23.768  -1.359  53.705  0.00  0.00    +0.022 C 
ATOM     27  C2  <0> A   1     -25.067  -1.862  53.071  0.00  0.00    +0.031 C 
ENDBRANCH  24  27
ENDBRANCH  22  24
ENDBRANCH  21  22
ENDBRANCH   1  21
BRANCH   7  28
ATOM     28  C17 <0> A   1     -23.641   1.991  51.230  0.00  0.00    +0.019 C 
BRANCH  28  29
ATOM     29  C18 <0> A   1     -22.226   1.576  51.634  0.00  0.00    +0.051 C 
BRANCH  29  30
ATOM     30  C19 <0> A   1     -21.208   2.355  50.799  0.00  0.00    +0.193 C 
ATOM     31  C20 <0> A   1     -20.006   2.724  51.673  0.00  0.00    +0.040 C 
ATOM     32  C21 <0> A   1     -19.008   3.541  50.846  0.00  0.00    +0.183 C 
ATOM     33  C22 <0> A   1     -19.705   4.809  50.337  0.00  0.00    +0.021 C 
ATOM     34  C23 <0> A   1     -20.991   4.402  49.653  0.00  0.00    +0.496 C 
ATOM     35  O3  <0> A   1     -21.273   4.825  48.556  0.00  0.00    -0.453 OA
ATOM     36  O4  <0> A   1     -21.815   3.552  50.300  0.00  0.00    -0.367 OA
BRANCH  32  37
ATOM     37  O5  <0> A   1     -18.557   2.762  49.736  0.00  0.00    -0.563 OA
ATOM     38  H35 <0> A   1     -17.612   2.852  49.550  0.00  0.00    +0.386 HD
ENDBRANCH  32  37
ENDBRANCH  29  30
ENDBRANCH  28  29
ENDBRANCH   7  28
TORSDOF 11
ENDMDL
MODEL 9
REMARK VINA RESULT:      -7.7     22.268     24.215
REMARK  Name = CHEMBL77486
REMARK  14 active torsions:
REMARK  status: ('A' for Active; 'I' for Inactive)
REMARK    1  A    between atoms: C1_1  and  C2_2
REMARK    2  A    between atoms: C2_2  and  C3_3
REMARK    3  A    between atoms: C3_3  and  C4_5
REMARK    4  A    between atoms: C3_3  and  C5_6
REMARK    5  A    between atoms: C5_6  and  O2_8
REMARK    6  A    between atoms: O2_8  and  C6_9
REMARK    7  A    between atoms: C8_12  and  C24_38
REMARK    8  A    between atoms: C12_19  and  C17_26
REMARK    9  A    between atoms: C13_21  and  C16_25
REMARK   10  A    between atoms: C17_26  and  C18_27
REMARK   11  A    between atoms: C18_27  and  C19_28
REMARK   12  A    between atoms: C21_31  and  O5_37
REMARK   13  A    between atoms: C25_39  and  C26_40
REMARK   14  A    between atoms: C26_40  and  C27_41
REMARK                            x       y       z     vdW  Elec       q    Type
REMARK                         _______ _______ _______ _____ _____    ______ ____
ROOT
ATOM      1  C6  <0> A   1     -32.299  22.713  34.310  0.00  0.00    +0.183 C 
ATOM      2  C7  <0> A   1     -33.151  22.185  33.152  0.00  0.00    +0.020 C 
ATOM      3  C8  <0> A   1     -33.128  20.656  33.138  0.00  0.00    +0.019 C 
ATOM      4  C9  <0> A   1     -33.658  20.111  34.468  0.00  0.00    +0.034 C 
ATOM      5  C10 <0> A   1     -32.782  20.640  35.600  0.00  0.00    +0.039 C 
ATOM      6  C11 <0> A   1     -32.860  22.172  35.623  0.00  0.00    +0.017 C 
ATOM      7  C12 <0> A   1     -32.056  22.680  36.820  0.00  0.00    +0.004 C 
ATOM      8  C13 <0> A   1     -32.780  22.248  38.099  0.00  0.00    +0.023 C 
ATOM      9  C14 <0> A   1     -33.180  20.805  38.024  0.00  0.00    -0.050 C 
ATOM     10  C15 <0> A   1     -33.206  20.106  36.931  0.00  0.00    -0.043 C 
ATOM     11  C16 <0> A   1     -34.032  23.108  38.283  0.00  0.00    +0.027 C 
ENDROOT
BRANCH   3  12
ATOM     12  C24 <0> A   1     -31.713  20.179  32.933  0.00  0.00    -0.009 C 
ATOM     13  C25 <0> A   1     -31.481  18.927  32.627  0.00  0.00    -0.061 C 
BRANCH  13  14
ATOM     14  C26 <0> A   1     -30.064  18.421  32.544  0.00  0.00    +0.104 C 
BRANCH  14  15
ATOM     15  C27 <0> A   1     -29.934  17.477  31.377  0.00  0.00    -0.075 A 
ATOM     16  C28 <0> A   1     -30.970  17.350  30.471  0.00  0.00    +0.005 A 
ATOM     17  C29 <0> A   1     -30.851  16.485  29.400  0.00  0.00    +0.002 A 
ATOM     18  C30 <0> A   1     -29.695  15.745  29.235  0.00  0.00    -0.006 A 
ATOM     19  C31 <0> A   1     -28.658  15.872  30.140  0.00  0.00    +0.002 A 
ATOM     20  C32 <0> A   1     -28.776  16.741  31.209  0.00  0.00    +0.001 A 
ENDBRANCH  14  15
ENDBRANCH  13  14
ENDBRANCH   3  12
BRANCH   1  21
ATOM     21  O2  <0> A   1     -30.948  22.276  34.150  0.00  0.00    -0.332 OA
BRANCH  21  22
ATOM     22  C5  <0> A   1     -30.030  23.220  33.886  0.00  0.00    +0.460 C 
ATOM     23  O1  <0> A   1     -30.380  24.342  33.603  0.00  0.00    -0.503 OA
BRANCH  22  24
ATOM     24  C3  <0> A   1     -28.563  22.880  33.941  0.00  0.00    +0.022 C 
ATOM     25  C4  <0> A   1     -27.839  23.547  32.769  0.00  0.00    +0.056 C 
BRANCH  24  27
ATOM     26  C1  <0> A   1     -26.732  24.233  34.971  0.00  0.00    +0.022 C 
ATOM     27  C2  <0> A   1     -27.973  23.384  35.259  0.00  0.00    +0.031 C 
ENDBRANCH  24  27
ENDBRANCH  22  24
ENDBRANCH  21  22
ENDBRANCH   1  21
BRANCH   7  28
ATOM     28  C17 <0> A   1     -31.961  24.205  36.770  0.00  0.00    +0.019 C 
BRANCH  28  29
ATOM     29  C18 <0> A   1     -30.616  24.653  37.345  0.00  0.00    +0.051 C 
BRANCH  29  30
ATOM     30  C19 <0> A   1     -30.851  25.472  38.614  0.00  0.00    +0.193 C 
ATOM     31  C20 <0> A   1     -30.657  24.578  39.842  0.00  0.00    +0.040 C 
ATOM     32  C21 <0> A   1     -30.935  25.391  41.112  0.00  0.00    +0.183 C 
ATOM     33  C22 <0> A   1     -32.375  25.917  41.059  0.00  0.00    +0.021 C 
ATOM     34  C23 <0> A   1     -32.575  26.623  39.736  0.00  0.00    +0.496 C 
ATOM     35  O3  <0> A   1     -33.066  27.726  39.688  0.00  0.00    -0.453 OA
ATOM     36  O4  <0> A   1     -32.188  25.988  38.611  0.00  0.00    -0.367 OA
BRANCH  32  37
ATOM     37  O5  <0> A   1     -30.024  26.490  41.184  0.00  0.00    -0.563 OA
ATOM     38  H35 <0> A   1     -30.068  26.983  42.015  0.00  0.00    +0.386 HD
ENDBRANCH  32  37
ENDBRANCH  29  30
ENDBRANCH  28  29
ENDBRANCH   7  28
TORSDOF 11
ENDMDL
MODEL 10
REMARK VINA RESULT:      -7.7      3.661      7.799
REMARK  Name = CHEMBL77486
REMARK  14 active torsions:
REMARK  status: ('A' for Active; 'I' for Inactive)
REMARK    1  A    between atoms: C1_1  and  C2_2
REMARK    2  A    between atoms: C2_2  and  C3_3
REMARK    3  A    between atoms: C3_3  and  C4_5
REMARK    4  A    between atoms: C3_3  and  C5_6
REMARK    5  A    between atoms: C5_6  and  O2_8
REMARK    6  A    between atoms: O2_8  and  C6_9
REMARK    7  A    between atoms: C8_12  and  C24_38
REMARK    8  A    between atoms: C12_19  and  C17_26
REMARK    9  A    between atoms: C13_21  and  C16_25
REMARK   10  A    between atoms: C17_26  and  C18_27
REMARK   11  A    between atoms: C18_27  and  C19_28
REMARK   12  A    between atoms: C21_31  and  O5_37
REMARK   13  A    between atoms: C25_39  and  C26_40
REMARK   14  A    between atoms: C26_40  and  C27_41
REMARK                            x       y       z     vdW  Elec       q    Type
REMARK                         _______ _______ _______ _____ _____    ______ ____
ROOT
ATOM      1  C6  <0> A   1     -11.656   8.118  46.486  0.00  0.00    +0.183 C 
ATOM      2  C7  <0> A   1     -11.164   7.354  47.720  0.00  0.00    +0.020 C 
ATOM      3  C8  <0> A   1     -12.297   7.217  48.738  0.00  0.00    +0.019 C 
ATOM      4  C9  <0> A   1     -13.484   6.483  48.107  0.00  0.00    +0.034 C 
ATOM      5  C10 <0> A   1     -13.962   7.274  46.893  0.00  0.00    +0.039 C 
ATOM      6  C11 <0> A   1     -12.825   7.357  45.866  0.00  0.00    +0.017 C 
ATOM      7  C12 <0> A   1     -13.350   8.067  44.619  0.00  0.00    +0.004 C 
ATOM      8  C13 <0> A   1     -14.390   7.160  43.955  0.00  0.00    +0.023 C 
ATOM      9  C14 <0> A   1     -15.353   6.620  44.970  0.00  0.00    -0.050 C 
ATOM     10  C15 <0> A   1     -15.159   6.646  46.252  0.00  0.00    -0.043 C 
ATOM     11  C16 <0> A   1     -13.676   5.993  43.270  0.00  0.00    +0.027 C 
ENDROOT
BRANCH   3  12
ATOM     12  C24 <0> A   1     -12.738   8.588  49.183  0.00  0.00    -0.009 C 
ATOM     13  C25 <0> A   1     -13.915   8.751  49.733  0.00  0.00    -0.061 C 
BRANCH  13  14
ATOM     14  C26 <0> A   1     -14.407  10.136  50.064  0.00  0.00    +0.104 C 
BRANCH  14  15
ATOM     15  C27 <0> A   1     -15.221  10.669  48.914  0.00  0.00    -0.075 A 
ATOM     16  C28 <0> A   1     -15.576   9.834  47.872  0.00  0.00    +0.005 A 
ATOM     17  C29 <0> A   1     -16.323  10.323  46.817  0.00  0.00    +0.002 A 
ATOM     18  C30 <0> A   1     -16.715  11.649  46.804  0.00  0.00    -0.006 A 
ATOM     19  C31 <0> A   1     -16.361  12.484  47.846  0.00  0.00    +0.002 A 
ATOM     20  C32 <0> A   1     -15.618  11.994  48.904  0.00  0.00    +0.001 A 
ENDBRANCH  14  15
ENDBRANCH  13  14
ENDBRANCH   3  12
BRANCH   1  21
ATOM     21  O2  <0> A   1     -12.087   9.425  46.873  0.00  0.00    -0.332 OA
BRANCH  21  22
ATOM     22  C5  <0> A   1     -11.270  10.449  46.574  0.00  0.00    +0.460 C 
ATOM     23  O1  <0> A   1     -10.147  10.232  46.185  0.00  0.00    -0.503 OA
BRANCH  22  24
ATOM     24  C3  <0> A   1     -11.755  11.867  46.724  0.00  0.00    +0.022 C 
ATOM     25  C4  <0> A   1     -13.107  12.022  46.024  0.00  0.00    +0.056 C 
BRANCH  24  27
ATOM     26  C1  <0> A   1     -12.418  13.634  48.362  0.00  0.00    +0.022 C 
ATOM     27  C2  <0> A   1     -11.909  12.199  48.210  0.00  0.00    +0.031 C 
ENDBRANCH  24  27
ENDBRANCH  22  24
ENDBRANCH  21  22
ENDBRANCH   1  21
BRANCH   7  28
ATOM     28  C17 <0> A   1     -12.197   8.328  43.649  0.00  0.00    +0.019 C 
BRANCH  28  29
ATOM     29  C18 <0> A   1     -12.095   9.828  43.366  0.00  0.00    +0.051 C 
BRANCH  29  30
ATOM     30  C19 <0> A   1     -12.315  10.082  41.874  0.00  0.00    +0.193 C 
ATOM     31  C20 <0> A   1     -13.470  11.069  41.688  0.00  0.00    +0.040 C 
ATOM     32  C21 <0> A   1     -13.715  11.290  40.191  0.00  0.00    +0.183 C 
ATOM     33  C22 <0> A   1     -14.057   9.942  39.541  0.00  0.00    +0.021 C 
ATOM     34  C23 <0> A   1     -12.984   8.946  39.921  0.00  0.00    +0.496 C 
ATOM     35  O3  <0> A   1     -12.451   8.256  39.083  0.00  0.00    -0.453 OA
ATOM     36  O4  <0> A   1     -12.637   8.848  41.221  0.00  0.00    -0.367 OA
BRANCH  32  37
ATOM     37  O5  <0> A   1     -12.537  11.828  39.588  0.00  0.00    -0.563 OA
ATOM     38  H35 <0> A   1     -11.825  12.018  40.214  0.00  0.00    +0.386 HD
ENDBRANCH  32  37
ENDBRANCH  29  30
ENDBRANCH  28  29
ENDBRANCH   7  28
TORSDOF 11
ENDMDL
