REMARK VINA RESULT:      -8.4     34.986     36.872
REMARK  Name = CHEMBL47301
REMARK  7 active torsions:
REMARK  status: ('A' for Active; 'I' for Inactive)
REMARK    1  A    between atoms: C4_4  and  C7_7
REMARK    2  A    between atoms: C7_7  and  C8_8
REMARK    3  A    between atoms: C8_8  and  O1_9
REMARK    4  A    between atoms: O1_9  and  C9_10
REMARK    5  A    between atoms: C14_15  and  C15_16
REMARK    6  A    between atoms: C16_17  and  C17_18
REMARK    7  A    between atoms: C19_20  and  O4_26
REMARK                            x       y       z     vdW  Elec       q    Type
REMARK                         _______ _______ _______ _____ _____    ______ ____
ROOT
ATOM      1  C9  <0> A   1      -0.809  10.746  52.396  0.00  0.00    +0.171 A 
ATOM      2  C10 <0> A   1      -0.475  11.539  53.482  0.00  0.00    -0.051 A 
ATOM      3  C11 <0> A   1      -1.465  12.019  54.320  0.00  0.00    +0.017 A 
ATOM      4  C12 <0> A   1      -2.794  11.712  54.081  0.00  0.00    +0.011 A 
ATOM      5  C13 <0> A   1      -3.143  10.924  53.003  0.00  0.00    +0.016 A 
ATOM      6  C14 <0> A   1      -2.152  10.438  52.147  0.00  0.00    -0.078 A 
ATOM      7 Cl1  <0> A   1      -4.811  10.542  52.709  0.00  0.00    -0.037 Cl
ATOM      8 Cl2  <0> A   1      -1.038  13.011  55.680  0.00  0.00    -0.049 Cl
ENDROOT
BRANCH   6   9
ATOM      9  C15 <0> A   1      -2.519   9.599  50.988  0.00  0.00    +0.057 C 
ATOM     10  C16 <0> A   1      -2.544   8.279  51.107  0.00  0.00    -0.011 C 
BRANCH  10  11
ATOM     11  C17 <0> A   1      -2.918   7.422  49.924  0.00  0.00    +0.243 C 
ATOM     12  C18 <0> A   1      -1.792   6.426  49.638  0.00  0.00    +0.051 C 
ATOM     13  C19 <0> A   1      -2.158   5.585  48.411  0.00  0.00    +0.186 C 
ATOM     14  C20 <0> A   1      -2.357   6.520  47.211  0.00  0.00    +0.023 C 
ATOM     15  C21 <0> A   1      -3.330   7.607  47.612  0.00  0.00    +0.498 C 
ATOM     16  O2  <0> A   1      -4.274   7.886  46.910  0.00  0.00    -0.451 OA
ATOM     17  O3  <0> A   1      -3.115   8.255  48.775  0.00  0.00    -0.367 OA
BRANCH  13  18
ATOM     18  O4  <0> A   1      -3.366   4.866  48.666  0.00  0.00    -0.564 OA
ATOM     19  H20 <0> A   1      -3.227   3.988  49.047  0.00  0.00    +0.387 HD
ENDBRANCH  13  18
ENDBRANCH  10  11
ENDBRANCH   6   9
BRANCH   1  20
ATOM     20  O1  <0> A   1       0.162  10.274  51.572  0.00  0.00    -0.296 OA
BRANCH  20  21
ATOM     21  C8  <0> A   1       1.327   9.724  52.191  0.00  0.00    +0.198 C 
BRANCH  21  22
ATOM     22  C7  <0> A   1       1.558   8.303  51.672  0.00  0.00    +0.096 C 
BRANCH  22  26
ATOM     23  C1  <0> A   1       5.714   7.352  51.941  0.00  0.00    +0.005 A 
ATOM     24  C2  <0> A   1       5.185   7.810  50.748  0.00  0.00    +0.006 A 
ATOM     25  C3  <0> A   1       3.840   8.117  50.661  0.00  0.00    +0.010 A 
ATOM     26  C4  <0> A   1       3.024   7.967  51.766  0.00  0.00    -0.088 A 
ATOM     27  C5  <0> A   1       3.553   7.509  52.959  0.00  0.00    +0.011 A 
ATOM     28  C6  <0> A   1       4.898   7.203  53.046  0.00  0.00    +0.007 A 
ENDBRANCH  22  26
ENDBRANCH  21  22
ENDBRANCH  20  21
ENDBRANCH   1  20
TORSDOF 7
