REMARK VINA RESULT:      -7.4      2.177      4.673
REMARK  Name = CHEMBL401949
REMARK  16 active torsions:
REMARK  status: ('A' for Active; 'I' for Inactive)
REMARK    1  A    between atoms: C1_1  and  C2_2
REMARK    2  A    between atoms: C2_2  and  C3_3
REMARK    3  A    between atoms: C2_2  and  C4_4
REMARK    4  A    between atoms: C5_5  and  S1_35
REMARK    5  A    between atoms: C6_6  and  C21_29
REMARK    6  A    between atoms: C7_7  and  C15_22
REMARK    7  A    between atoms: N1_8  and  C8_9
REMARK    8  A    between atoms: C8_9  and  C9_10
REMARK    9  A    between atoms: C9_10  and  C10_11
REMARK   10  A    between atoms: C10_11  and  C11_13
REMARK   11  A    between atoms: C10_11  and  O4_21
REMARK   12  A    between atoms: C11_13  and  C12_14
REMARK   13  A    between atoms: C12_14  and  C13_16
REMARK   14  A    between atoms: C12_14  and  O3_20
REMARK   15  A    between atoms: C13_16  and  C14_17
REMARK   16  A    between atoms: S1_35  and  N2_38
REMARK                            x       y       z     vdW  Elec       q    Type
REMARK                         _______ _______ _______ _____ _____    ______ ____
ROOT
ATOM      1  C4  <0> A   1     -15.458   9.666  47.616  0.00  0.00    +0.174 C 
ATOM      2  C5  <0> A   1     -16.043   8.473  47.397  0.00  0.00    -0.733 C 
ATOM      3  C6  <0> A   1     -15.270   7.788  46.429  0.00  0.00    -0.027 C 
ATOM      4  C7  <0> A   1     -14.218   8.622  46.093  0.00  0.00    +0.063 C 
ATOM      5  N1  <0> A   1     -14.351   9.772  46.825  0.00  0.00    -0.415 N 
ENDROOT
BRANCH   4   6
ATOM      6  C15 <0> A   1     -13.149   8.328  45.117  0.00  0.00    -0.029 A 
ATOM      7  C16 <0> A   1     -13.454   8.203  43.760  0.00  0.00    +0.046 A 
ATOM      8  C17 <0> A   1     -12.451   7.929  42.853  0.00  0.00    -0.007 A 
ATOM      9  C18 <0> A   1     -11.144   7.776  43.287  0.00  0.00    +0.106 A 
ATOM     10  C19 <0> A   1     -10.836   7.899  44.632  0.00  0.00    -0.008 A 
ATOM     11  C20 <0> A   1     -11.829   8.180  45.547  0.00  0.00    +0.075 A 
ATOM     12  F1  <0> A   1     -10.166   7.507  42.395  0.00  0.00    -0.137 F 
ENDBRANCH   4   6
BRANCH   3  13
ATOM     13  C21 <0> A   1     -15.537   6.437  45.882  0.00  0.00    -0.042 A 
ATOM     14  C22 <0> A   1     -14.934   5.318  46.454  0.00  0.00    +0.052 A 
ATOM     15  C23 <0> A   1     -15.186   4.062  45.940  0.00  0.00    +0.004 A 
ATOM     16  C24 <0> A   1     -16.035   3.913  44.858  0.00  0.00    +0.008 A 
ATOM     17  C25 <0> A   1     -16.636   5.020  44.285  0.00  0.00    -0.003 A 
ATOM     18  C26 <0> A   1     -16.396   6.280  44.794  0.00  0.00    +0.020 A 
ENDBRANCH   3  13
BRANCH   1  20
ATOM     19  C1  <0> A   1     -14.780  11.235  49.412  0.00  0.00    +0.045 C 
ATOM     20  C2  <0> A   1     -15.951  10.719  48.575  0.00  0.00    +0.043 C 
ATOM     21  C3  <0> A   1     -16.564  11.880  47.787  0.00  0.00    +0.050 C 
ENDBRANCH   1  20
BRANCH   2  22
ATOM     22  S1  <0> A   1     -17.504   7.872  48.176  0.00  0.00    +2.707 S 
ATOM     23  O5  <0> A   1     -17.970   8.912  49.025  0.00  0.00    -0.953 OA
ATOM     24  O6  <0> A   1     -18.309   7.308  47.149  0.00  0.00    -0.948 OA
BRANCH  22  25
ATOM     25  N2  <0> A   1     -17.054   6.621  49.165  0.00  0.00    -0.998 NA
ATOM     26  C27 <0> A   1     -16.020   6.806  50.197  0.00  0.00    +0.268 C 
ATOM     27  C28 <0> A   1     -16.568   6.283  51.530  0.00  0.00    +0.209 C 
ATOM     28  O7  <0> A   1     -17.055   4.951  51.349  0.00  0.00    -0.376 OA
ATOM     29  C29 <0> A   1     -18.144   4.846  50.429  0.00  0.00    +0.212 C 
ATOM     30  C30 <0> A   1     -17.680   5.296  49.043  0.00  0.00    +0.265 C 
ENDBRANCH  22  25
ENDBRANCH   2  22
BRANCH   5  31
ATOM     31  C8  <0> A   1     -13.451  10.926  46.771  0.00  0.00    +0.296 C 
BRANCH  31  32
ATOM     32  C9  <0> A   1     -14.066  12.011  45.884  0.00  0.00    -0.014 C 
BRANCH  32  33
ATOM     33  C10 <0> A   1     -13.292  12.093  44.566  0.00  0.00    +0.218 C 
BRANCH  33  34
ATOM     34  O4  <0> A   1     -12.021  11.457  44.720  0.00  0.00    -0.541 OA
ATOM     35  H19 <0> A   1     -11.835  11.164  45.624  0.00  0.00    +0.367 HD
ENDBRANCH  33  34
BRANCH  33  36
ATOM     36  C11 <0> A   1     -14.084  11.388  43.465  0.00  0.00    -0.047 C 
BRANCH  36  37
ATOM     37  C12 <0> A   1     -13.561  11.831  42.097  0.00  0.00    +0.231 C 
BRANCH  37  38
ATOM     38  O3  <0> A   1     -12.313  11.187  41.833  0.00  0.00    -0.528 OA
ATOM     39  H18 <0> A   1     -11.842  10.901  42.628  0.00  0.00    +0.350 HD
ENDBRANCH  37  38
BRANCH  37  40
ATOM     40  C13 <0> A   1     -14.572  11.445  41.015  0.00  0.00    -0.102 C 
BRANCH  40  41
ATOM     41  C14 <0> A   1     -13.838  11.014  39.771  0.00  0.00    +0.491 C 
ATOM     42  O1  <0> A   1     -13.536  11.839  38.925  0.00  0.00    -0.681 OA
ATOM     43  O2  <0> A   1     -13.544   9.842  39.611  0.00  0.00    -0.712 OA
ENDBRANCH  40  41
ENDBRANCH  37  40
ENDBRANCH  36  37
ENDBRANCH  33  36
ENDBRANCH  32  33
ENDBRANCH  31  32
ENDBRANCH   5  31
TORSDOF 14
