REMARK VINA RESULT:      -7.7     14.335     18.271
REMARK  Name = CHEMBL155642
REMARK  11 active torsions:
REMARK  status: ('A' for Active; 'I' for Inactive)
REMARK    1  A    between atoms: C1_1  and  C2_2
REMARK    2  A    between atoms: C2_2  and  C3_3
REMARK    3  A    between atoms: C2_2  and  C4_4
REMARK    4  A    between atoms: C5_5  and  C19_21
REMARK    5  A    between atoms: C6_6  and  C13_14
REMARK    6  A    between atoms: C8_8  and  C9_10
REMARK    7  A    between atoms: C9_10  and  C10_11
REMARK    8  A    between atoms: C9_10  and  C11_12
REMARK    9  A    between atoms: C9_10  and  C12_13
REMARK   10  A    between atoms: C20_22  and  C21_23
REMARK   11  A    between atoms: C23_25  and  O3_31
REMARK                            x       y       z     vdW  Elec       q    Type
REMARK                         _______ _______ _______ _____ _____    ______ ____
ROOT
ATOM      1  C4  <0> A   1     -15.188  10.151  47.767  0.00  0.00    +0.160 A 
ATOM      2  C5  <0> A   1     -15.255   8.886  47.184  0.00  0.00    -0.104 A 
ATOM      3  C6  <0> A   1     -14.135   8.407  46.474  0.00  0.00    +0.010 A 
ATOM      4  C7  <0> A   1     -13.008   9.230  46.392  0.00  0.00    -0.024 A 
ATOM      5  C8  <0> A   1     -13.034  10.467  47.003  0.00  0.00    +0.151 A 
ATOM      6  N1  <0> A   1     -14.102  10.886  47.654  0.00  0.00    -0.468 NA
ENDROOT
BRANCH   3   7
ATOM      7  C13 <0> A   1     -14.152   7.071  45.836  0.00  0.00    -0.064 A 
ATOM      8  C14 <0> A   1     -13.796   5.940  46.569  0.00  0.00    +0.074 A 
ATOM      9  C15 <0> A   1     -13.814   4.698  45.970  0.00  0.00    -0.013 A 
ATOM     10  C16 <0> A   1     -14.183   4.573  44.640  0.00  0.00    +0.108 A 
ATOM     11  C17 <0> A   1     -14.537   5.694  43.906  0.00  0.00    -0.014 A 
ATOM     12  C18 <0> A   1     -14.529   6.940  44.499  0.00  0.00    +0.060 A 
ATOM     13  F1  <0> A   1     -14.197   3.355  44.056  0.00  0.00    -0.137 F 
ENDBRANCH   3   7
BRANCH   5  14
ATOM     14  C9  <0> A   1     -11.821  11.358  46.917  0.00  0.00    -0.019 C 
ATOM     15  C10 <0> A   1     -11.260  11.592  48.321  0.00  0.00    +0.041 C 
ATOM     16  C11 <0> A   1     -10.756  10.688  46.047  0.00  0.00    +0.046 C 
ATOM     17  C12 <0> A   1     -12.217  12.700  46.296  0.00  0.00    +0.039 C 
ENDBRANCH   5  14
BRANCH   1  19
ATOM     18  C1  <0> A   1     -16.021  10.786  50.015  0.00  0.00    +0.037 C 
ATOM     19  C2  <0> A   1     -16.374  10.684  48.530  0.00  0.00    +0.042 C 
ATOM     20  C3  <0> A   1     -16.743  12.070  47.996  0.00  0.00    +0.037 C 
ENDBRANCH   1  19
BRANCH   2  21
ATOM     21  C19 <0> A   1     -16.475   8.065  47.307  0.00  0.00    +0.049 C 
ATOM     22  C20 <0> A   1     -16.589   7.192  48.299  0.00  0.00    -0.014 C 
BRANCH  22  23
ATOM     23  C21 <0> A   1     -17.834   6.353  48.426  0.00  0.00    +0.242 C 
ATOM     24  C22 <0> A   1     -18.978   7.212  48.973  0.00  0.00    +0.050 C 
ATOM     25  C23 <0> A   1     -20.230   6.347  49.140  0.00  0.00    +0.186 C 
ATOM     26  C24 <0> A   1     -19.915   5.200  50.109  0.00  0.00    +0.024 C 
ATOM     27  C25 <0> A   1     -18.660   4.504  49.631  0.00  0.00    +0.498 C 
ATOM     28  O1  <0> A   1     -18.618   3.301  49.526  0.00  0.00    -0.450 OA
ATOM     29  O2  <0> A   1     -17.589   5.265  49.324  0.00  0.00    -0.369 OA
BRANCH  25  30
ATOM     30  O3  <0> A   1     -20.614   5.812  47.871  0.00  0.00    -0.564 OA
ATOM     31  H30 <0> A   1     -20.610   6.460  47.154  0.00  0.00    +0.387 HD
ENDBRANCH  25  30
ENDBRANCH  22  23
ENDBRANCH   2  21
TORSDOF 6
