REMARK VINA RESULT:      -7.4      3.929      6.355
REMARK  Name = CHEMBL398551
REMARK  19 active torsions:
REMARK  status: ('A' for Active; 'I' for Inactive)
REMARK    1  A    between atoms: C1_1  and  C2_2
REMARK    2  A    between atoms: C4_4  and  C6_8
REMARK    3  A    between atoms: N2_6  and  C5_7
REMARK    4  A    between atoms: C6_8  and  N3_9
REMARK    5  A    between atoms: C7_10  and  C8_12
REMARK    6  A    between atoms: C9_13  and  C28_40
REMARK    7  A    between atoms: C10_14  and  C22_33
REMARK    8  A    between atoms: C11_15  and  C15_20
REMARK    9  A    between atoms: N4_16  and  C12_17
REMARK   10  A    between atoms: C12_17  and  C13_18
REMARK   11  A    between atoms: C12_17  and  C14_19
REMARK   12  A    between atoms: C15_20  and  C16_21
REMARK   13  A    between atoms: C16_21  and  C17_22
REMARK   14  A    between atoms: C17_22  and  C18_24
REMARK   15  A    between atoms: C17_22  and  O5_32
REMARK   16  A    between atoms: C18_24  and  C19_25
REMARK   17  A    between atoms: C19_25  and  C20_27
REMARK   18  A    between atoms: C19_25  and  O4_31
REMARK   19  A    between atoms: C20_27  and  C21_28
REMARK                            x       y       z     vdW  Elec       q    Type
REMARK                         _______ _______ _______ _____ _____    ______ ____
ROOT
ATOM      1  C8  <0> A   1     -13.373   9.681  47.235  0.00  0.00    -0.029 C 
ATOM      2  C9  <0> A   1     -14.106   8.501  47.277  0.00  0.00    -0.059 C 
ATOM      3  C10 <0> A   1     -14.110   7.978  45.958  0.00  0.00    -0.123 C 
ATOM      4  C11 <0> A   1     -13.397   8.836  45.176  0.00  0.00    +0.072 C 
ATOM      5  N4  <0> A   1     -12.955   9.865  45.937  0.00  0.00    -0.403 N 
ENDROOT
BRANCH   3   6
ATOM      6  C22 <0> A   1     -14.771   6.726  45.513  0.00  0.00    -0.009 A 
ATOM      7  C23 <0> A   1     -16.110   6.741  45.129  0.00  0.00    +0.053 A 
ATOM      8  C24 <0> A   1     -16.720   5.574  44.715  0.00  0.00    -0.013 A 
ATOM      9  C25 <0> A   1     -16.003   4.389  44.682  0.00  0.00    +0.094 A 
ATOM     10  C26 <0> A   1     -14.671   4.370  45.063  0.00  0.00    -0.020 A 
ATOM     11  C27 <0> A   1     -14.051   5.533  45.472  0.00  0.00    +0.054 A 
ATOM     12  F1  <0> A   1     -16.604   3.249  44.277  0.00  0.00    -0.142 F 
ENDBRANCH   3   6
BRANCH   2  13
ATOM     13  C28 <0> A   1     -14.757   7.906  48.466  0.00  0.00    -0.009 A 
ATOM     14  C29 <0> A   1     -14.013   7.137  49.360  0.00  0.00    +0.027 A 
ATOM     15  C30 <0> A   1     -14.625   6.586  50.467  0.00  0.00    +0.003 A 
ATOM     16  C31 <0> A   1     -15.973   6.796  50.692  0.00  0.00    -0.003 A 
ATOM     17  C32 <0> A   1     -16.717   7.558  49.809  0.00  0.00    -0.001 A 
ATOM     18  C33 <0> A   1     -16.115   8.119  48.702  0.00  0.00    +0.009 A 
ENDBRANCH   2  13
BRANCH   1  20
ATOM     19  N3  <0> A   1     -11.920  10.492  49.014  0.00  0.00    -0.715 N 
ATOM     20  C7  <0> A   1     -13.099  10.570  48.366  0.00  0.00    +0.605 C 
ATOM     21  O1  <0> A   1     -13.936  11.378  48.720  0.00  0.00    -0.517 OA
ATOM     22  H12 <0> A   1     -11.281   9.802  48.777  0.00  0.00    +0.404 HD
BRANCH  19  23
ATOM     23  C6  <0> A   1     -11.604  11.450  50.076  0.00  0.00    +0.381 C 
BRANCH  23  27
ATOM     24  C1  <0> A   1      -7.379  11.240  52.912  0.00  0.00    +0.146 C 
ATOM     25  C2  <0> A   1      -8.614  10.847  52.144  0.00  0.00    +0.083 C 
ATOM     26  C3  <0> A   1      -9.443  11.687  51.481  0.00  0.00    -0.107 C 
ATOM     27  C4  <0> A   1     -10.462  10.921  50.906  0.00  0.00    +0.055 C 
ATOM     28  N1  <0> A   1     -10.252   9.666  51.212  0.00  0.00    -0.276 NA
ATOM     29  N2  <0> A   1      -9.089   9.593  51.989  0.00  0.00    -0.368 N 
ATOM     30  C5  <0> A   1      -8.494   8.373  52.538  0.00  0.00    +0.354 C 
ENDBRANCH  23  27
ENDBRANCH  19  23
ENDBRANCH   1  20
BRANCH   5  31
ATOM     31  C12 <0> A   1     -12.156  10.995  45.455  0.00  0.00    +0.229 C 
ATOM     32  C13 <0> A   1     -12.804  12.306  45.903  0.00  0.00    +0.042 C 
ATOM     33  C14 <0> A   1     -10.742  10.902  46.030  0.00  0.00    +0.046 C 
ENDBRANCH   5  31
BRANCH   4  34
ATOM     34  C15 <0> A   1     -13.145   8.668  43.700  0.00  0.00    +0.118 C 
BRANCH  34  35
ATOM     35  C16 <0> A   1     -11.834   7.906  43.489  0.00  0.00    -0.009 C 
BRANCH  35  36
ATOM     36  C17 <0> A   1     -11.729   7.466  42.027  0.00  0.00    +0.212 C 
BRANCH  36  37
ATOM     37  O5  <0> A   1     -11.589   6.044  41.967  0.00  0.00    -0.542 OA
ATOM     38  H29 <0> A   1     -12.312   5.560  42.389  0.00  0.00    +0.363 HD
ENDBRANCH  36  37
BRANCH  36  39
ATOM     39  C18 <0> A   1     -12.993   7.886  41.276  0.00  0.00    -0.051 C 
BRANCH  39  40
ATOM     40  C19 <0> A   1     -12.626   8.894  40.184  0.00  0.00    +0.230 C 
BRANCH  40  41
ATOM     41  O4  <0> A   1     -12.282   8.194  38.987  0.00  0.00    -0.528 OA
ATOM     42  H28 <0> A   1     -12.108   8.771  38.230  0.00  0.00    +0.349 HD
ENDBRANCH  40  41
BRANCH  40  43
ATOM     43  C20 <0> A   1     -13.821   9.810  39.915  0.00  0.00    -0.103 C 
BRANCH  43  44
ATOM     44  C21 <0> A   1     -13.344  11.235  39.793  0.00  0.00    +0.490 C 
ATOM     45  O2  <0> A   1     -12.689  11.737  40.691  0.00  0.00    -0.681 OA
ATOM     46  O3  <0> A   1     -13.613  11.886  38.798  0.00  0.00    -0.713 OA
ENDBRANCH  43  44
ENDBRANCH  40  43
ENDBRANCH  39  40
ENDBRANCH  36  39
ENDBRANCH  35  36
ENDBRANCH  34  35
ENDBRANCH   4  34
TORSDOF 15
