REMARK VINA RESULT:      -7.7     17.423     21.829
REMARK  Name = CHEMBL322643
REMARK  13 active torsions:
REMARK  status: ('A' for Active; 'I' for Inactive)
REMARK    1  A    between atoms: C1_1  and  C2_2
REMARK    2  A    between atoms: C2_2  and  C3_3
REMARK    3  A    between atoms: C2_2  and  C4_4
REMARK    4  A    between atoms: C6_6  and  C22_29
REMARK    5  A    between atoms: C7_8  and  C16_22
REMARK    6  A    between atoms: C8_9  and  C9_10
REMARK    7  A    between atoms: C10_11  and  C11_12
REMARK    8  A    between atoms: C11_12  and  C12_13
REMARK    9  A    between atoms: C11_12  and  O4_21
REMARK   10  A    between atoms: C12_13  and  C13_14
REMARK   11  A    between atoms: C13_14  and  C14_16
REMARK   12  A    between atoms: C13_14  and  O3_20
REMARK   13  A    between atoms: C14_16  and  C15_17
REMARK                            x       y       z     vdW  Elec       q    Type
REMARK                         _______ _______ _______ _____ _____    ______ ____
ROOT
ATOM      1  C4  <0> A   1     -27.551  -4.691  51.739  0.00  0.00    -0.018 A 
ATOM      2  C5  <0> A   1     -26.895  -3.479  51.630  0.00  0.00    -0.019 A 
ATOM      3  C6  <0> A   1     -25.570  -3.454  51.194  0.00  0.00    +0.167 A 
ATOM      4  N1  <0> A   1     -24.932  -4.575  50.886  0.00  0.00    -0.469 NA
ATOM      5  C7  <0> A   1     -25.520  -5.757  50.976  0.00  0.00    +0.184 A 
ATOM      6  C8  <0> A   1     -26.854  -5.859  51.413  0.00  0.00    -0.083 A 
ENDROOT
BRANCH   5   7
ATOM      7  C16 <0> A   1     -24.768  -6.982  50.620  0.00  0.00    -0.062 A 
ATOM      8  C17 <0> A   1     -24.642  -7.364  49.284  0.00  0.00    +0.087 A 
ATOM      9  C18 <0> A   1     -23.940  -8.505  48.958  0.00  0.00    -0.017 A 
ATOM     10  C19 <0> A   1     -23.360  -9.274  49.955  0.00  0.00    +0.113 A 
ATOM     11  C20 <0> A   1     -23.482  -8.899  51.284  0.00  0.00    -0.026 A 
ATOM     12  C21 <0> A   1     -24.178  -7.756  51.620  0.00  0.00    +0.082 A 
ATOM     13  F1  <0> A   1     -22.673 -10.391  49.630  0.00  0.00    -0.137 F 
ENDBRANCH   5   7
BRANCH   3  14
ATOM     14  C22 <0> A   1     -24.865  -2.156  51.075  0.00  0.00    -0.046 A 
ATOM     15  C23 <0> A   1     -23.520  -2.056  51.427  0.00  0.00    +0.023 A 
ATOM     16  C24 <0> A   1     -22.868  -0.845  51.314  0.00  0.00    +0.002 A 
ATOM     17  C25 <0> A   1     -23.547   0.269  50.854  0.00  0.00    +0.011 A 
ATOM     18  C26 <0> A   1     -24.882   0.176  50.502  0.00  0.00    -0.001 A 
ATOM     19  C27 <0> A   1     -25.542  -1.031  50.605  0.00  0.00    +0.054 A 
ENDBRANCH   3  14
BRANCH   1  21
ATOM     20  C1  <0> A   1     -29.213  -3.691  53.285  0.00  0.00    +0.033 C 
ATOM     21  C2  <0> A   1     -28.982  -4.753  52.207  0.00  0.00    +0.030 C 
ATOM     22  C3  <0> A   1     -29.917  -4.491  51.024  0.00  0.00    +0.033 C 
ENDBRANCH   1  21
BRANCH   6  23
ATOM     23  C9  <0> A   1     -27.509  -7.177  51.519  0.00  0.00    -0.001 C 
ATOM     24  C10 <0> A   1     -28.023  -7.753  50.439  0.00  0.00    -0.031 C 
BRANCH  24  25
ATOM     25  C11 <0> A   1     -28.691  -9.099  50.549  0.00  0.00    +0.252 C 
BRANCH  25  26
ATOM     26  O4  <0> A   1     -27.695 -10.120  50.630  0.00  0.00    -0.537 OA
ATOM     27  H18 <0> A   1     -27.676 -10.585  51.478  0.00  0.00    +0.366 HD
ENDBRANCH  25  26
BRANCH  25  28
ATOM     28  C12 <0> A   1     -29.561  -9.134  51.806  0.00  0.00    -0.041 C 
BRANCH  28  29
ATOM     29  C13 <0> A   1     -30.502 -10.339  51.741  0.00  0.00    +0.232 C 
BRANCH  29  30
ATOM     30  O3  <0> A   1     -30.296 -11.038  50.512  0.00  0.00    -0.528 OA
ATOM     31  H17 <0> A   1     -29.559 -10.699  49.986  0.00  0.00    +0.350 HD
ENDBRANCH  29  30
BRANCH  29  32
ATOM     32  C14 <0> A   1     -30.214 -11.276  52.916  0.00  0.00    -0.102 C 
BRANCH  32  33
ATOM     33  C15 <0> A   1     -29.627 -12.564  52.398  0.00  0.00    +0.491 C 
ATOM     34  O1  <0> A   1     -30.337 -13.546  52.260  0.00  0.00    -0.681 OA
ATOM     35  O2  <0> A   1     -28.442 -12.625  52.119  0.00  0.00    -0.713 OA
ENDBRANCH  32  33
ENDBRANCH  29  32
ENDBRANCH  28  29
ENDBRANCH  25  28
ENDBRANCH  24  25
ENDBRANCH   6  23
TORSDOF 11
