REMARK VINA RESULT:      -7.7      5.947      9.753
REMARK  Name = CHEMBL346446
REMARK  10 active torsions:
REMARK  status: ('A' for Active; 'I' for Inactive)
REMARK    1  A    between atoms: C1_1  and  C2_2
REMARK    2  A    between atoms: C2_2  and  C3_3
REMARK    3  A    between atoms: C2_2  and  C4_4
REMARK    4  A    between atoms: C5_5  and  C17_20
REMARK    5  A    between atoms: C6_6  and  C11_13
REMARK    6  A    between atoms: C7_8  and  C8_10
REMARK    7  A    between atoms: C8_10  and  C9_11
REMARK    8  A    between atoms: C8_10  and  C10_12
REMARK    9  A    between atoms: C18_21  and  C19_22
REMARK   10  A    between atoms: C21_24  and  O3_30
REMARK                            x       y       z     vdW  Elec       q    Type
REMARK                         _______ _______ _______ _____ _____    ______ ____
ROOT
ATOM      1  C4  <0> A   1      -3.362  10.572  53.344  0.00  0.00    +0.204 A 
ATOM      2  C5  <0> A   1      -2.290   9.918  52.730  0.00  0.00    -0.160 A 
ATOM      3  C6  <0> A   1      -0.985  10.362  53.029  0.00  0.00    +0.230 A 
ATOM      4  N1  <0> A   1      -0.833  11.377  53.875  0.00  0.00    -0.505 NA
ATOM      5  C7  <0> A   1      -1.878  11.959  54.426  0.00  0.00    +0.334 A 
ATOM      6  N2  <0> A   1      -3.114  11.576  54.167  0.00  0.00    -0.511 NA
ENDROOT
BRANCH   3   7
ATOM      7  C11 <0> A   1       0.193   9.710  52.411  0.00  0.00    -0.072 A 
ATOM      8  C12 <0> A   1       0.877  10.340  51.372  0.00  0.00    +0.086 A 
ATOM      9  C13 <0> A   1       1.972   9.729  50.800  0.00  0.00    -0.018 A 
ATOM     10  C14 <0> A   1       2.395   8.491  51.257  0.00  0.00    +0.120 A 
ATOM     11  C15 <0> A   1       1.718   7.860  52.288  0.00  0.00    -0.019 A 
ATOM     12  C16 <0> A   1       0.625   8.466  52.871  0.00  0.00    +0.096 A 
ATOM     13  F1  <0> A   1       3.468   7.895  50.692  0.00  0.00    -0.135 F 
ENDBRANCH   3   7
BRANCH   1  15
ATOM     14  C1  <0> A   1      -5.244   9.178  54.158  0.00  0.00    +0.044 C 
ATOM     15  C2  <0> A   1      -4.780  10.144  53.065  0.00  0.00    +0.045 C 
ATOM     16  C3  <0> A   1      -5.690  11.374  53.050  0.00  0.00    +0.045 C 
ENDBRANCH   1  15
BRANCH   5  17
ATOM     17  C8  <0> A   1      -1.655  13.104  55.378  0.00  0.00    +0.070 C 
ATOM     18  C9  <0> A   1      -2.748  13.098  56.449  0.00  0.00    +0.045 C 
ATOM     19  C10 <0> A   1      -0.287  12.954  56.046  0.00  0.00    +0.045 C 
ENDBRANCH   5  17
BRANCH   2  20
ATOM     20  C17 <0> A   1      -2.517   8.796  51.798  0.00  0.00    +0.052 C 
ATOM     21  C18 <0> A   1      -2.844   9.038  50.536  0.00  0.00    -0.007 C 
BRANCH  21  22
ATOM     22  C19 <0> A   1      -3.075   7.891  49.584  0.00  0.00    +0.244 C 
ATOM     23  C20 <0> A   1      -1.852   6.972  49.586  0.00  0.00    +0.051 C 
ATOM     24  C21 <0> A   1      -2.072   5.830  48.587  0.00  0.00    +0.186 C 
ATOM     25  C22 <0> A   1      -2.286   6.429  47.190  0.00  0.00    +0.024 C 
ATOM     26  C23 <0> A   1      -3.374   7.477  47.285  0.00  0.00    +0.498 C 
ATOM     27  O1  <0> A   1      -4.298   7.486  46.505  0.00  0.00    -0.449 OA
ATOM     28  O2  <0> A   1      -3.282   8.402  48.263  0.00  0.00    -0.370 OA
BRANCH  24  29
ATOM     29  O3  <0> A   1      -3.225   5.077  48.969  0.00  0.00    -0.563 OA
ATOM     30  H27 <0> A   1      -3.455   5.160  49.905  0.00  0.00    +0.388 HD
ENDBRANCH  24  29
ENDBRANCH  21  22
ENDBRANCH   2  20
TORSDOF 6
