REMARK VINA RESULT:      -7.2      0.902      1.489
REMARK  Name = CHEMBL83483
REMARK  14 active torsions:
REMARK  status: ('A' for Active; 'I' for Inactive)
REMARK    1  A    between atoms: C1_1  and  C2_2
REMARK    2  A    between atoms: C2_2  and  C3_3
REMARK    3  A    between atoms: C3_3  and  C4_4
REMARK    4  A    between atoms: C3_3  and  C5_5
REMARK    5  A    between atoms: C3_3  and  C6_6
REMARK    6  A    between atoms: C6_6  and  O2_8
REMARK    7  A    between atoms: O2_8  and  C7_9
REMARK    8  A    between atoms: C9_12  and  C24_35
REMARK    9  A    between atoms: C9_12  and  C25_36
REMARK   10  A    between atoms: C12_17  and  C17_24
REMARK   11  A    between atoms: C13_19  and  C16_23
REMARK   12  A    between atoms: C17_24  and  C18_25
REMARK   13  A    between atoms: C18_25  and  C19_26
REMARK   14  A    between atoms: C21_28  and  O6_34
REMARK                            x       y       z     vdW  Elec       q    Type
REMARK                         _______ _______ _______ _____ _____    ______ ____
ROOT
ATOM      1  C7  <0> A   1     -13.907   9.076  47.207  0.00  0.00    +0.187 C 
ATOM      2  C8  <0> A   1     -13.031   8.050  47.950  0.00  0.00    -0.010 C 
ATOM      3  C9  <0> A   1     -12.443   8.662  49.219  0.00  0.00    +0.130 C 
ATOM      4  O3  <0> A   1     -11.878   9.939  48.985  0.00  0.00    -0.370 OA
ATOM      5  C10 <0> A   1     -12.540  10.893  48.183  0.00  0.00    +0.218 C 
ATOM      6  C11 <0> A   1     -13.026  10.268  46.864  0.00  0.00    -0.016 C 
ATOM      7  C12 <0> A   1     -13.657  11.339  46.004  0.00  0.00    -0.002 C 
ATOM      8  C13 <0> A   1     -14.737  12.158  46.691  0.00  0.00    -0.016 C 
ATOM      9  C14 <0> A   1     -14.287  12.666  48.055  0.00  0.00    +0.020 C 
ATOM     10  C15 <0> A   1     -13.728  11.525  48.905  0.00  0.00    -0.013 C 
ATOM     11  C16 <0> A   1     -16.052  11.390  46.796  0.00  0.00    +0.014 C 
ATOM     12  C24 <0> A   1     -11.313   7.729  49.707  0.00  0.00    +0.055 C 
ATOM     13  C25 <0> A   1     -13.503   8.711  50.321  0.00  0.00    +0.016 C 
ENDROOT
BRANCH   1  14
ATOM     14  O2  <0> A   1     -14.423   8.433  46.041  0.00  0.00    -0.333 OA
BRANCH  14  15
ATOM     15  C6  <0> A   1     -15.346   7.477  46.231  0.00  0.00    +0.471 C 
ATOM     16  O1  <0> A   1     -16.285   7.680  46.963  0.00  0.00    -0.507 OA
BRANCH  15  17
ATOM     17  C3  <0> A   1     -15.211   6.150  45.529  0.00  0.00    -0.056 C 
ATOM     18  C4  <0> A   1     -16.551   5.770  44.894  0.00  0.00    +0.057 C 
ATOM     19  C5  <0> A   1     -14.804   5.077  46.541  0.00  0.00    +0.077 C 
BRANCH  17  21
ATOM     20  C1  <0> A   1     -14.810   6.199  43.063  0.00  0.00    +0.023 C 
ATOM     21  C2  <0> A   1     -14.143   6.254  44.439  0.00  0.00    +0.033 C 
ENDBRANCH  17  21
ENDBRANCH  15  17
ENDBRANCH  14  15
ENDBRANCH   1  14
BRANCH   7  22
ATOM     22  C17 <0> A   1     -14.166  10.802  44.668  0.00  0.00    +0.037 C 
BRANCH  22  23
ATOM     23  C18 <0> A   1     -13.607  11.656  43.529  0.00  0.00    +0.044 C 
BRANCH  23  24
ATOM     24  C19 <0> A   1     -13.677  10.868  42.219  0.00  0.00    +0.196 C 
ATOM     25  C20 <0> A   1     -12.379  10.079  42.027  0.00  0.00    +0.037 C 
ATOM     26  C21 <0> A   1     -12.436   9.324  40.695  0.00  0.00    +0.182 C 
ATOM     27  C22 <0> A   1     -12.615  10.338  39.557  0.00  0.00    +0.016 C 
ATOM     28  C23 <0> A   1     -13.794  11.224  39.893  0.00  0.00    +0.495 C 
ATOM     29  O4  <0> A   1     -14.666  11.434  39.082  0.00  0.00    -0.447 OA
ATOM     30  O5  <0> A   1     -13.846  11.775  41.124  0.00  0.00    -0.361 OA
BRANCH  26  31
ATOM     31  O6  <0> A   1     -13.538   8.415  40.707  0.00  0.00    -0.563 OA
ATOM     32  H36 <0> A   1     -14.380   8.821  40.958  0.00  0.00    +0.386 HD
ENDBRANCH  26  31
ENDBRANCH  23  24
ENDBRANCH  22  23
ENDBRANCH   7  22
TORSDOF 8
