REMARK VINA RESULT:      -9.7      0.750      1.019
REMARK  Name = CHEMBL228528
REMARK  14 active torsions:
REMARK  status: ('A' for Active; 'I' for Inactive)
REMARK    1  A    between atoms: C1_1  and  C2_2
REMARK    2  A    between atoms: C2_2  and  C3_3
REMARK    3  A    between atoms: C2_2  and  N1_4
REMARK    4  A    between atoms: C4_5  and  C27_32
REMARK    5  A    between atoms: C5_6  and  C21_25
REMARK    6  A    between atoms: N2_11  and  C15_18
REMARK    7  A    between atoms: C27_32  and  C28_33
REMARK    8  A    between atoms: C28_33  and  C29_34
REMARK    9  A    between atoms: C29_34  and  C30_36
REMARK   10  A    between atoms: C29_34  and  O5_44
REMARK   11  A    between atoms: C30_36  and  C31_37
REMARK   12  A    between atoms: C31_37  and  C32_39
REMARK   13  A    between atoms: C31_37  and  O4_43
REMARK   14  A    between atoms: C32_39  and  C33_40
REMARK                            x       y       z     vdW  Elec       q    Type
REMARK                         _______ _______ _______ _____ _____    ______ ____
ROOT
ATOM      1  N1  <0> A   1     -14.548   6.463  45.495  0.00  0.00    -0.391 N 
ATOM      2  C4  <0> A   1     -13.743   7.524  45.238  0.00  0.00    +0.111 C 
ATOM      3  C5  <0> A   1     -14.080   8.558  46.060  0.00  0.00    -0.129 C 
ATOM      4  C6  <0> A   1     -15.185   8.089  46.888  0.00  0.00    -0.042 C 
ATOM      5  C7  <0> A   1     -15.443   6.776  46.492  0.00  0.00    -0.046 C 
ATOM      6  C8  <0> A   1     -16.480   6.054  47.124  0.00  0.00    +0.582 C 
ATOM      7  O1  <0> A   1     -16.703   4.907  46.780  0.00  0.00    -0.519 OA
ATOM      8  N2  <0> A   1     -17.227   6.604  48.097  0.00  0.00    -0.482 N 
ATOM      9  C9  <0> A   1     -17.023   7.903  48.532  0.00  0.00    +0.159 A 
ATOM     10  C10 <0> A   1     -16.004   8.681  47.956  0.00  0.00    -0.049 A 
ATOM     11  C11 <0> A   1     -15.797   9.988  48.390  0.00  0.00    +0.066 A 
ATOM     12  C12 <0> A   1     -16.586  10.508  49.394  0.00  0.00    -0.009 A 
ATOM     13  C13 <0> A   1     -17.580   9.736  49.972  0.00  0.00    +0.047 A 
ATOM     14  C14 <0> A   1     -17.810   8.446  49.540  0.00  0.00    -0.019 A 
ENDROOT
BRANCH   8  15
ATOM     15  C15 <0> A   1     -18.241   5.842  48.688  0.00  0.00    +0.157 A 
ATOM     16  C16 <0> A   1     -19.569   6.066  48.347  0.00  0.00    +0.025 A 
ATOM     17  C17 <0> A   1     -20.569   5.313  48.932  0.00  0.00    +0.063 A 
ATOM     18  C18 <0> A   1     -20.249   4.335  49.856  0.00  0.00    +0.001 A 
ATOM     19  C19 <0> A   1     -18.927   4.109  50.198  0.00  0.00    +0.110 A 
ATOM     20  C20 <0> A   1     -17.922   4.856  49.612  0.00  0.00    +0.003 A 
ATOM     21  F1  <0> A   1     -18.618   3.152  51.101  0.00  0.00    -0.133 F 
ENDBRANCH   8  15
BRANCH   3  22
ATOM     22  C21 <0> A   1     -13.447   9.899  46.104  0.00  0.00    -0.013 A 
ATOM     23  C22 <0> A   1     -12.347  10.126  46.929  0.00  0.00    +0.054 A 
ATOM     24  C23 <0> A   1     -11.761  11.374  46.967  0.00  0.00    -0.012 A 
ATOM     25  C24 <0> A   1     -12.265  12.402  46.186  0.00  0.00    +0.098 A 
ATOM     26  C25 <0> A   1     -13.358  12.182  45.365  0.00  0.00    -0.014 A 
ATOM     27  C26 <0> A   1     -13.947  10.934  45.316  0.00  0.00    +0.054 A 
ATOM     28  F2  <0> A   1     -11.688  13.623  46.226  0.00  0.00    -0.140 F 
ENDBRANCH   3  22
BRANCH   1  30
ATOM     29  C1  <0> A   1     -14.193   4.065  45.822  0.00  0.00    +0.045 C 
ATOM     30  C2  <0> A   1     -14.480   5.172  44.805  0.00  0.00    +0.229 C 
ATOM     31  C3  <0> A   1     -15.815   4.894  44.111  0.00  0.00    +0.046 C 
ENDBRANCH   1  30
BRANCH   2  32
ATOM     32  C27 <0> A   1     -12.645   7.553  44.206  0.00  0.00    +0.122 C 
BRANCH  32  33
ATOM     33  C28 <0> A   1     -13.255   7.418  42.809  0.00  0.00    -0.005 C 
BRANCH  33  34
ATOM     34  C29 <0> A   1     -12.759   8.562  41.923  0.00  0.00    +0.214 C 
BRANCH  34  35
ATOM     35  O5  <0> A   1     -12.573   8.086  40.589  0.00  0.00    -0.542 OA
ATOM     36  H31 <0> A   1     -12.153   8.726  39.998  0.00  0.00    +0.364 HD
ENDBRANCH  34  35
BRANCH  34  37
ATOM     37  C30 <0> A   1     -13.791   9.691  41.922  0.00  0.00    -0.051 C 
BRANCH  37  38
ATOM     38  C31 <0> A   1     -13.137  10.980  41.421  0.00  0.00    +0.231 C 
BRANCH  38  39
ATOM     39  O4  <0> A   1     -11.740  10.757  41.220  0.00  0.00    -0.528 OA
ATOM     40  H30 <0> A   1     -11.315  10.256  41.930  0.00  0.00    +0.349 HD
ENDBRANCH  38  39
BRANCH  38  41
ATOM     41  C32 <0> A   1     -13.782  11.398  40.098  0.00  0.00    -0.103 C 
BRANCH  41  42
ATOM     42  C33 <0> A   1     -12.784  11.239  38.980  0.00  0.00    +0.490 C 
ATOM     43  O2  <0> A   1     -12.532  10.129  38.541  0.00  0.00    -0.681 OA
ATOM     44  O3  <0> A   1     -12.228  12.219  38.515  0.00  0.00    -0.713 OA
ENDBRANCH  41  42
ENDBRANCH  38  41
ENDBRANCH  37  38
ENDBRANCH  34  37
ENDBRANCH  33  34
ENDBRANCH  32  33
ENDBRANCH   2  32
TORSDOF 12
