REMARK VINA RESULT:      -7.7     15.714     20.677
REMARK  Name = CHEMBL122219
REMARK  13 active torsions:
REMARK  status: ('A' for Active; 'I' for Inactive)
REMARK    1  A    between atoms: C1_1  and  C2_2
REMARK    2  A    between atoms: C2_2  and  O1_3
REMARK    3  A    between atoms: O1_3  and  C3_4
REMARK    4  A    between atoms: C3_4  and  C4_6
REMARK    5  A    between atoms: C5_7  and  C24_33
REMARK    6  A    between atoms: C6_8  and  C21_30
REMARK    7  A    between atoms: N1_9  and  C14_18
REMARK    8  A    between atoms: C7_10  and  C8_11
REMARK    9  A    between atoms: C14_18  and  C15_19
REMARK   10  A    between atoms: C15_19  and  C16_20
REMARK   11  A    between atoms: C18_23  and  O5_29
REMARK   12  A    between atoms: C21_30  and  C22_31
REMARK   13  A    between atoms: C21_30  and  C23_32
REMARK                            x       y       z     vdW  Elec       q    Type
REMARK                         _______ _______ _______ _____ _____    ______ ____
ROOT
ATOM      1  C4  <0> A   1     -25.165  -4.231  51.571  0.00  0.00    -0.167 C 
ATOM      2  C5  <0> A   1     -26.296  -3.388  51.998  0.00  0.00    -0.087 C 
ATOM      3  C6  <0> A   1     -27.385  -4.199  52.039  0.00  0.00    +0.068 C 
ATOM      4  N1  <0> A   1     -27.020  -5.460  51.674  0.00  0.00    -0.419 N 
ATOM      5  C7  <0> A   1     -25.692  -5.505  51.383  0.00  0.00    +0.114 C 
ENDROOT
BRANCH   5   6
ATOM      6  C8  <0> A   1     -24.939  -6.697  50.947  0.00  0.00    -0.043 A 
ATOM      7  C9  <0> A   1     -24.380  -7.559  51.895  0.00  0.00    +0.056 A 
ATOM      8  C10 <0> A   1     -23.679  -8.672  51.481  0.00  0.00    -0.006 A 
ATOM      9  C11 <0> A   1     -23.528  -8.937  50.129  0.00  0.00    +0.110 A 
ATOM     10  C12 <0> A   1     -24.080  -8.085  49.185  0.00  0.00    -0.004 A 
ATOM     11  C13 <0> A   1     -24.788  -6.973  49.585  0.00  0.00    +0.073 A 
ATOM     12  F1  <0> A   1     -22.839 -10.028  49.730  0.00  0.00    -0.135 F 
ENDBRANCH   5   6
BRANCH   2  13
ATOM     13  C24 <0> A   1     -26.253  -1.942  52.320  0.00  0.00    -0.017 A 
ATOM     14  C25 <0> A   1     -25.782  -1.516  53.562  0.00  0.00    +0.020 A 
ATOM     15  C26 <0> A   1     -25.745  -0.167  53.856  0.00  0.00    +0.003 A 
ATOM     16  C27 <0> A   1     -26.173   0.759  52.922  0.00  0.00    +0.003 A 
ATOM     17  C28 <0> A   1     -26.641   0.342  51.689  0.00  0.00    +0.003 A 
ATOM     18  C29 <0> A   1     -26.678  -1.003  51.381  0.00  0.00    +0.020 A 
ENDBRANCH   2  13
BRANCH   3  19
ATOM     19  C21 <0> A   1     -28.776  -3.769  52.424  0.00  0.00    +0.069 C 
ATOM     20  C22 <0> A   1     -29.640  -3.648  51.167  0.00  0.00    +0.031 C 
ATOM     21  C23 <0> A   1     -29.388  -4.811  53.365  0.00  0.00    +0.033 C 
ENDBRANCH   3  19
BRANCH   1  22
ATOM     22  C3  <0> A   1     -23.774  -3.810  51.378  0.00  0.00    +0.552 C 
ATOM     23  O2  <0> A   1     -22.883  -4.345  52.011  0.00  0.00    -0.499 OA
BRANCH  22  24
ATOM     24  O1  <0> A   1     -23.482  -2.830  50.498  0.00  0.00    -0.343 OA
BRANCH  24  26
ATOM     25  C1  <0> A   1     -22.979  -0.572  51.196  0.00  0.00    +0.061 C 
ATOM     26  C2  <0> A   1     -22.412  -1.947  50.842  0.00  0.00    +0.194 C 
ENDBRANCH  24  26
ENDBRANCH  22  24
ENDBRANCH   1  22
BRANCH   4  27
ATOM     27  C14 <0> A   1     -27.931  -6.605  51.603  0.00  0.00    +0.296 C 
BRANCH  27  28
ATOM     28  C15 <0> A   1     -28.407  -6.787  50.160  0.00  0.00    +0.052 C 
BRANCH  28  29
ATOM     29  C16 <0> A   1     -28.875  -8.230  49.956  0.00  0.00    +0.204 C 
ATOM     30  C17 <0> A   1     -30.284  -8.230  49.356  0.00  0.00    +0.046 C 
ATOM     31  C18 <0> A   1     -30.764  -9.676  49.191  0.00  0.00    +0.187 C 
ATOM     32  C19 <0> A   1     -30.771 -10.357  50.565  0.00  0.00    +0.024 C 
ATOM     33  C20 <0> A   1     -29.413 -10.155  51.202  0.00  0.00    +0.498 C 
ATOM     34  O3  <0> A   1     -28.808 -11.084  51.683  0.00  0.00    -0.449 OA
ATOM     35  O4  <0> A   1     -28.896  -8.909  51.215  0.00  0.00    -0.370 OA
BRANCH  31  36
ATOM     36  O5  <0> A   1     -29.881 -10.376  48.311  0.00  0.00    -0.564 OA
ATOM     37  H20 <0> A   1     -30.154 -10.359  47.384  0.00  0.00    +0.388 HD
ENDBRANCH  31  36
ENDBRANCH  28  29
ENDBRANCH  27  28
ENDBRANCH   4  27
TORSDOF 10
