REMARK VINA RESULT:      -7.4     17.346     20.276
REMARK  Name = CHEMBL121309
REMARK  13 active torsions:
REMARK  status: ('A' for Active; 'I' for Inactive)
REMARK    1  A    between atoms: C1_1  and  C2_2
REMARK    2  A    between atoms: C2_2  and  C3_3
REMARK    3  A    between atoms: C2_2  and  C4_4
REMARK    4  A    between atoms: C5_5  and  C19_22
REMARK    5  A    between atoms: N1_6  and  C13_15
REMARK    6  A    between atoms: C6_7  and  C7_9
REMARK    7  A    between atoms: C20_23  and  C21_24
REMARK    8  A    between atoms: C21_24  and  C22_26
REMARK    9  A    between atoms: C21_24  and  O4_34
REMARK   10  A    between atoms: C22_26  and  C23_27
REMARK   11  A    between atoms: C23_27  and  C24_29
REMARK   12  A    between atoms: C23_27  and  O3_33
REMARK   13  A    between atoms: C24_29  and  C25_30
REMARK                            x       y       z     vdW  Elec       q    Type
REMARK                         _______ _______ _______ _____ _____    ______ ____
ROOT
ATOM      1  C4  <0> A   1     -27.865  -5.109  50.906  0.00  0.00    +0.037 C 
ATOM      2  C5  <0> A   1     -26.546  -4.965  51.228  0.00  0.00    +0.029 C 
ATOM      3  N1  <0> A   1     -26.299  -3.608  51.281  0.00  0.00    -0.406 N 
ATOM      4  C6  <0> A   1     -27.477  -2.980  50.990  0.00  0.00    +0.248 C 
ATOM      5  N2  <0> A   1     -28.397  -3.895  50.764  0.00  0.00    -0.456 NA
ENDROOT
BRANCH   3   6
ATOM      6  C13 <0> A   1     -25.075  -2.993  51.577  0.00  0.00    +0.104 A 
ATOM      7  C14 <0> A   1     -24.032  -3.043  50.662  0.00  0.00    +0.069 A 
ATOM      8  C15 <0> A   1     -22.827  -2.436  50.956  0.00  0.00    +0.010 A 
ATOM      9  C16 <0> A   1     -22.658  -1.778  52.163  0.00  0.00    +0.115 A 
ATOM     10  C17 <0> A   1     -23.697  -1.728  53.077  0.00  0.00    +0.007 A 
ATOM     11  C18 <0> A   1     -24.905  -2.328  52.784  0.00  0.00    +0.063 A 
ATOM     12  F1  <0> A   1     -21.478  -1.186  52.450  0.00  0.00    -0.130 F 
ENDBRANCH   3   6
BRANCH   4  13
ATOM     13  C7  <0> A   1     -27.683  -1.518  50.931  0.00  0.00    -0.012 A 
ATOM     14  C8  <0> A   1     -28.614  -0.908  51.774  0.00  0.00    +0.010 A 
ATOM     15  C9  <0> A   1     -28.802   0.457  51.714  0.00  0.00    +0.008 A 
ATOM     16  C10 <0> A   1     -28.072   1.222  50.821  0.00  0.00    +0.013 A 
ATOM     17  C11 <0> A   1     -27.149   0.622  49.981  0.00  0.00    +0.008 A 
ATOM     18  C12 <0> A   1     -26.946  -0.741  50.035  0.00  0.00    +0.057 A 
ENDBRANCH   4  13
BRANCH   1  20
ATOM     19  C1  <0> A   1     -30.044  -6.257  51.198  0.00  0.00    +0.030 C 
ATOM     20  C2  <0> A   1     -28.594  -6.417  50.736  0.00  0.00    +0.074 C 
ATOM     21  C3  <0> A   1     -28.571  -6.825  49.261  0.00  0.00    +0.030 C 
ENDBRANCH   1  20
BRANCH   2  22
ATOM     22  C19 <0> A   1     -25.577  -6.045  51.472  0.00  0.00    +0.043 C 
ATOM     23  C20 <0> A   1     -25.029  -6.691  50.446  0.00  0.00    -0.043 C 
BRANCH  23  24
ATOM     24  C21 <0> A   1     -24.037  -7.797  50.695  0.00  0.00    +0.252 C 
BRANCH  24  25
ATOM     25  O4  <0> A   1     -24.296  -8.390  51.970  0.00  0.00    -0.537 OA
ATOM     26  H26 <0> A   1     -24.349  -9.356  51.950  0.00  0.00    +0.367 HD
ENDBRANCH  24  25
BRANCH  24  27
ATOM     27  C22 <0> A   1     -24.171  -8.858  49.601  0.00  0.00    -0.041 C 
BRANCH  27  28
ATOM     28  C23 <0> A   1     -24.367 -10.232  50.245  0.00  0.00    +0.231 C 
BRANCH  28  29
ATOM     29  O3  <0> A   1     -25.764 -10.516  50.346  0.00  0.00    -0.528 OA
ATOM     30  H25 <0> A   1     -26.153 -10.277  51.198  0.00  0.00    +0.351 HD
ENDBRANCH  28  29
BRANCH  28  31
ATOM     31  C24 <0> A   1     -23.691 -11.300  49.383  0.00  0.00    -0.102 C 
BRANCH  31  32
ATOM     32  C25 <0> A   1     -24.727 -12.280  48.893  0.00  0.00    +0.491 C 
ATOM     33  O1  <0> A   1     -25.317 -12.071  47.847  0.00  0.00    -0.681 OA
ATOM     34  O2  <0> A   1     -24.974 -13.281  49.543  0.00  0.00    -0.713 OA
ENDBRANCH  31  32
ENDBRANCH  28  31
ENDBRANCH  27  28
ENDBRANCH  24  27
ENDBRANCH  23  24
ENDBRANCH   2  22
TORSDOF 11
