REMARK VINA RESULT:      -7.1     16.896     21.442
REMARK  Name = CHEMBL142436
REMARK  13 active torsions:
REMARK  status: ('A' for Active; 'I' for Inactive)
REMARK    1  A    between atoms: C1_1  and  C2_2
REMARK    2  A    between atoms: C4_4  and  C17_24
REMARK    3  A    between atoms: C5_5  and  C10_12
REMARK    4  A    between atoms: C6_6  and  C7_9
REMARK    5  A    between atoms: C7_9  and  C8_10
REMARK    6  A    between atoms: C7_9  and  C9_11
REMARK    7  A    between atoms: C11_13  and  C12_14
REMARK    8  A    between atoms: C12_14  and  C13_15
REMARK    9  A    between atoms: C12_14  and  O5_23
REMARK   10  A    between atoms: C13_15  and  C14_16
REMARK   11  A    between atoms: C14_16  and  C15_18
REMARK   12  A    between atoms: C14_16  and  O4_22
REMARK   13  A    between atoms: C15_18  and  C16_19
REMARK                            x       y       z     vdW  Elec       q    Type
REMARK                         _______ _______ _______ _____ _____    ______ ____
ROOT
ATOM      1  C1  <0> A   1     -27.013  -0.742  52.885  0.00  0.00    +0.156 C 
ATOM      2  C2  <0> A   1     -26.449  -2.053  52.401  0.00  0.00    +0.101 A 
ATOM      3  C3  <0> A   1     -27.285  -3.143  52.269  0.00  0.00    +0.042 A 
ATOM      4  C4  <0> A   1     -26.758  -4.355  51.819  0.00  0.00    +0.005 A 
ATOM      5  C5  <0> A   1     -25.381  -4.410  51.519  0.00  0.00    -0.041 A 
ATOM      6  C6  <0> A   1     -24.613  -3.258  51.683  0.00  0.00    +0.125 A 
ATOM      7  N1  <0> A   1     -25.164  -2.138  52.106  0.00  0.00    -0.114 N 
ATOM      8  O1  <0> A   1     -24.350  -0.988  52.255  0.00  0.00    -0.533 OA
ENDROOT
BRANCH   4   9
ATOM      9  C17 <0> A   1     -27.621  -5.549  51.662  0.00  0.00    -0.073 A 
ATOM     10  C18 <0> A   1     -28.041  -6.261  52.785  0.00  0.00    +0.083 A 
ATOM     11  C19 <0> A   1     -28.844  -7.372  52.635  0.00  0.00    -0.008 A 
ATOM     12  C20 <0> A   1     -29.235  -7.780  51.370  0.00  0.00    +0.114 A 
ATOM     13  C21 <0> A   1     -28.821  -7.076  50.251  0.00  0.00    -0.014 A 
ATOM     14  C22 <0> A   1     -28.022  -5.961  50.392  0.00  0.00    +0.064 A 
ATOM     15  F1  <0> A   1     -30.022  -8.870  51.227  0.00  0.00    -0.135 F 
ENDBRANCH   4   9
BRANCH   6  16
ATOM     16  C7  <0> A   1     -23.140  -3.293  51.368  0.00  0.00    +0.055 C 
ATOM     17  C8  <0> A   1     -22.802  -2.173  50.382  0.00  0.00    +0.044 C 
ATOM     18  C9  <0> A   1     -22.339  -3.098  52.657  0.00  0.00    +0.044 C 
ENDBRANCH   6  16
BRANCH   5  19
ATOM     19  C10 <0> A   1     -24.765  -5.662  51.039  0.00  0.00    +0.002 C 
ATOM     20  C11 <0> A   1     -24.523  -6.651  51.892  0.00  0.00    -0.015 C 
BRANCH  20  21
ATOM     21  C12 <0> A   1     -23.894  -7.930  51.403  0.00  0.00    +0.253 C 
BRANCH  21  22
ATOM     22  O5  <0> A   1     -23.176  -8.547  52.473  0.00  0.00    -0.536 OA
ATOM     23  H21 <0> A   1     -23.503  -8.313  53.353  0.00  0.00    +0.367 HD
ENDBRANCH  21  22
BRANCH  21  24
ATOM     24  C13 <0> A   1     -24.986  -8.879  50.907  0.00  0.00    -0.040 C 
BRANCH  24  25
ATOM     25  C14 <0> A   1     -24.371  -9.921  49.971  0.00  0.00    +0.232 C 
BRANCH  25  26
ATOM     26  O4  <0> A   1     -22.998  -9.600  49.738  0.00  0.00    -0.528 OA
ATOM     27  H20 <0> A   1     -22.488 -10.320  49.343  0.00  0.00    +0.351 HD
ENDBRANCH  25  26
BRANCH  25  28
ATOM     28  C15 <0> A   1     -24.470 -11.306  50.614  0.00  0.00    -0.101 C 
BRANCH  28  29
ATOM     29  C16 <0> A   1     -24.390 -12.364  49.542  0.00  0.00    +0.491 C 
ATOM     30  O2  <0> A   1     -23.610 -12.233  48.614  0.00  0.00    -0.681 OA
ATOM     31  O3  <0> A   1     -25.105 -13.349  49.605  0.00  0.00    -0.712 OA
ENDBRANCH  28  29
ENDBRANCH  25  28
ENDBRANCH  24  25
ENDBRANCH  21  24
ENDBRANCH  20  21
ENDBRANCH   5  19
TORSDOF 10
