REMARK VINA RESULT:      -8.6      0.000      0.000
REMARK  Name = CHEMBL253153
REMARK  15 active torsions:
REMARK  status: ('A' for Active; 'I' for Inactive)
REMARK    1  A    between atoms: C1_1  and  C2_2
REMARK    2  A    between atoms: C2_2  and  C3_3
REMARK    3  A    between atoms: C2_2  and  C4_4
REMARK    4  A    between atoms: C5_5  and  C24_29
REMARK    5  A    between atoms: N1_6  and  C18_22
REMARK    6  A    between atoms: C6_8  and  C7_9
REMARK    7  A    between atoms: C11_15  and  C12_16
REMARK    8  A    between atoms: C24_29  and  C25_30
REMARK    9  A    between atoms: C25_30  and  C26_31
REMARK   10  A    between atoms: C26_31  and  C27_33
REMARK   11  A    between atoms: C26_31  and  O5_41
REMARK   12  A    between atoms: C27_33  and  C28_34
REMARK   13  A    between atoms: C28_34  and  C29_36
REMARK   14  A    between atoms: C28_34  and  O4_40
REMARK   15  A    between atoms: C29_36  and  C30_37
REMARK                            x       y       z     vdW  Elec       q    Type
REMARK                         _______ _______ _______ _____ _____    ______ ____
ROOT
ATOM      1  C4  <0> A   1     -15.677   6.929  46.410  0.00  0.00    -0.124 C 
ATOM      2  C5  <0> A   1     -14.654   7.736  46.041  0.00  0.00    +0.027 C 
ATOM      3  N1  <0> A   1     -14.934   8.977  46.518  0.00  0.00    -0.234 N 
ATOM      4  N2  <0> A   1     -16.054   8.967  47.148  0.00  0.00    -0.257 NA
ATOM      5  C6  <0> A   1     -16.576   7.756  47.123  0.00  0.00    -0.001 C 
ENDROOT
BRANCH   5   6
ATOM      6  C7  <0> A   1     -17.857   7.342  47.729  0.00  0.00    +0.618 C 
ATOM      7  O1  <0> A   1     -18.628   6.642  47.102  0.00  0.00    -0.502 OA
ATOM      8  N3  <0> A   1     -18.172   7.739  48.978  0.00  0.00    -0.603 N 
ATOM      9  C8  <0> A   1     -17.336   8.590  49.845  0.00  0.00    +0.263 C 
ATOM     10  C9  <0> A   1     -18.332   9.249  50.832  0.00  0.00    +0.028 C 
ATOM     11  C10 <0> A   1     -19.338   8.094  51.076  0.00  0.00    +0.043 C 
ATOM     12  C11 <0> A   1     -19.407   7.401  49.700  0.00  0.00    +0.266 C 
BRANCH  12  13
ATOM     13  C12 <0> A   1     -19.501   5.908  49.884  0.00  0.00    -0.084 A 
ATOM     14  C13 <0> A   1     -20.677   5.249  49.581  0.00  0.00    +0.013 A 
ATOM     15  C14 <0> A   1     -20.765   3.879  49.749  0.00  0.00    -0.001 A 
ATOM     16  C15 <0> A   1     -19.675   3.169  50.218  0.00  0.00    -0.000 A 
ATOM     17  C16 <0> A   1     -18.498   3.829  50.520  0.00  0.00    +0.002 A 
ATOM     18  C17 <0> A   1     -18.410   5.198  50.348  0.00  0.00    +0.016 A 
ENDBRANCH  12  13
ENDBRANCH   5   6
BRANCH   3  19
ATOM     19  C18 <0> A   1     -14.117  10.104  46.349  0.00  0.00    +0.119 A 
ATOM     20  C19 <0> A   1     -13.055  10.329  47.215  0.00  0.00    +0.068 A 
ATOM     21  C20 <0> A   1     -12.252  11.440  47.047  0.00  0.00    +0.021 A 
ATOM     22  C21 <0> A   1     -12.505  12.329  46.016  0.00  0.00    +0.112 A 
ATOM     23  C22 <0> A   1     -13.564  12.106  45.151  0.00  0.00    +0.008 A 
ATOM     24  C23 <0> A   1     -14.366  10.993  45.312  0.00  0.00    +0.070 A 
ATOM     25  F1  <0> A   1     -11.717  13.414  45.853  0.00  0.00    -0.131 F 
ENDBRANCH   3  19
BRANCH   1  27
ATOM     26  C1  <0> A   1     -16.332   5.274  44.684  0.00  0.00    +0.028 C 
ATOM     27  C2  <0> A   1     -15.828   5.459  46.117  0.00  0.00    +0.061 C 
ATOM     28  C3  <0> A   1     -14.472   4.766  46.272  0.00  0.00    +0.025 C 
ENDBRANCH   1  27
BRANCH   2  29
ATOM     29  C24 <0> A   1     -13.436   7.334  45.252  0.00  0.00    +0.127 C 
BRANCH  29  30
ATOM     30  C25 <0> A   1     -13.726   7.483  43.757  0.00  0.00    -0.009 C 
BRANCH  30  31
ATOM     31  C26 <0> A   1     -12.824   8.570  43.169  0.00  0.00    +0.214 C 
BRANCH  31  32
ATOM     32  O5  <0> A   1     -11.544   8.012  42.861  0.00  0.00    -0.540 OA
ATOM     33  H35 <0> A   1     -11.331   7.215  43.365  0.00  0.00    +0.363 HD
ENDBRANCH  31  32
BRANCH  31  34
ATOM     34  C27 <0> A   1     -13.459   9.123  41.891  0.00  0.00    -0.052 C 
BRANCH  34  35
ATOM     35  C28 <0> A   1     -12.976  10.557  41.663  0.00  0.00    +0.231 C 
BRANCH  35  36
ATOM     36  O4  <0> A   1     -11.574  10.551  41.387  0.00  0.00    -0.528 OA
ATOM     37  H34 <0> A   1     -11.256  11.353  40.949  0.00  0.00    +0.349 HD
ENDBRANCH  35  36
BRANCH  35  38
ATOM     38  C29 <0> A   1     -13.727  11.165  40.476  0.00  0.00    -0.103 C 
BRANCH  38  39
ATOM     39  C30 <0> A   1     -12.859  11.103  39.247  0.00  0.00    +0.491 C 
ATOM     40  O2  <0> A   1     -12.666  10.035  38.690  0.00  0.00    -0.681 OA
ATOM     41  O3  <0> A   1     -12.348  12.120  38.808  0.00  0.00    -0.713 OA
ENDBRANCH  38  39
ENDBRANCH  35  38
ENDBRANCH  34  35
ENDBRANCH  31  34
ENDBRANCH  30  31
ENDBRANCH  29  30
ENDBRANCH   2  29
TORSDOF 13
