REMARK VINA RESULT:      -7.6      8.003     13.172
REMARK  Name = CHEMBL398523
REMARK  15 active torsions:
REMARK  status: ('A' for Active; 'I' for Inactive)
REMARK    1  A    between atoms: C1_1  and  C2_2
REMARK    2  A    between atoms: C2_2  and  C3_3
REMARK    3  A    between atoms: C2_2  and  C4_4
REMARK    4  A    between atoms: C5_5  and  C25_30
REMARK    5  A    between atoms: N1_6  and  C19_23
REMARK    6  A    between atoms: C6_8  and  C7_9
REMARK    7  A    between atoms: C12_16  and  C13_17
REMARK    8  A    between atoms: C25_30  and  C26_31
REMARK    9  A    between atoms: C26_31  and  C27_32
REMARK   10  A    between atoms: C27_32  and  C28_34
REMARK   11  A    between atoms: C27_32  and  O5_42
REMARK   12  A    between atoms: C28_34  and  C29_35
REMARK   13  A    between atoms: C29_35  and  C30_37
REMARK   14  A    between atoms: C29_35  and  O4_41
REMARK   15  A    between atoms: C30_37  and  C31_38
REMARK                            x       y       z     vdW  Elec       q    Type
REMARK                         _______ _______ _______ _____ _____    ______ ____
ROOT
ATOM      1  C4  <0> A   1     -15.514   6.331  45.817  0.00  0.00    -0.123 C 
ATOM      2  C5  <0> A   1     -14.334   6.781  45.329  0.00  0.00    +0.031 C 
ATOM      3  N1  <0> A   1     -13.888   7.739  46.183  0.00  0.00    -0.236 N 
ATOM      4  N2  <0> A   1     -14.721   7.892  47.149  0.00  0.00    -0.263 NA
ATOM      5  C6  <0> A   1     -15.745   7.075  46.999  0.00  0.00    +0.002 C 
ENDROOT
BRANCH   5   6
ATOM      6  C7  <0> A   1     -16.912   6.956  47.896  0.00  0.00    +0.594 C 
ATOM      7  O1  <0> A   1     -17.509   5.901  47.979  0.00  0.00    -0.481 OA
ATOM      8  N3  <0> A   1     -17.314   8.017  48.622  0.00  0.00    -0.597 N 
ATOM      9  C8  <0> A   1     -16.691   9.334  48.432  0.00  0.00    +0.274 C 
ATOM     10  C9  <0> A   1     -16.202   9.850  49.789  0.00  0.00    +0.009 C 
ATOM     11  C10 <0> A   1     -17.368   9.843  50.782  0.00  0.00    +0.009 C 
ATOM     12  C11 <0> A   1     -17.877   8.413  50.964  0.00  0.00    +0.021 C 
ATOM     13  C12 <0> A   1     -18.388   7.882  49.616  0.00  0.00    +0.268 C 
BRANCH  13  14
ATOM     14  C13 <0> A   1     -18.768   6.430  49.753  0.00  0.00    -0.055 A 
ATOM     15  C14 <0> A   1     -17.967   5.572  50.483  0.00  0.00    +0.040 A 
ATOM     16  C15 <0> A   1     -18.315   4.240  50.609  0.00  0.00    -0.005 A 
ATOM     17  C16 <0> A   1     -19.465   3.766  50.006  0.00  0.00    -0.006 A 
ATOM     18  C17 <0> A   1     -20.267   4.625  49.276  0.00  0.00    -0.006 A 
ATOM     19  C18 <0> A   1     -19.921   5.957  49.154  0.00  0.00    -0.003 A 
ENDBRANCH  13  14
ENDBRANCH   5   6
BRANCH   3  20
ATOM     20  C19 <0> A   1     -12.692   8.454  46.033  0.00  0.00    +0.117 A 
ATOM     21  C20 <0> A   1     -12.727   9.817  45.767  0.00  0.00    +0.068 A 
ATOM     22  C21 <0> A   1     -11.547  10.520  45.620  0.00  0.00    +0.020 A 
ATOM     23  C22 <0> A   1     -10.332   9.868  45.737  0.00  0.00    +0.112 A 
ATOM     24  C23 <0> A   1     -10.295   8.509  46.001  0.00  0.00    +0.008 A 
ATOM     25  C24 <0> A   1     -11.472   7.804  46.156  0.00  0.00    +0.070 A 
ATOM     26  F1  <0> A   1      -9.179  10.559  45.592  0.00  0.00    -0.131 F 
ENDBRANCH   3  20
BRANCH   1  28
ATOM     27  C1  <0> A   1     -16.862   5.704  43.831  0.00  0.00    +0.028 C 
ATOM     28  C2  <0> A   1     -16.399   5.265  45.223  0.00  0.00    +0.060 C 
ATOM     29  C3  <0> A   1     -15.614   3.957  45.109  0.00  0.00    +0.025 C 
ENDBRANCH   1  28
BRANCH   2  30
ATOM     30  C25 <0> A   1     -13.646   6.308  44.075  0.00  0.00    +0.127 C 
BRANCH  30  31
ATOM     31  C26 <0> A   1     -13.662   7.427  43.032  0.00  0.00    -0.008 C 
BRANCH  31  32
ATOM     32  C27 <0> A   1     -12.240   7.671  42.523  0.00  0.00    +0.214 C 
BRANCH  32  33
ATOM     33  O5  <0> A   1     -11.976   6.808  41.414  0.00  0.00    -0.540 OA
ATOM     34  H37 <0> A   1     -12.089   7.229  40.552  0.00  0.00    +0.363 HD
ENDBRANCH  32  33
BRANCH  32  35
ATOM     35  C28 <0> A   1     -12.100   9.128  42.078  0.00  0.00    -0.052 C 
BRANCH  35  36
ATOM     36  C29 <0> A   1     -13.428   9.613  41.494  0.00  0.00    +0.231 C 
BRANCH  36  37
ATOM     37  O4  <0> A   1     -13.721  10.919  41.996  0.00  0.00    -0.528 OA
ATOM     38  H36 <0> A   1     -13.409  11.637  41.429  0.00  0.00    +0.349 HD
ENDBRANCH  36  37
BRANCH  36  39
ATOM     39  C30 <0> A   1     -13.326   9.664  39.968  0.00  0.00    -0.103 C 
BRANCH  39  40
ATOM     40  C31 <0> A   1     -13.292  11.101  39.515  0.00  0.00    +0.491 C 
ATOM     41  O2  <0> A   1     -14.316  11.645  39.139  0.00  0.00    -0.681 OA
ATOM     42  O3  <0> A   1     -12.241  11.719  39.526  0.00  0.00    -0.713 OA
ENDBRANCH  39  40
ENDBRANCH  36  39
ENDBRANCH  35  36
ENDBRANCH  32  35
ENDBRANCH  31  32
ENDBRANCH  30  31
ENDBRANCH   2  30
TORSDOF 13
