REMARK VINA RESULT:      -7.6      2.950      7.589
REMARK  Name = CHEMBL429487
REMARK  16 active torsions:
REMARK  status: ('A' for Active; 'I' for Inactive)
REMARK    1  A    between atoms: C1_1  and  C2_2
REMARK    2  A    between atoms: C2_2  and  C3_3
REMARK    3  A    between atoms: C2_2  and  C4_4
REMARK    4  A    between atoms: C5_5  and  S1_35
REMARK    5  A    between atoms: C6_6  and  C21_29
REMARK    6  A    between atoms: C7_7  and  C15_22
REMARK    7  A    between atoms: N1_8  and  C8_9
REMARK    8  A    between atoms: C8_9  and  C9_10
REMARK    9  A    between atoms: C9_10  and  C10_11
REMARK   10  A    between atoms: C10_11  and  C11_13
REMARK   11  A    between atoms: C10_11  and  O4_21
REMARK   12  A    between atoms: C11_13  and  C12_14
REMARK   13  A    between atoms: C12_14  and  C13_16
REMARK   14  A    between atoms: C12_14  and  O3_20
REMARK   15  A    between atoms: C13_16  and  C14_17
REMARK   16  A    between atoms: S1_35  and  N2_38
REMARK                            x       y       z     vdW  Elec       q    Type
REMARK                         _______ _______ _______ _____ _____    ______ ____
ROOT
ATOM      1  C4  <0> A   1     -13.931   7.379  45.266  0.00  0.00    +0.174 C 
ATOM      2  C5  <0> A   1     -13.169   8.481  45.404  0.00  0.00    -0.735 C 
ATOM      3  C6  <0> A   1     -13.581   9.143  46.584  0.00  0.00    -0.022 C 
ATOM      4  C7  <0> A   1     -14.607   8.391  47.128  0.00  0.00    +0.059 C 
ATOM      5  N1  <0> A   1     -14.814   7.317  46.303  0.00  0.00    -0.412 N 
ENDROOT
BRANCH   4   6
ATOM      6  C15 <0> A   1     -15.349   8.694  48.368  0.00  0.00    -0.027 A 
ATOM      7  C16 <0> A   1     -15.057   8.003  49.546  0.00  0.00    +0.045 A 
ATOM      8  C17 <0> A   1     -15.753   8.290  50.702  0.00  0.00    -0.008 A 
ATOM      9  C18 <0> A   1     -16.740   9.262  50.696  0.00  0.00    +0.105 A 
ATOM     10  C19 <0> A   1     -17.035   9.951  49.529  0.00  0.00    -0.008 A 
ATOM     11  C20 <0> A   1     -16.341   9.677  48.369  0.00  0.00    +0.075 A 
ATOM     12  F1  <0> A   1     -17.420   9.538  51.830  0.00  0.00    -0.137 F 
ENDBRANCH   4   6
BRANCH   3  13
ATOM     13  C21 <0> A   1     -13.020  10.400  47.133  0.00  0.00    -0.034 A 
ATOM     14  C22 <0> A   1     -13.506  11.633  46.698  0.00  0.00    +0.061 A 
ATOM     15  C23 <0> A   1     -12.980  12.800  47.213  0.00  0.00    -0.000 A 
ATOM     16  C24 <0> A   1     -11.971  12.749  48.159  0.00  0.00    +0.003 A 
ATOM     17  C25 <0> A   1     -11.484  11.530  48.593  0.00  0.00    -0.009 A 
ATOM     18  C26 <0> A   1     -12.007  10.356  48.090  0.00  0.00    +0.018 A 
ENDBRANCH   3  13
BRANCH   1  20
ATOM     19  C1  <0> A   1     -14.103   4.976  44.681  0.00  0.00    +0.040 C 
ATOM     20  C2  <0> A   1     -13.830   6.381  44.141  0.00  0.00    +0.059 C 
ATOM     21  C3  <0> A   1     -14.861   6.722  43.063  0.00  0.00    +0.039 C 
ENDBRANCH   1  20
BRANCH   2  22
ATOM     22  S1  <0> A   1     -11.889   9.003  44.311  0.00  0.00    +2.727 S 
ATOM     23  O5  <0> A   1     -11.109   9.953  45.024  0.00  0.00    -0.947 OA
ATOM     24  O6  <0> A   1     -11.327   7.824  43.750  0.00  0.00    -0.962 OA
BRANCH  22  25
ATOM     25  N2  <0> A   1     -12.610   9.822  43.067  0.00  0.00    -1.011 NA
ATOM     26  C27 <0> A   1     -13.736  10.759  43.197  0.00  0.00    +0.254 C 
ATOM     27  C28 <0> A   1     -14.085  11.256  41.779  0.00  0.00    +0.028 C 
ATOM     28  C29 <0> A   1     -13.508  10.142  40.867  0.00  0.00    +0.029 C 
ATOM     29  C30 <0> A   1     -12.227   9.740  41.645  0.00  0.00    +0.268 C 
ENDBRANCH  22  25
ENDBRANCH   2  22
BRANCH   5  30
ATOM     30  C8  <0> A   1     -15.817   6.267  46.506  0.00  0.00    +0.294 C 
BRANCH  30  31
ATOM     31  C9  <0> A   1     -17.176   6.759  46.006  0.00  0.00    -0.015 C 
BRANCH  31  32
ATOM     32  C10 <0> A   1     -18.140   6.882  47.187  0.00  0.00    +0.218 C 
BRANCH  32  33
ATOM     33  O4  <0> A   1     -19.483   6.714  46.727  0.00  0.00    -0.540 OA
ATOM     34  H19 <0> A   1     -19.894   7.530  46.411  0.00  0.00    +0.366 HD
ENDBRANCH  32  33
BRANCH  32  35
ATOM     35  C11 <0> A   1     -17.818   5.803  48.223  0.00  0.00    -0.047 C 
BRANCH  35  36
ATOM     36  C12 <0> A   1     -18.533   6.127  49.537  0.00  0.00    +0.232 C 
BRANCH  36  37
ATOM     37  O3  <0> A   1     -19.345   7.290  49.364  0.00  0.00    -0.528 OA
ATOM     38  H18 <0> A   1     -20.296   7.113  49.390  0.00  0.00    +0.350 HD
ENDBRANCH  36  37
BRANCH  36  39
ATOM     39  C13 <0> A   1     -19.414   4.944  49.944  0.00  0.00    -0.102 C 
BRANCH  39  40
ATOM     40  C14 <0> A   1     -20.835   5.207  49.517  0.00  0.00    +0.491 C 
ATOM     41  O1  <0> A   1     -21.162   5.051  48.353  0.00  0.00    -0.681 OA
ATOM     42  O2  <0> A   1     -21.658   5.577  50.337  0.00  0.00    -0.712 OA
ENDBRANCH  39  40
ENDBRANCH  36  39
ENDBRANCH  35  36
ENDBRANCH  32  35
ENDBRANCH  31  32
ENDBRANCH  30  31
ENDBRANCH   5  30
TORSDOF 14
