REMARK VINA RESULT:      -7.5      2.552      4.561
REMARK  Name = CHEMBL140218
REMARK  13 active torsions:
REMARK  status: ('A' for Active; 'I' for Inactive)
REMARK    1  A    between atoms: C1_1  and  C2_2
REMARK    2  A    between atoms: C2_2  and  C3_3
REMARK    3  A    between atoms: C2_2  and  C4_4
REMARK    4  A    between atoms: C5_5  and  C21_23
REMARK    5  A    between atoms: C6_6  and  C15_16
REMARK    6  A    between atoms: C8_8  and  C9_10
REMARK    7  A    between atoms: C22_24  and  C23_25
REMARK    8  A    between atoms: C23_25  and  C24_26
REMARK    9  A    between atoms: C23_25  and  O4_34
REMARK   10  A    between atoms: C24_26  and  C25_27
REMARK   11  A    between atoms: C25_27  and  C26_29
REMARK   12  A    between atoms: C25_27  and  O3_33
REMARK   13  A    between atoms: C26_29  and  C27_30
REMARK                            x       y       z     vdW  Elec       q    Type
REMARK                         _______ _______ _______ _____ _____    ______ ____
ROOT
ATOM      1  C4  <0> A   1     -15.725   9.690  47.902  0.00  0.00    +0.158 A 
ATOM      2  C5  <0> A   1     -15.219   8.715  47.042  0.00  0.00    -0.082 A 
ATOM      3  C6  <0> A   1     -15.839   7.448  47.005  0.00  0.00    +0.008 A 
ATOM      4  C7  <0> A   1     -16.937   7.229  47.836  0.00  0.00    -0.016 A 
ATOM      5  C8  <0> A   1     -17.376   8.258  48.662  0.00  0.00    +0.167 A 
ATOM      6  N1  <0> A   1     -16.762   9.436  48.671  0.00  0.00    -0.468 NA
ENDROOT
BRANCH   3   7
ATOM      7  C15 <0> A   1     -15.337   6.381  46.108  0.00  0.00    -0.065 A 
ATOM      8  C16 <0> A   1     -14.374   5.481  46.562  0.00  0.00    +0.079 A 
ATOM      9  C17 <0> A   1     -13.909   4.489  45.723  0.00  0.00    -0.010 A 
ATOM     10  C18 <0> A   1     -14.400   4.386  44.430  0.00  0.00    +0.108 A 
ATOM     11  C19 <0> A   1     -15.358   5.278  43.975  0.00  0.00    -0.016 A 
ATOM     12  C20 <0> A   1     -15.831   6.269  44.808  0.00  0.00    +0.057 A 
ATOM     13  F1  <0> A   1     -13.943   3.412  43.613  0.00  0.00    -0.137 F 
ENDBRANCH   3   7
BRANCH   5  14
ATOM     14  C9  <0> A   1     -18.543   8.037  49.548  0.00  0.00    -0.045 A 
ATOM     15  C10 <0> A   1     -18.801   8.916  50.599  0.00  0.00    +0.023 A 
ATOM     16  C11 <0> A   1     -19.889   8.705  51.420  0.00  0.00    +0.002 A 
ATOM     17  C12 <0> A   1     -20.724   7.623  51.203  0.00  0.00    +0.011 A 
ATOM     18  C13 <0> A   1     -20.474   6.749  50.162  0.00  0.00    -0.001 A 
ATOM     19  C14 <0> A   1     -19.392   6.952  49.330  0.00  0.00    +0.055 A 
ENDBRANCH   5  14
BRANCH   1  21
ATOM     20  C1  <0> A   1     -16.154  12.132  47.940  0.00  0.00    +0.037 C 
ATOM     21  C2  <0> A   1     -15.074  11.048  47.953  0.00  0.00    +0.045 C 
ATOM     22  C3  <0> A   1     -14.245  11.168  49.233  0.00  0.00    +0.037 C 
ENDBRANCH   1  21
BRANCH   2  23
ATOM     23  C21 <0> A   1     -14.053   9.004  46.184  0.00  0.00    +0.002 C 
ATOM     24  C22 <0> A   1     -14.201   9.733  45.085  0.00  0.00    -0.034 C 
BRANCH  24  25
ATOM     25  C23 <0> A   1     -13.009  10.028  44.211  0.00  0.00    +0.251 C 
BRANCH  25  26
ATOM     26  O4  <0> A   1     -11.891   9.257  44.654  0.00  0.00    -0.537 OA
ATOM     27  H27 <0> A   1     -11.067   9.760  44.718  0.00  0.00    +0.366 HD
ENDBRANCH  25  26
BRANCH  25  28
ATOM     28  C24 <0> A   1     -13.338   9.661  42.762  0.00  0.00    -0.042 C 
BRANCH  28  29
ATOM     29  C25 <0> A   1     -12.887  10.792  41.835  0.00  0.00    +0.231 C 
BRANCH  29  30
ATOM     30  O3  <0> A   1     -11.549  10.546  41.399  0.00  0.00    -0.528 OA
ATOM     31  H26 <0> A   1     -11.471  10.366  40.453  0.00  0.00    +0.350 HD
ENDBRANCH  29  30
BRANCH  29  32
ATOM     32  C26 <0> A   1     -13.815  10.857  40.621  0.00  0.00    -0.102 C 
BRANCH  32  33
ATOM     33  C27 <0> A   1     -12.991  10.933  39.362  0.00  0.00    +0.491 C 
ATOM     34  O1  <0> A   1     -12.645  12.017  38.924  0.00  0.00    -0.681 OA
ATOM     35  O2  <0> A   1     -12.669   9.910  38.782  0.00  0.00    -0.713 OA
ENDBRANCH  32  33
ENDBRANCH  29  32
ENDBRANCH  28  29
ENDBRANCH  25  28
ENDBRANCH  24  25
ENDBRANCH   2  23
TORSDOF 11
