REMARK VINA RESULT:      -7.8     14.289     17.633
REMARK  Name = CHEMBL250180
REMARK  17 active torsions:
REMARK  status: ('A' for Active; 'I' for Inactive)
REMARK    1  A    between atoms: C1_1  and  C2_2
REMARK    2  A    between atoms: C2_2  and  C3_3
REMARK    3  A    between atoms: C2_2  and  C4_4
REMARK    4  A    between atoms: C5_5  and  C19_29
REMARK    5  A    between atoms: N2_7  and  C13_22
REMARK    6  A    between atoms: C6_8  and  O1_9
REMARK    7  A    between atoms: O1_9  and  C7_10
REMARK    8  A    between atoms: C7_10  and  C8_11
REMARK    9  A    between atoms: C8_11  and  C9_13
REMARK   10  A    between atoms: C8_11  and  O5_21
REMARK   11  A    between atoms: C9_13  and  C10_14
REMARK   12  A    between atoms: C10_14  and  C11_16
REMARK   13  A    between atoms: C10_14  and  O4_20
REMARK   14  A    between atoms: C11_16  and  C12_17
REMARK   15  A    between atoms: N3_31  and  C20_32
REMARK   16  A    between atoms: C20_32  and  C21_33
REMARK   17  A    between atoms: C21_33  and  C22_34
REMARK                            x       y       z     vdW  Elec       q    Type
REMARK                         _______ _______ _______ _____ _____    ______ ____
ROOT
ATOM      1  C4  <0> A   1     -26.221  -4.789  51.580  0.00  0.00    -0.161 C 
ATOM      2  C5  <0> A   1     -24.882  -5.068  51.234  0.00  0.00    +0.044 C 
ATOM      3  N1  <0> A   1     -24.213  -3.931  51.231  0.00  0.00    -0.238 NA
ATOM      4  N2  <0> A   1     -25.100  -2.901  51.573  0.00  0.00    -0.318 N 
ATOM      5  C6  <0> A   1     -26.328  -3.453  51.777  0.00  0.00    +0.260 C 
ENDROOT
BRANCH   4   6
ATOM      6  C13 <0> A   1     -24.780  -1.541  51.679  0.00  0.00    +0.126 A 
ATOM      7  C14 <0> A   1     -24.386  -0.829  50.554  0.00  0.00    +0.064 A 
ATOM      8  C15 <0> A   1     -24.071   0.511  50.661  0.00  0.00    +0.005 A 
ATOM      9  C16 <0> A   1     -24.146   1.145  51.891  0.00  0.00    +0.106 A 
ATOM     10  C17 <0> A   1     -24.539   0.436  53.015  0.00  0.00    +0.020 A 
ATOM     11  C18 <0> A   1     -24.861  -0.903  52.910  0.00  0.00    +0.073 A 
ATOM     12  F1  <0> A   1     -23.838   2.456  51.994  0.00  0.00    -0.133 F 
ENDBRANCH   4   6
BRANCH   2  13
ATOM     13  C19 <0> A   1     -24.325  -6.402  50.928  0.00  0.00    +0.605 C 
ATOM     14  O6  <0> A   1     -23.879  -7.094  51.823  0.00  0.00    -0.514 OA
ATOM     15  N3  <0> A   1     -24.309  -6.850  49.658  0.00  0.00    -0.718 N 
ATOM     16  H22 <0> A   1     -24.664  -6.298  48.943  0.00  0.00    +0.408 HD
BRANCH  15  17
ATOM     17  C20 <0> A   1     -23.757  -8.172  49.354  0.00  0.00    +0.273 C 
BRANCH  17  18
ATOM     18  C21 <0> A   1     -24.868  -9.081  48.824  0.00  0.00    +0.070 C 
BRANCH  18  19
ATOM     19  C22 <0> A   1     -24.763 -10.436  49.476  0.00  0.00    -0.083 A 
ATOM     20  C23 <0> A   1     -24.357 -11.530  48.735  0.00  0.00    +0.009 A 
ATOM     21  C24 <0> A   1     -24.261 -12.772  49.332  0.00  0.00    +0.004 A 
ATOM     22  C25 <0> A   1     -24.569 -12.921  50.672  0.00  0.00    -0.000 A 
ATOM     23  C26 <0> A   1     -24.974 -11.827  51.413  0.00  0.00    +0.004 A 
ATOM     24  C27 <0> A   1     -25.066 -10.584  50.816  0.00  0.00    +0.009 A 
ENDBRANCH  18  19
ENDBRANCH  17  18
ENDBRANCH  15  17
ENDBRANCH   2  13
BRANCH   1  26
ATOM     25  C1  <0> A   1     -28.176  -5.479  52.939  0.00  0.00    +0.029 C 
ATOM     26  C2  <0> A   1     -27.335  -5.797  51.703  0.00  0.00    +0.077 C 
ATOM     27  C3  <0> A   1     -28.218  -5.735  50.454  0.00  0.00    +0.021 C 
ENDBRANCH   1  26
BRANCH   5  28
ATOM     28  O1  <0> A   1     -27.458  -2.783  52.121  0.00  0.00    -0.282 OA
BRANCH  28  29
ATOM     29  C7  <0> A   1     -28.193  -2.164  51.064  0.00  0.00    +0.155 C 
BRANCH  29  30
ATOM     30  C8  <0> A   1     -28.569  -0.738  51.470  0.00  0.00    +0.232 C 
BRANCH  30  31
ATOM     31  O5  <0> A   1     -28.298  -0.552  52.861  0.00  0.00    -0.529 OA
ATOM     32  H17 <0> A   1     -27.422  -0.857  53.135  0.00  0.00    +0.363 HD
ENDBRANCH  30  31
BRANCH  30  33
ATOM     33  C9  <0> A   1     -27.746   0.259  50.653  0.00  0.00    -0.040 C 
BRANCH  33  34
ATOM     34  C10 <0> A   1     -28.436   1.625  50.669  0.00  0.00    +0.237 C 
BRANCH  34  35
ATOM     35  O4  <0> A   1     -29.703   1.510  51.320  0.00  0.00    -0.526 OA
ATOM     36  H16 <0> A   1     -30.284   0.840  50.936  0.00  0.00    +0.350 HD
ENDBRANCH  34  35
BRANCH  34  37
ATOM     37  C11 <0> A   1     -27.564   2.628  51.426  0.00  0.00    -0.101 C 
BRANCH  37  38
ATOM     38  C12 <0> A   1     -28.266   3.050  52.691  0.00  0.00    +0.491 C 
ATOM     39  O2  <0> A   1     -28.192   2.355  53.690  0.00  0.00    -0.680 OA
ATOM     40  O3  <0> A   1     -28.908   4.086  52.716  0.00  0.00    -0.712 OA
ENDBRANCH  37  38
ENDBRANCH  34  37
ENDBRANCH  33  34
ENDBRANCH  30  33
ENDBRANCH  29  30
ENDBRANCH  28  29
ENDBRANCH   5  28
TORSDOF 15
