REMARK VINA RESULT:      -8.6     15.793     21.155
REMARK  Name = CHEMBL503128
REMARK  17 active torsions:
REMARK  status: ('A' for Active; 'I' for Inactive)
REMARK    1  A    between atoms: C1_1  and  C2_2
REMARK    2  A    between atoms: C2_2  and  C3_3
REMARK    3  A    between atoms: C2_2  and  C4_4
REMARK    4  A    between atoms: C5_5  and  C20_29
REMARK    5  A    between atoms: C6_7  and  C14_22
REMARK    6  A    between atoms: N2_8  and  C7_9
REMARK    7  A    between atoms: C7_9  and  C8_10
REMARK    8  A    between atoms: C8_10  and  C9_11
REMARK    9  A    between atoms: C9_11  and  C10_13
REMARK   10  A    between atoms: C9_11  and  O4_21
REMARK   11  A    between atoms: C10_13  and  C11_14
REMARK   12  A    between atoms: C11_14  and  C12_16
REMARK   13  A    between atoms: C11_14  and  O3_20
REMARK   14  A    between atoms: C12_16  and  C13_17
REMARK   15  A    between atoms: N3_31  and  C21_32
REMARK   16  A    between atoms: C21_32  and  C22_33
REMARK   17  A    between atoms: C25_36  and  C28_39
REMARK                            x       y       z     vdW  Elec       q    Type
REMARK                         _______ _______ _______ _____ _____    ______ ____
ROOT
ATOM      1  C4  <0> A   1     -26.388  -5.542  50.501  0.00  0.00    +0.092 C 
ATOM      2  C5  <0> A   1     -25.048  -5.304  50.601  0.00  0.00    -0.064 C 
ATOM      3  N1  <0> A   1     -24.399  -6.452  50.313  0.00  0.00    -0.446 NA
ATOM      4  C6  <0> A   1     -25.281  -7.384  50.042  0.00  0.00    +0.246 C 
ATOM      5  N2  <0> A   1     -26.534  -6.849  50.155  0.00  0.00    -0.436 N 
ENDROOT
BRANCH   4   6
ATOM      6  C14 <0> A   1     -24.972  -8.784  49.679  0.00  0.00    -0.023 A 
ATOM      7  C15 <0> A   1     -24.978  -9.178  48.340  0.00  0.00    +0.046 A 
ATOM      8  C16 <0> A   1     -24.689 -10.485  48.007  0.00  0.00    -0.001 A 
ATOM      9  C17 <0> A   1     -24.391 -11.406  48.999  0.00  0.00    +0.109 A 
ATOM     10  C18 <0> A   1     -24.383 -11.020  50.330  0.00  0.00    -0.010 A 
ATOM     11  C19 <0> A   1     -24.666  -9.714  50.673  0.00  0.00    +0.094 A 
ATOM     12  F1  <0> A   1     -24.108 -12.685  48.668  0.00  0.00    -0.136 F 
ENDBRANCH   4   6
BRANCH   2  13
ATOM     13  C20 <0> A   1     -24.419  -4.020  50.959  0.00  0.00    +0.610 C 
ATOM     14  O5  <0> A   1     -25.055  -3.180  51.566  0.00  0.00    -0.540 OA
ATOM     15  N3  <0> A   1     -23.140  -3.776  50.612  0.00  0.00    -0.715 N 
ATOM     16  H24 <0> A   1     -22.633  -4.445  50.127  0.00  0.00    +0.410 HD
BRANCH  15  17
ATOM     17  C21 <0> A   1     -22.516  -2.500  50.967  0.00  0.00    +0.318 C 
BRANCH  17  18
ATOM     18  C22 <0> A   1     -21.654  -2.685  52.190  0.00  0.00    -0.106 A 
ATOM     19  C23 <0> A   1     -22.106  -2.252  53.423  0.00  0.00    +0.032 A 
ATOM     20  C24 <0> A   1     -21.321  -2.420  54.546  0.00  0.00    +0.015 A 
ATOM     21  C25 <0> A   1     -20.071  -3.026  54.435  0.00  0.00    -0.038 A 
ATOM     22  C26 <0> A   1     -19.621  -3.460  53.190  0.00  0.00    +0.015 A 
ATOM     23  C27 <0> A   1     -20.416  -3.292  52.075  0.00  0.00    +0.033 A 
BRANCH  21  24
ATOM     24  C28 <0> A   1     -19.222  -3.208  55.639  0.00  0.00    -0.047 A 
ATOM     25  C29 <0> A   1     -19.791  -3.160  56.910  0.00  0.00    +0.016 A 
ATOM     26  C30 <0> A   1     -18.997  -3.331  58.025  0.00  0.00    +0.006 A 
ATOM     27  C31 <0> A   1     -17.639  -3.548  57.884  0.00  0.00    +0.004 A 
ATOM     28  C32 <0> A   1     -17.068  -3.597  56.624  0.00  0.00    +0.007 A 
ATOM     29  C33 <0> A   1     -17.854  -3.433  55.501  0.00  0.00    +0.016 A 
ENDBRANCH  21  24
ENDBRANCH  17  18
ENDBRANCH  15  17
ENDBRANCH   2  13
BRANCH   1  31
ATOM     30  C1  <0> A   1     -28.548  -4.687  49.635  0.00  0.00    +0.032 C 
ATOM     31  C2  <0> A   1     -27.496  -4.548  50.736  0.00  0.00    +0.086 C 
ATOM     32  C3  <0> A   1     -28.142  -4.816  52.096  0.00  0.00    +0.034 C 
ENDBRANCH   1  31
BRANCH   5  33
ATOM     33  C7  <0> A   1     -27.801  -7.553  49.942  0.00  0.00    +0.304 C 
BRANCH  33  34
ATOM     34  C8  <0> A   1     -28.313  -8.095  51.278  0.00  0.00    -0.015 C 
BRANCH  34  35
ATOM     35  C9  <0> A   1     -28.999  -9.444  51.052  0.00  0.00    +0.219 C 
BRANCH  35  36
ATOM     36  O4  <0> A   1     -28.014 -10.478  51.005  0.00  0.00    -0.538 OA
ATOM     37  H19 <0> A   1     -27.608 -10.594  50.135  0.00  0.00    +0.367 HD
ENDBRANCH  35  36
BRANCH  35  38
ATOM     38  C10 <0> A   1     -29.974  -9.719  52.199  0.00  0.00    -0.046 C 
BRANCH  38  39
ATOM     39  C11 <0> A   1     -30.898 -10.877  51.815  0.00  0.00    +0.232 C 
BRANCH  39  40
ATOM     40  O3  <0> A   1     -30.538 -11.364  50.521  0.00  0.00    -0.527 OA
ATOM     41  H18 <0> A   1     -29.791 -10.900  50.119  0.00  0.00    +0.351 HD
ENDBRANCH  39  40
BRANCH  39  42
ATOM     42  C12 <0> A   1     -30.756 -12.004  52.841  0.00  0.00    -0.102 C 
BRANCH  42  43
ATOM     43  C13 <0> A   1     -29.952 -13.129  52.243  0.00  0.00    +0.490 C 
ATOM     44  O1  <0> A   1     -28.738 -13.042  52.176  0.00  0.00    -0.681 OA
ATOM     45  O2  <0> A   1     -30.516 -14.127  51.826  0.00  0.00    -0.712 OA
ENDBRANCH  42  43
ENDBRANCH  39  42
ENDBRANCH  38  39
ENDBRANCH  35  38
ENDBRANCH  34  35
ENDBRANCH  33  34
ENDBRANCH   5  33
TORSDOF 15
