REMARK VINA RESULT:      -7.7      2.845      5.818
REMARK  Name = CHEMBL120897
REMARK  9 active torsions:
REMARK  status: ('A' for Active; 'I' for Inactive)
REMARK    1  A    between atoms: C1_1  and  C2_2
REMARK    2  A    between atoms: C2_2  and  C3_3
REMARK    3  A    between atoms: C2_2  and  C4_4
REMARK    4  A    between atoms: C6_6  and  C21_28
REMARK    5  A    between atoms: C7_7  and  C15_21
REMARK    6  A    between atoms: N1_8  and  C8_9
REMARK    7  A    between atoms: C8_9  and  C9_10
REMARK    8  A    between atoms: C9_10  and  C10_11
REMARK    9  A    between atoms: C12_14  and  O3_20
REMARK                            x       y       z     vdW  Elec       q    Type
REMARK                         _______ _______ _______ _____ _____    ______ ____
ROOT
ATOM      1  C4  <0> A   1     -13.226   8.912  42.390  0.00  0.00    +0.043 C 
ATOM      2  C5  <0> A   1     -13.784   7.687  42.401  0.00  0.00    -0.028 C 
ATOM      3  C6  <0> A   1     -14.000   7.324  43.752  0.00  0.00    -0.116 C 
ATOM      4  C7  <0> A   1     -13.550   8.382  44.526  0.00  0.00    +0.069 C 
ATOM      5  N1  <0> A   1     -13.072   9.342  43.676  0.00  0.00    -0.426 N 
ENDROOT
BRANCH   4   6
ATOM      6  C15 <0> A   1     -13.573   8.455  46.001  0.00  0.00    -0.028 A 
ATOM      7  C16 <0> A   1     -14.764   8.741  46.670  0.00  0.00    +0.043 A 
ATOM      8  C17 <0> A   1     -14.780   8.808  48.048  0.00  0.00    -0.008 A 
ATOM      9  C18 <0> A   1     -13.615   8.593  48.767  0.00  0.00    +0.104 A 
ATOM     10  C19 <0> A   1     -12.429   8.311  48.109  0.00  0.00    -0.007 A 
ATOM     11  C20 <0> A   1     -12.403   8.236  46.732  0.00  0.00    +0.070 A 
ATOM     12  F1  <0> A   1     -13.636   8.662  50.116  0.00  0.00    -0.137 F 
ENDBRANCH   4   6
BRANCH   3  13
ATOM     13  C21 <0> A   1     -14.594   6.060  44.243  0.00  0.00    +0.044 A 
ATOM     14  C22 <0> A   1     -15.872   5.661  43.838  0.00  0.00    -0.033 A 
ATOM     15  C23 <0> A   1     -16.387   4.476  44.320  0.00  0.00    +0.254 A 
ATOM     16  N2  <0> A   1     -15.690   3.723  45.151  0.00  0.00    -0.491 NA
ATOM     17  C24 <0> A   1     -14.481   4.063  45.558  0.00  0.00    +0.254 A 
ATOM     18  C25 <0> A   1     -13.889   5.228  45.119  0.00  0.00    -0.032 A 
ENDBRANCH   3  13
BRANCH   1  20
ATOM     19  C1  <0> A   1     -12.676   8.716  39.980  0.00  0.00    +0.040 C 
ATOM     20  C2  <0> A   1     -12.828   9.681  41.157  0.00  0.00    +0.048 C 
ATOM     21  C3  <0> A   1     -13.907  10.717  40.832  0.00  0.00    +0.033 C 
ENDBRANCH   1  20
BRANCH   5  22
ATOM     22  C8  <0> A   1     -12.495  10.626  44.080  0.00  0.00    +0.292 C 
BRANCH  22  23
ATOM     23  C9  <0> A   1     -13.614  11.656  44.256  0.00  0.00    +0.052 C 
BRANCH  23  24
ATOM     24  C10 <0> A   1     -13.454  12.357  45.606  0.00  0.00    +0.203 C 
ATOM     25  C11 <0> A   1     -12.200  11.832  46.310  0.00  0.00    +0.045 C 
ATOM     26  C12 <0> A   1     -12.067  12.506  47.679  0.00  0.00    +0.187 C 
ATOM     27  C13 <0> A   1     -13.315  12.190  48.512  0.00  0.00    +0.025 C 
ATOM     28  C14 <0> A   1     -14.536  12.544  47.690  0.00  0.00    +0.497 C 
ATOM     29  O1  <0> A   1     -15.427  13.214  48.158  0.00  0.00    -0.449 OA
ATOM     30  O2  <0> A   1     -14.601  12.092  46.422  0.00  0.00    -0.370 OA
BRANCH  26  31
ATOM     31  O3  <0> A   1     -11.948  13.920  47.507  0.00  0.00    -0.564 OA
ATOM     32  H19 <0> A   1     -12.780  14.360  47.287  0.00  0.00    +0.388 HD
ENDBRANCH  26  31
ENDBRANCH  23  24
ENDBRANCH  22  23
ENDBRANCH   5  22
TORSDOF 7
