REMARK VINA RESULT:      -7.8     14.744     18.733
REMARK  Name = CHEMBL253153
REMARK  15 active torsions:
REMARK  status: ('A' for Active; 'I' for Inactive)
REMARK    1  A    between atoms: C1_1  and  C2_2
REMARK    2  A    between atoms: C2_2  and  C3_3
REMARK    3  A    between atoms: C2_2  and  C4_4
REMARK    4  A    between atoms: C5_5  and  C24_29
REMARK    5  A    between atoms: N1_6  and  C18_22
REMARK    6  A    between atoms: C6_8  and  C7_9
REMARK    7  A    between atoms: C11_15  and  C12_16
REMARK    8  A    between atoms: C24_29  and  C25_30
REMARK    9  A    between atoms: C25_30  and  C26_31
REMARK   10  A    between atoms: C26_31  and  C27_33
REMARK   11  A    between atoms: C26_31  and  O5_41
REMARK   12  A    between atoms: C27_33  and  C28_34
REMARK   13  A    between atoms: C28_34  and  C29_36
REMARK   14  A    between atoms: C28_34  and  O4_40
REMARK   15  A    between atoms: C29_36  and  C30_37
REMARK                            x       y       z     vdW  Elec       q    Type
REMARK                         _______ _______ _______ _____ _____    ______ ____
ROOT
ATOM      1  C4  <0> A   1     -26.179  -5.749  51.967  0.00  0.00    -0.124 C 
ATOM      2  C5  <0> A   1     -26.357  -4.406  51.982  0.00  0.00    +0.027 C 
ATOM      3  N1  <0> A   1     -25.162  -3.841  51.673  0.00  0.00    -0.234 N 
ATOM      4  N2  <0> A   1     -24.280  -4.753  51.473  0.00  0.00    -0.257 NA
ATOM      5  C6  <0> A   1     -24.817  -5.946  51.638  0.00  0.00    -0.001 C 
ENDROOT
BRANCH   5   6
ATOM      6  C7  <0> A   1     -24.127  -7.245  51.503  0.00  0.00    +0.618 C 
ATOM      7  O1  <0> A   1     -23.514  -7.709  52.445  0.00  0.00    -0.502 OA
ATOM      8  N3  <0> A   1     -24.177  -7.916  50.335  0.00  0.00    -0.603 N 
ATOM      9  C8  <0> A   1     -24.875  -7.468  49.116  0.00  0.00    +0.263 C 
ATOM     10  C9  <0> A   1     -24.152  -8.196  47.955  0.00  0.00    +0.028 C 
ATOM     11  C10 <0> A   1     -23.844  -9.575  48.595  0.00  0.00    +0.043 C 
ATOM     12  C11 <0> A   1     -23.539  -9.212  50.063  0.00  0.00    +0.266 C 
BRANCH  12  13
ATOM     13  C12 <0> A   1     -24.108 -10.265  50.979  0.00  0.00    -0.084 A 
ATOM     14  C13 <0> A   1     -25.314 -10.867  50.673  0.00  0.00    +0.013 A 
ATOM     15  C14 <0> A   1     -25.837 -11.834  51.512  0.00  0.00    -0.001 A 
ATOM     16  C15 <0> A   1     -25.152 -12.199  52.656  0.00  0.00    -0.000 A 
ATOM     17  C16 <0> A   1     -23.945 -11.598  52.961  0.00  0.00    +0.002 A 
ATOM     18  C17 <0> A   1     -23.421 -10.634  52.120  0.00  0.00    +0.016 A 
ENDBRANCH  12  13
ENDBRANCH   5   6
BRANCH   3  19
ATOM     19  C18 <0> A   1     -24.926  -2.462  51.583  0.00  0.00    +0.119 A 
ATOM     20  C19 <0> A   1     -24.576  -1.741  52.718  0.00  0.00    +0.068 A 
ATOM     21  C20 <0> A   1     -24.344  -0.383  52.627  0.00  0.00    +0.021 A 
ATOM     22  C21 <0> A   1     -24.458   0.260  51.407  0.00  0.00    +0.112 A 
ATOM     23  C22 <0> A   1     -24.807  -0.456  50.274  0.00  0.00    +0.008 A 
ATOM     24  C23 <0> A   1     -25.034  -1.816  50.359  0.00  0.00    +0.070 A 
ATOM     25  F1  <0> A   1     -24.229   1.589  51.321  0.00  0.00    -0.131 F 
ENDBRANCH   3  19
BRANCH   1  27
ATOM     26  C1  <0> A   1     -28.094  -6.364  53.416  0.00  0.00    +0.028 C 
ATOM     27  C2  <0> A   1     -27.212  -6.808  52.247  0.00  0.00    +0.061 C 
ATOM     28  C3  <0> A   1     -28.081  -7.014  51.004  0.00  0.00    +0.025 C 
ENDBRANCH   1  27
BRANCH   2  29
ATOM     29  C24 <0> A   1     -27.641  -3.678  52.285  0.00  0.00    +0.127 C 
BRANCH  29  30
ATOM     30  C25 <0> A   1     -28.252  -3.158  50.983  0.00  0.00    -0.009 C 
BRANCH  30  31
ATOM     31  C26 <0> A   1     -28.851  -1.770  51.219  0.00  0.00    +0.214 C 
BRANCH  31  32
ATOM     32  O5  <0> A   1     -30.247  -1.894  51.498  0.00  0.00    -0.540 OA
ATOM     33  H35 <0> A   1     -30.688  -1.053  51.676  0.00  0.00    +0.363 HD
ENDBRANCH  31  32
BRANCH  31  34
ATOM     34  C27 <0> A   1     -28.150  -1.108  52.407  0.00  0.00    -0.052 C 
BRANCH  34  35
ATOM     35  C28 <0> A   1     -28.037   0.398  52.158  0.00  0.00    +0.231 C 
BRANCH  35  36
ATOM     36  O4  <0> A   1     -28.279   0.672  50.777  0.00  0.00    -0.528 OA
ATOM     37  H34 <0> A   1     -27.511   1.024  50.305  0.00  0.00    +0.349 HD
ENDBRANCH  35  36
BRANCH  35  38
ATOM     38  C29 <0> A   1     -29.070   1.135  53.013  0.00  0.00    -0.103 C 
BRANCH  38  39
ATOM     39  C30 <0> A   1     -30.144   1.705  52.124  0.00  0.00    +0.491 C 
ATOM     40  O2  <0> A   1     -30.124   2.887  51.824  0.00  0.00    -0.681 OA
ATOM     41  O3  <0> A   1     -31.034   0.984  51.704  0.00  0.00    -0.713 OA
ENDBRANCH  38  39
ENDBRANCH  35  38
ENDBRANCH  34  35
ENDBRANCH  31  34
ENDBRANCH  30  31
ENDBRANCH  29  30
ENDBRANCH   2  29
TORSDOF 13
