REMARK VINA RESULT:      -7.6      0.000      0.000
REMARK  Name = CHEMBL250382
REMARK  18 active torsions:
REMARK  status: ('A' for Active; 'I' for Inactive)
REMARK    1  A    between atoms: C1_1  and  C2_2
REMARK    2  A    between atoms: C2_2  and  C3_3
REMARK    3  A    between atoms: C3_3  and  C4_4
REMARK    4  A    between atoms: C4_4  and  N1_5
REMARK    5  A    between atoms: C5_6  and  C6_8
REMARK    6  A    between atoms: C7_9  and  C21_33
REMARK    7  A    between atoms: C8_10  and  O2_20
REMARK    8  A    between atoms: N2_11  and  C9_13
REMARK    9  A    between atoms: O2_20  and  C15_21
REMARK   10  A    between atoms: C15_21  and  C16_22
REMARK   11  A    between atoms: C16_22  and  C17_24
REMARK   12  A    between atoms: C16_22  and  O6_32
REMARK   13  A    between atoms: C17_24  and  C18_25
REMARK   14  A    between atoms: C18_25  and  C19_27
REMARK   15  A    between atoms: C18_25  and  O5_31
REMARK   16  A    between atoms: C19_27  and  C20_28
REMARK   17  A    between atoms: C21_33  and  C22_34
REMARK   18  A    between atoms: C21_33  and  C23_35
REMARK                            x       y       z     vdW  Elec       q    Type
REMARK                         _______ _______ _______ _____ _____    ______ ____
ROOT
ATOM      1  C6  <0> A   1     -16.300   7.293  46.729  0.00  0.00    +0.043 C 
ATOM      2  C7  <0> A   1     -15.387   6.711  45.824  0.00  0.00    -0.159 C 
ATOM      3  C8  <0> A   1     -14.428   7.630  45.554  0.00  0.00    +0.259 C 
ATOM      4  N2  <0> A   1     -14.719   8.756  46.262  0.00  0.00    -0.319 N 
ATOM      5  N3  <0> A   1     -15.896   8.523  46.984  0.00  0.00    -0.238 NA
ENDROOT
BRANCH   4   6
ATOM      6  C9  <0> A   1     -13.973   9.943  46.263  0.00  0.00    +0.127 A 
ATOM      7  C10 <0> A   1     -13.002  10.154  47.232  0.00  0.00    +0.066 A 
ATOM      8  C11 <0> A   1     -12.269  11.323  47.231  0.00  0.00    +0.008 A 
ATOM      9  C12 <0> A   1     -12.501  12.286  46.262  0.00  0.00    +0.107 A 
ATOM     10  C13 <0> A   1     -13.469  12.078  45.294  0.00  0.00    +0.018 A 
ATOM     11  C14 <0> A   1     -14.201  10.907  45.289  0.00  0.00    +0.066 A 
ATOM     12  F1  <0> A   1     -11.782  13.430  46.263  0.00  0.00    -0.132 F 
ENDBRANCH   4   6
BRANCH   1  14
ATOM     13  N1  <0> A   1     -17.412   5.931  48.430  0.00  0.00    -0.718 N 
ATOM     14  C5  <0> A   1     -17.501   6.641  47.289  0.00  0.00    +0.604 C 
ATOM     15  O1  <0> A   1     -18.571   6.746  46.720  0.00  0.00    -0.515 OA
ATOM     16  H12 <0> A   1     -16.560   5.846  48.885  0.00  0.00    +0.407 HD
BRANCH  13  17
ATOM     17  C4  <0> A   1     -18.604   5.284  48.986  0.00  0.00    +0.261 C 
BRANCH  17  18
ATOM     18  C3  <0> A   1     -18.248   4.611  50.312  0.00  0.00    +0.007 C 
BRANCH  18  20
ATOM     19  C1  <0> A   1     -20.160   3.009  50.468  0.00  0.00    +0.012 C 
ATOM     20  C2  <0> A   1     -18.649   3.135  50.259  0.00  0.00    +0.010 C 
ENDBRANCH  18  20
ENDBRANCH  17  18
ENDBRANCH  13  17
ENDBRANCH   1  14
BRANCH   2  21
ATOM     21  C21 <0> A   1     -15.465   5.316  45.259  0.00  0.00    +0.078 C 
ATOM     22  C22 <0> A   1     -15.863   5.385  43.782  0.00  0.00    +0.021 C 
ATOM     23  C23 <0> A   1     -14.100   4.637  45.389  0.00  0.00    +0.029 C 
ENDBRANCH   2  21
BRANCH   3  24
ATOM     24  O2  <0> A   1     -13.366   7.457  44.727  0.00  0.00    -0.283 OA
BRANCH  24  25
ATOM     25  C15 <0> A   1     -13.517   7.900  43.376  0.00  0.00    +0.154 C 
BRANCH  25  26
ATOM     26  C16 <0> A   1     -12.315   7.439  42.550  0.00  0.00    +0.230 C 
BRANCH  26  27
ATOM     27  O6  <0> A   1     -12.281   6.010  42.515  0.00  0.00    -0.527 OA
ATOM     28  H24 <0> A   1     -12.990   5.613  41.992  0.00  0.00    +0.365 HD
ENDBRANCH  26  27
BRANCH  26  29
ATOM     29  C17 <0> A   1     -12.437   7.980  41.124  0.00  0.00    -0.041 C 
BRANCH  29  30
ATOM     30  C18 <0> A   1     -12.932   9.428  41.169  0.00  0.00    +0.236 C 
BRANCH  30  31
ATOM     31  O5  <0> A   1     -11.812  10.311  41.265  0.00  0.00    -0.526 OA
ATOM     32  H23 <0> A   1     -11.560  10.529  42.172  0.00  0.00    +0.351 HD
ENDBRANCH  30  31
BRANCH  30  33
ATOM     33  C19 <0> A   1     -13.716   9.738  39.892  0.00  0.00    -0.101 C 
BRANCH  33  34
ATOM     34  C20 <0> A   1     -13.656  11.218  39.613  0.00  0.00    +0.491 C 
ATOM     35  O3  <0> A   1     -14.413  11.978  40.192  0.00  0.00    -0.680 OA
ATOM     36  O4  <0> A   1     -12.851  11.654  38.807  0.00  0.00    -0.712 OA
ENDBRANCH  33  34
ENDBRANCH  30  33
ENDBRANCH  29  30
ENDBRANCH  26  29
ENDBRANCH  25  26
ENDBRANCH  24  25
ENDBRANCH   3  24
TORSDOF 15
