REMARK VINA RESULT:      -7.6     18.024     19.675
REMARK  Name = CHEMBL11891
REMARK  11 active torsions:
REMARK  status: ('A' for Active; 'I' for Inactive)
REMARK    1  A    between atoms: C6_6  and  C7_7
REMARK    2  A    between atoms: C7_7  and  C17_27
REMARK    3  A    between atoms: C8_8  and  C9_9
REMARK    4  A    between atoms: C8_8  and  N1_22
REMARK    5  A    between atoms: C10_10  and  C11_11
REMARK    6  A    between atoms: C11_11  and  C12_13
REMARK    7  A    between atoms: C11_11  and  O4_21
REMARK    8  A    between atoms: C12_13  and  C13_14
REMARK    9  A    between atoms: C13_14  and  C14_16
REMARK   10  A    between atoms: C13_14  and  O3_20
REMARK   11  A    between atoms: C14_16  and  C15_17
REMARK                            x       y       z     vdW  Elec       q    Type
REMARK                         _______ _______ _______ _____ _____    ______ ____
ROOT
ATOM      1  C7  <0> A   1     -27.590  -1.941  51.236  0.00  0.00    -0.013 C 
ATOM      2  C8  <0> A   1     -26.397  -2.276  51.809  0.00  0.00    +0.158 C 
ENDROOT
BRANCH   1   8
ATOM      3  C1  <0> A   1     -29.418  -3.629  51.108  0.00  0.00    +0.071 A 
ATOM      4  C2  <0> A   1     -30.135  -4.574  50.405  0.00  0.00    -0.011 A 
ATOM      5  C3  <0> A   1     -29.810  -4.857  49.088  0.00  0.00    +0.111 A 
ATOM      6  C4  <0> A   1     -28.763  -4.192  48.469  0.00  0.00    -0.005 A 
ATOM      7  C5  <0> A   1     -28.039  -3.245  49.162  0.00  0.00    +0.067 A 
ATOM      8  C6  <0> A   1     -28.363  -2.955  50.489  0.00  0.00    -0.058 A 
ATOM      9  F2  <0> A   1     -30.515  -5.785  48.405  0.00  0.00    -0.136 F 
ENDBRANCH   1   8
BRANCH   1  10
ATOM     10  C17 <0> A   1     -28.110  -0.564  51.365  0.00  0.00    -0.080 A 
ATOM     11  C18 <0> A   1     -27.673   0.435  50.491  0.00  0.00    +0.060 A 
ATOM     12  C19 <0> A   1     -28.162   1.718  50.616  0.00  0.00    -0.008 A 
ATOM     13  C20 <0> A   1     -29.084   2.019  51.606  0.00  0.00    +0.112 A 
ATOM     14  C21 <0> A   1     -29.520   1.032  52.476  0.00  0.00    -0.007 A 
ATOM     15  C22 <0> A   1     -29.044  -0.256  52.357  0.00  0.00    +0.072 A 
ATOM     16  F1  <0> A   1     -29.559   3.278  51.723  0.00  0.00    -0.135 F 
ENDBRANCH   1  10
BRANCH   2  17
ATOM     17  N1  <0> A   1     -25.667  -1.317  52.515  0.00  0.00    -0.332 N 
ATOM     18  C16 <0> A   1     -25.732  -1.047  53.839  0.00  0.00    +0.468 C 
ATOM     19  N2  <0> A   1     -24.883  -0.081  54.079  0.00  0.00    -0.329 NA
ATOM     20  N3  <0> A   1     -24.288   0.278  53.000  0.00  0.00    -0.035 NA
ATOM     21  N4  <0> A   1     -24.704  -0.429  52.005  0.00  0.00    -0.068 NA
ENDBRANCH   2  17
BRANCH   2  22
ATOM     22  C9  <0> A   1     -25.881  -3.643  51.681  0.00  0.00    +0.005 C 
ATOM     23  C10 <0> A   1     -24.817  -3.885  50.917  0.00  0.00    -0.010 C 
BRANCH  23  24
ATOM     24  C11 <0> A   1     -24.355  -5.302  50.693  0.00  0.00    +0.254 C 
BRANCH  24  25
ATOM     25  O4  <0> A   1     -23.593  -5.738  51.820  0.00  0.00    -0.533 OA
ATOM     26  H14 <0> A   1     -22.837  -6.297  51.592  0.00  0.00    +0.365 HD
ENDBRANCH  24  25
BRANCH  24  27
ATOM     27  C12 <0> A   1     -25.571  -6.213  50.515  0.00  0.00    -0.039 C 
BRANCH  27  28
ATOM     28  C13 <0> A   1     -25.197  -7.393  49.616  0.00  0.00    +0.233 C 
BRANCH  28  29
ATOM     29  O3  <0> A   1     -23.903  -7.173  49.054  0.00  0.00    -0.527 OA
ATOM     30  H13 <0> A   1     -23.370  -7.976  48.965  0.00  0.00    +0.350 HD
ENDBRANCH  28  29
BRANCH  28  31
ATOM     31  C14 <0> A   1     -25.183  -8.680  50.443  0.00  0.00    -0.101 C 
BRANCH  31  32
ATOM     32  C15 <0> A   1     -23.758  -9.120  50.662  0.00  0.00    +0.491 C 
ATOM     33  O1  <0> A   1     -23.256  -9.948  49.921  0.00  0.00    -0.681 OA
ATOM     34  O2  <0> A   1     -23.108  -8.649  51.579  0.00  0.00    -0.712 OA
ENDBRANCH  31  32
ENDBRANCH  28  31
ENDBRANCH  27  28
ENDBRANCH  24  27
ENDBRANCH  23  24
ENDBRANCH   2  22
TORSDOF 11
