REMARK VINA RESULT:      -6.8     10.447     12.331
REMARK  Name = CHEMBL107753
REMARK  6 active torsions:
REMARK  status: ('A' for Active; 'I' for Inactive)
REMARK    1  A    between atoms: C1_1  and  C2_2
REMARK    2  A    between atoms: C5_5  and  C13_19
REMARK    3  A    between atoms: N1_6  and  C6_7
REMARK    4  A    between atoms: C6_7  and  C7_8
REMARK    5  A    between atoms: C7_8  and  C8_9
REMARK    6  A    between atoms: C10_12  and  O3_18
REMARK                            x       y       z     vdW  Elec       q    Type
REMARK                         _______ _______ _______ _____ _____    ______ ____
ROOT
ATOM      1  C1  <0> A   1     -12.681   9.280  39.229  0.00  0.00    +0.123 C 
ATOM      2  C2  <0> A   1     -13.030   9.967  40.524  0.00  0.00    +0.015 C 
ATOM      3  C3  <0> A   1     -13.466  11.237  40.653  0.00  0.00    -0.066 C 
ATOM      4  C4  <0> A   1     -13.674  11.474  42.026  0.00  0.00    -0.059 C 
ATOM      5  C5  <0> A   1     -13.357  10.340  42.685  0.00  0.00    +0.021 C 
ATOM      6  N1  <0> A   1     -12.967   9.410  41.767  0.00  0.00    -0.440 N 
ENDROOT
BRANCH   5   7
ATOM      7  C13 <0> A   1     -13.427  10.136  44.176  0.00  0.00    +0.056 C 
ATOM      8  C14 <0> A   1     -14.294  11.231  44.800  0.00  0.00    +0.016 C 
ATOM      9  C15 <0> A   1     -14.365  11.024  46.314  0.00  0.00    +0.004 C 
ATOM     10  C16 <0> A   1     -12.956  11.091  46.905  0.00  0.00    +0.003 C 
ATOM     11  C17 <0> A   1     -12.088   9.995  46.281  0.00  0.00    +0.005 C 
ATOM     12  C18 <0> A   1     -12.018  10.203  44.766  0.00  0.00    +0.027 C 
ENDBRANCH   5   7
BRANCH   6  13
ATOM     13  C6  <0> A   1     -12.545   8.040  42.067  0.00  0.00    +0.288 C 
BRANCH  13  14
ATOM     14  C7  <0> A   1     -13.717   7.083  41.846  0.00  0.00    +0.049 C 
BRANCH  14  15
ATOM     15  C8  <0> A   1     -14.464   6.877  43.165  0.00  0.00    +0.202 C 
ATOM     16  C9  <0> A   1     -13.476   6.441  44.250  0.00  0.00    +0.045 C 
ATOM     17  C10 <0> A   1     -14.233   6.196  45.559  0.00  0.00    +0.186 C 
ATOM     18  C11 <0> A   1     -15.285   5.103  45.326  0.00  0.00    +0.024 C 
ATOM     19  C12 <0> A   1     -16.111   5.488  44.119  0.00  0.00    +0.497 C 
ATOM     20  O1  <0> A   1     -17.318   5.460  44.156  0.00  0.00    -0.450 OA
ATOM     21  O2  <0> A   1     -15.461   5.863  42.998  0.00  0.00    -0.370 OA
BRANCH  17  22
ATOM     22  O3  <0> A   1     -14.879   7.403  45.972  0.00  0.00    -0.564 OA
ATOM     23  H16 <0> A   1     -14.761   8.142  45.360  0.00  0.00    +0.388 HD
ENDBRANCH  17  22
ENDBRANCH  14  15
ENDBRANCH  13  14
ENDBRANCH   6  13
TORSDOF 5
