REMARK VINA RESULT:      -7.1      2.796      4.765
REMARK  Name = CHEMBL154868
REMARK  13 active torsions:
REMARK  status: ('A' for Active; 'I' for Inactive)
REMARK    1  A    between atoms: C1_1  and  C2_2
REMARK    2  A    between atoms: C2_2  and  C3_3
REMARK    3  A    between atoms: C2_2  and  C4_4
REMARK    4  A    between atoms: C5_5  and  C19_21
REMARK    5  A    between atoms: C6_6  and  C13_14
REMARK    6  A    between atoms: C7_7  and  C8_9
REMARK    7  A    between atoms: C20_22  and  C21_23
REMARK    8  A    between atoms: C21_23  and  C22_25
REMARK    9  A    between atoms: C21_23  and  O4_33
REMARK   10  A    between atoms: C22_25  and  C23_26
REMARK   11  A    between atoms: C23_26  and  C24_28
REMARK   12  A    between atoms: C23_26  and  O3_32
REMARK   13  A    between atoms: C24_28  and  C25_29
REMARK                            x       y       z     vdW  Elec       q    Type
REMARK                         _______ _______ _______ _____ _____    ______ ____
ROOT
ATOM      1  C4  <0> A   1     -15.216  10.590  47.553  0.00  0.00    -0.126 C 
ATOM      2  C5  <0> A   1     -14.804   9.508  46.829  0.00  0.00    -0.075 C 
ATOM      3  C6  <0> A   1     -15.471   8.248  47.068  0.00  0.00    -0.076 C 
ATOM      4  C7  <0> A   1     -16.466   8.223  47.998  0.00  0.00    -0.120 C 
ATOM      5  S1  <0> A   1     -16.511   9.910  48.573  0.00  0.00    +0.041 S 
ENDROOT
BRANCH   3   6
ATOM      6  C13 <0> A   1     -15.086   7.024  46.325  0.00  0.00    -0.031 A 
ATOM      7  C14 <0> A   1     -14.108   6.173  46.837  0.00  0.00    +0.053 A 
ATOM      8  C15 <0> A   1     -13.753   5.036  46.142  0.00  0.00    -0.015 A 
ATOM      9  C16 <0> A   1     -14.367   4.739  44.936  0.00  0.00    +0.099 A 
ATOM     10  C17 <0> A   1     -15.339   5.582  44.421  0.00  0.00    -0.011 A 
ATOM     11  C18 <0> A   1     -15.705   6.718  45.114  0.00  0.00    +0.058 A 
ATOM     12  F1  <0> A   1     -14.016   3.624  44.257  0.00  0.00    -0.140 F 
ENDBRANCH   3   6
BRANCH   4  13
ATOM     13  C8  <0> A   1     -17.313   7.057  48.438  0.00  0.00    +0.084 C 
ATOM     14  C9  <0> A   1     -18.516   6.890  47.486  0.00  0.00    +0.022 C 
ATOM     15  C10 <0> A   1     -19.679   6.463  48.416  0.00  0.00    +0.012 C 
ATOM     16  C11 <0> A   1     -19.428   7.310  49.688  0.00  0.00    +0.008 C 
ATOM     17  C12 <0> A   1     -17.892   7.323  49.837  0.00  0.00    +0.019 C 
ENDBRANCH   4  13
BRANCH   1  19
ATOM     18  C1  <0> A   1     -15.846  12.976  47.802  0.00  0.00    +0.035 C 
ATOM     19  C2  <0> A   1     -14.701  12.005  47.506  0.00  0.00    +0.081 C 
ATOM     20  C3  <0> A   1     -13.599  12.182  48.553  0.00  0.00    +0.033 C 
ENDBRANCH   1  19
BRANCH   2  21
ATOM     21  C19 <0> A   1     -13.716   9.621  45.837  0.00  0.00    +0.023 C 
ATOM     22  C20 <0> A   1     -13.942  10.208  44.669  0.00  0.00    -0.055 C 
BRANCH  22  23
ATOM     23  C21 <0> A   1     -12.833  10.325  43.657  0.00  0.00    +0.250 C 
BRANCH  23  24
ATOM     24  O4  <0> A   1     -11.572  10.168  44.312  0.00  0.00    -0.538 OA
ATOM     25  H30 <0> A   1     -11.479   9.333  44.791  0.00  0.00    +0.365 HD
ENDBRANCH  23  24
BRANCH  23  26
ATOM     26  C22 <0> A   1     -12.995   9.234  42.596  0.00  0.00    -0.043 C 
BRANCH  26  27
ATOM     27  C23 <0> A   1     -12.745   9.831  41.209  0.00  0.00    +0.231 C 
BRANCH  27  28
ATOM     28  O3  <0> A   1     -13.331   8.988  40.215  0.00  0.00    -0.528 OA
ATOM     29  H29 <0> A   1     -13.493   9.431  39.370  0.00  0.00    +0.350 HD
ENDBRANCH  27  28
BRANCH  27  30
ATOM     30  C24 <0> A   1     -13.374  11.224  41.132  0.00  0.00    -0.102 C 
BRANCH  30  31
ATOM     31  C25 <0> A   1     -14.049  11.397  39.796  0.00  0.00    +0.491 C 
ATOM     32  O1  <0> A   1     -13.408  11.791  38.836  0.00  0.00    -0.681 OA
ATOM     33  O2  <0> A   1     -15.235  11.144  39.675  0.00  0.00    -0.713 OA
ENDBRANCH  30  31
ENDBRANCH  27  30
ENDBRANCH  26  27
ENDBRANCH  23  26
ENDBRANCH  22  23
ENDBRANCH   2  21
TORSDOF 11
