REMARK VINA RESULT:      -7.4      2.200      9.595
REMARK  Name = CHEMBL487278
REMARK  17 active torsions:
REMARK  status: ('A' for Active; 'I' for Inactive)
REMARK    1  A    between atoms: C1_1  and  C2_2
REMARK    2  A    between atoms: C2_2  and  C3_3
REMARK    3  A    between atoms: C2_2  and  C4_4
REMARK    4  A    between atoms: C5_5  and  C19_26
REMARK    5  A    between atoms: N1_8  and  C8_9
REMARK    6  A    between atoms: C8_9  and  C9_10
REMARK    7  A    between atoms: C9_10  and  C10_11
REMARK    8  A    between atoms: C10_11  and  C11_13
REMARK    9  A    between atoms: C10_11  and  O4_21
REMARK   10  A    between atoms: C11_13  and  C12_14
REMARK   11  A    between atoms: C12_14  and  C13_16
REMARK   12  A    between atoms: C12_14  and  O3_20
REMARK   13  A    between atoms: C13_16  and  C14_17
REMARK   14  A    between atoms: N2_28  and  C20_29
REMARK   15  A    between atoms: C20_29  and  C21_31
REMARK   16  A    between atoms: C20_29  and  C22_33
REMARK   17  A    between atoms: C21_31  and  O6_32
REMARK                            x       y       z     vdW  Elec       q    Type
REMARK                         _______ _______ _______ _____ _____    ______ ____
ROOT
ATOM      1  C4  <0> A   1     -14.887   8.243  46.733  0.00  0.00    +0.085 C 
ATOM      2  C5  <0> A   1     -14.211   7.945  45.579  0.00  0.00    -0.220 C 
ATOM      3  C6  <0> A   1     -14.527   6.552  45.281  0.00  0.00    -0.129 C 
ATOM      4  C7  <0> A   1     -15.354   6.123  46.256  0.00  0.00    +0.019 C 
ATOM      5  N1  <0> A   1     -15.561   7.145  47.130  0.00  0.00    -0.424 N 
ATOM      6  C15 <0> A   1     -15.924   4.726  46.318  0.00  0.00    +0.100 C 
ATOM      7  C16 <0> A   1     -15.760   4.074  44.940  0.00  0.00    +0.024 C 
ATOM      8  C17 <0> A   1     -14.314   4.237  44.463  0.00  0.00    +0.012 C 
ATOM      9  C18 <0> A   1     -14.051   5.710  44.127  0.00  0.00    +0.089 C 
ENDROOT
BRANCH   2  10
ATOM     10  C19 <0> A   1     -13.343   8.844  44.800  0.00  0.00    +0.609 C 
ATOM     11  O5  <0> A   1     -12.208   9.069  45.175  0.00  0.00    -0.541 OA
ATOM     12  N2  <0> A   1     -13.807   9.417  43.672  0.00  0.00    -0.713 N 
ATOM     13  H29 <0> A   1     -14.712   9.238  43.374  0.00  0.00    +0.404 HD
BRANCH  12  14
ATOM     14  C20 <0> A   1     -12.944  10.312  42.897  0.00  0.00    +0.296 C 
BRANCH  14  15
ATOM     15  C22 <0> A   1     -12.806   9.785  41.492  0.00  0.00    -0.088 A 
ATOM     16  C23 <0> A   1     -12.724   8.423  41.270  0.00  0.00    +0.037 A 
ATOM     17  C24 <0> A   1     -12.598   7.939  39.981  0.00  0.00    +0.001 A 
ATOM     18  C25 <0> A   1     -12.555   8.818  38.915  0.00  0.00    +0.002 A 
ATOM     19  C26 <0> A   1     -12.639  10.180  39.136  0.00  0.00    -0.000 A 
ATOM     20  C27 <0> A   1     -12.769  10.663  40.425  0.00  0.00    +0.011 A 
ENDBRANCH  14  15
BRANCH  14  21
ATOM     21  C21 <0> A   1     -13.563  11.711  42.859  0.00  0.00    +0.178 C 
BRANCH  21  22
ATOM     22  O6  <0> A   1     -12.976  12.521  43.879  0.00  0.00    -0.562 OA
ATOM     23  H32 <0> A   1     -13.166  13.465  43.791  0.00  0.00    +0.378 HD
ENDBRANCH  21  22
ENDBRANCH  14  21
ENDBRANCH  12  14
ENDBRANCH   2  10
BRANCH   1  25
ATOM     24  C1  <0> A   1     -13.480   9.827  48.023  0.00  0.00    +0.035 C 
ATOM     25  C2  <0> A   1     -14.873   9.573  47.442  0.00  0.00    +0.045 C 
ATOM     26  C3  <0> A   1     -15.223  10.684  46.450  0.00  0.00    +0.039 C 
ENDBRANCH   1  25
BRANCH   5  27
ATOM     27  C8  <0> A   1     -16.399   7.065  48.329  0.00  0.00    +0.290 C 
BRANCH  27  28
ATOM     28  C9  <0> A   1     -17.844   7.411  47.965  0.00  0.00    -0.017 C 
BRANCH  28  29
ATOM     29  C10 <0> A   1     -18.799   6.552  48.797  0.00  0.00    +0.216 C 
BRANCH  29  30
ATOM     30  O4  <0> A   1     -18.211   5.271  49.026  0.00  0.00    -0.541 OA
ATOM     31  H20 <0> A   1     -18.720   4.706  49.624  0.00  0.00    +0.366 HD
ENDBRANCH  29  30
BRANCH  29  32
ATOM     32  C11 <0> A   1     -19.065   7.239  50.139  0.00  0.00    -0.048 C 
BRANCH  32  33
ATOM     33  C12 <0> A   1     -20.451   7.886  50.115  0.00  0.00    +0.231 C 
BRANCH  33  34
ATOM     34  O3  <0> A   1     -21.378   7.053  50.814  0.00  0.00    -0.528 OA
ATOM     35  H19 <0> A   1     -21.632   6.255  50.329  0.00  0.00    +0.350 HD
ENDBRANCH  33  34
BRANCH  33  36
ATOM     36  C13 <0> A   1     -20.386   9.256  50.793  0.00  0.00    -0.102 C 
BRANCH  36  37
ATOM     37  C14 <0> A   1     -21.733   9.924  50.705  0.00  0.00    +0.490 C 
ATOM     38  O1  <0> A   1     -22.075  10.722  51.562  0.00  0.00    -0.681 OA
ATOM     39  O2  <0> A   1     -22.482   9.668  49.777  0.00  0.00    -0.713 OA
ENDBRANCH  36  37
ENDBRANCH  33  36
ENDBRANCH  32  33
ENDBRANCH  29  32
ENDBRANCH  28  29
ENDBRANCH  27  28
ENDBRANCH   5  27
TORSDOF 15
