REMARK VINA RESULT:      -8.4     16.295     19.677
REMARK  Name = CHEMBL124769
REMARK  12 active torsions:
REMARK  status: ('A' for Active; 'I' for Inactive)
REMARK    1  A    between atoms: C4_4  and  C7_7
REMARK    2  A    between atoms: C8_8  and  C9_9
REMARK    3  A    between atoms: C9_9  and  C10_10
REMARK    4  A    between atoms: N2_17  and  C24_32
REMARK    5  A    between atoms: C16_18  and  C17_19
REMARK    6  A    between atoms: C18_20  and  C19_21
REMARK    7  A    between atoms: C19_21  and  C20_23
REMARK    8  A    between atoms: C19_21  and  O4_31
REMARK    9  A    between atoms: C20_23  and  C21_24
REMARK   10  A    between atoms: C21_24  and  C22_26
REMARK   11  A    between atoms: C21_24  and  O3_30
REMARK   12  A    between atoms: C22_26  and  C23_27
REMARK                            x       y       z     vdW  Elec       q    Type
REMARK                         _______ _______ _______ _____ _____    ______ ____
ROOT
ATOM      1  C10 <0> A   1     -16.307   5.960  46.718  0.00  0.00    +0.091 C 
ATOM      2  C11 <0> A   1     -15.982   4.543  46.230  0.00  0.00    +0.030 C 
ATOM      3  C12 <0> A   1     -15.808   4.547  44.709  0.00  0.00    +0.017 C 
ATOM      4  C13 <0> A   1     -14.495   5.250  44.341  0.00  0.00    +0.105 C 
ATOM      5  C14 <0> A   1     -14.456   6.578  45.056  0.00  0.00    -0.212 C 
ATOM      6  C15 <0> A   1     -15.282   6.905  46.139  0.00  0.00    +0.096 C 
ATOM      7  N1  <0> A   1     -15.003   8.120  46.523  0.00  0.00    -0.279 NA
ATOM      8  N2  <0> A   1     -13.983   8.628  45.706  0.00  0.00    -0.328 N 
ATOM      9  C16 <0> A   1     -13.651   7.658  44.797  0.00  0.00    +0.127 C 
ENDROOT
BRANCH   8  10
ATOM     10  C24 <0> A   1     -13.406   9.901  45.801  0.00  0.00    +0.148 A 
ATOM     11  C25 <0> A   1     -13.955  10.967  45.101  0.00  0.00    +0.049 A 
ATOM     12  C26 <0> A   1     -13.384  12.222  45.195  0.00  0.00    +0.018 A 
ATOM     13  C27 <0> A   1     -12.266  12.417  45.986  0.00  0.00    +0.098 A 
ATOM     14  C28 <0> A   1     -11.716  11.355  46.685  0.00  0.00    +0.008 A 
ATOM     15  C29 <0> A   1     -12.286  10.100  46.598  0.00  0.00    +0.054 A 
ATOM     16  F1  <0> A   1     -11.709  13.644  46.078  0.00  0.00    -0.134 F 
ENDBRANCH   8  10
BRANCH   9  17
ATOM     17  C17 <0> A   1     -12.627   7.757  43.744  0.00  0.00    +0.027 C 
ATOM     18  C18 <0> A   1     -12.990   7.951  42.480  0.00  0.00    -0.027 C 
BRANCH  18  19
ATOM     19  C19 <0> A   1     -11.942   8.052  41.403  0.00  0.00    +0.255 C 
BRANCH  19  20
ATOM     20  O4  <0> A   1     -10.898   7.112  41.664  0.00  0.00    -0.536 OA
ATOM     21  H26 <0> A   1     -10.365   7.324  42.443  0.00  0.00    +0.368 HD
ENDBRANCH  19  20
BRANCH  19  22
ATOM     22  C20 <0> A   1     -12.576   7.745  40.044  0.00  0.00    -0.040 C 
BRANCH  22  23
ATOM     23  C21 <0> A   1     -12.562   9.006  39.178  0.00  0.00    +0.232 C 
BRANCH  23  24
ATOM     24  O3  <0> A   1     -12.671   8.639  37.801  0.00  0.00    -0.528 OA
ATOM     25  H25 <0> A   1     -11.871   8.239  37.435  0.00  0.00    +0.351 HD
ENDBRANCH  23  24
BRANCH  23  26
ATOM     26  C22 <0> A   1     -13.741   9.902  39.562  0.00  0.00    -0.101 C 
BRANCH  26  27
ATOM     27  C23 <0> A   1     -13.272  11.330  39.673  0.00  0.00    +0.491 C 
ATOM     28  O1  <0> A   1     -13.483  12.113  38.763  0.00  0.00    -0.681 OA
ATOM     29  O2  <0> A   1     -12.684  11.703  40.673  0.00  0.00    -0.712 OA
ENDBRANCH  26  27
ENDBRANCH  23  26
ENDBRANCH  22  23
ENDBRANCH  19  22
ENDBRANCH  18  19
ENDBRANCH   9  17
BRANCH   1  30
ATOM     30  C9  <0> A   1     -16.246   6.006  48.246  0.00  0.00    +0.069 C 
BRANCH  30  32
ATOM     31  C7  <0> A   1     -17.606   7.397  49.742  0.00  0.00    -0.024 C 
ATOM     32  C8  <0> A   1     -17.570   6.478  48.789  0.00  0.00    +0.004 C 
BRANCH  31  36
ATOM     33  C1  <0> A   1     -21.339   8.726  51.272  0.00  0.00    -0.006 A 
ATOM     34  C2  <0> A   1     -20.320   9.636  51.056  0.00  0.00    +0.001 A 
ATOM     35  C3  <0> A   1     -19.105   9.211  50.560  0.00  0.00    +0.006 A 
ATOM     36  C4  <0> A   1     -18.905   7.860  50.275  0.00  0.00    -0.048 A 
ATOM     37  C5  <0> A   1     -19.937   6.946  50.495  0.00  0.00    +0.010 A 
ATOM     38  C6  <0> A   1     -21.147   7.385  50.992  0.00  0.00    +0.004 A 
ENDBRANCH  31  36
ENDBRANCH  30  32
ENDBRANCH   1  30
TORSDOF 12
