REMARK  Name = CHEMBL85673
REMARK  13 active torsions:
REMARK  status: ('A' for Active; 'I' for Inactive)
REMARK    1  A    between atoms: C1_1  and  C2_2
REMARK    2  A    between atoms: C2_2  and  C3_3
REMARK    3  A    between atoms: C3_3  and  C4_4
REMARK    4  A    between atoms: C3_3  and  C5_5
REMARK    5  A    between atoms: C3_3  and  C6_6
REMARK    6  A    between atoms: C6_6  and  O2_8
REMARK    7  A    between atoms: O2_8  and  C7_9
REMARK    8  A    between atoms: C9_12  and  C25_35
REMARK    9  A    between atoms: C13_17  and  C18_24
REMARK   10  A    between atoms: C14_19  and  C17_23
REMARK   11  A    between atoms: C18_24  and  C19_25
REMARK   12  A    between atoms: C19_25  and  C20_26
REMARK   13  A    between atoms: C22_28  and  O5_34
REMARK                            x       y       z     vdW  Elec       q    Type
REMARK                         _______ _______ _______ _____ _____    ______ ____
ROOT
ATOM      1  C7  <0> A   1      -2.261  -2.816  -0.174  0.00  0.00    +0.177 C 
ATOM      2  C8  <0> A   1      -1.967  -2.860   1.327  0.00  0.00    +0.007 C 
ATOM      3  C9  <0> A   1      -1.561  -4.281   1.725  0.00  0.00    -0.016 C 
ATOM      4  C10 <0> A   1      -2.702  -5.247   1.400  0.00  0.00    +0.019 C 
ATOM      5  C11 <0> A   1      -2.996  -5.203  -0.101  0.00  0.00    -0.005 C 
ATOM      6  C12 <0> A   1      -3.402  -3.782  -0.499  0.00  0.00    +0.013 C 
ATOM      7  C13 <0> A   1      -3.697  -3.738  -1.999  0.00  0.00    +0.001 C 
ATOM      8  C14 <0> A   1      -4.838  -4.704  -2.324  0.00  0.00    -0.013 C 
ATOM      9  C15 <0> A   1      -4.432  -6.125  -1.926  0.00  0.00    +0.011 C 
ATOM     10  C16 <0> A   1      -4.137  -6.169  -0.425  0.00  0.00    +0.016 C 
ATOM     11  C17 <0> A   1      -5.132  -4.660  -3.825  0.00  0.00    +0.019 C 
ATOM     12  C25 <0> A   1      -1.266  -4.325   3.225  0.00  0.00    +0.021 C 
ENDROOT
BRANCH   1  13
ATOM     13  O2  <0> A   1      -2.640  -1.489  -0.546  0.00  0.00    -0.339 OA
BRANCH  13  14
ATOM     14  C6  <0> A   1      -1.657  -0.657  -0.922  0.00  0.00    +0.468 C 
ATOM     15  O1  <0> A   1      -0.511  -1.042  -0.934  0.00  0.00    -0.503 OA
BRANCH  14  16
ATOM     16  C3  <0> A   1      -1.980   0.758  -1.327  0.00  0.00    -0.052 C 
ATOM     17  C4  <0> A   1      -2.652   1.483  -0.159  0.00  0.00    +0.060 C 
ATOM     18  C5  <0> A   1      -2.928   0.740  -2.529  0.00  0.00    +0.061 C 
BRANCH  16  20
ATOM     19  C1  <0> A   1      -1.019   2.924  -2.119  0.00  0.00    +0.024 C 
ATOM     20  C2  <0> A   1      -0.690   1.488  -1.707  0.00  0.00    +0.036 C 
ENDBRANCH  16  20
ENDBRANCH  14  16
ENDBRANCH  13  14
ENDBRANCH   1  13
BRANCH   7  21
ATOM     21  C18 <0> A   1      -2.445  -4.147  -2.777  0.00  0.00    +0.018 C 
BRANCH  21  22
ATOM     22  C19 <0> A   1      -2.530  -3.603  -4.205  0.00  0.00    +0.046 C 
BRANCH  22  23
ATOM     23  C20 <0> A   1      -1.220  -3.891  -4.940  0.00  0.00    +0.191 C 
ATOM     24  C21 <0> A   1      -1.258  -3.243  -6.326  0.00  0.00    +0.039 C 
ATOM     25  C22 <0> A   1       0.038  -3.568  -7.075  0.00  0.00    +0.183 C 
ATOM     26  C23 <0> A   1       0.169  -5.091  -7.204  0.00  0.00    +0.020 C 
ATOM     27  C24 <0> A   1       0.001  -5.699  -5.828  0.00  0.00    +0.495 C 
ATOM     28  O3  <0> A   1       0.788  -6.515  -5.410  0.00  0.00    -0.454 OA
ATOM     29  O4  <0> A   1      -1.053  -5.306  -5.084  0.00  0.00    -0.366 OA
BRANCH  25  30
ATOM     30  O5  <0> A   1       1.154  -3.049  -6.348  0.00  0.00    -0.563 OA
ATOM     31  H39 <0> A   1       2.009  -3.219  -6.765  0.00  0.00    +0.386 HD
ENDBRANCH  25  30
ENDBRANCH  22  23
ENDBRANCH  21  22
ENDBRANCH   7  21
TORSDOF 8
