REMARK VINA RESULT:      -7.7     16.067     20.455
REMARK  Name = CHEMBL427854
REMARK  15 active torsions:
REMARK  status: ('A' for Active; 'I' for Inactive)
REMARK    1  A    between atoms: C1_1  and  C2_2
REMARK    2  A    between atoms: C2_2  and  N1_3
REMARK    3  A    between atoms: C3_4  and  C21_25
REMARK    4  A    between atoms: C4_5  and  C15_18
REMARK    5  A    between atoms: C5_6  and  C14_17
REMARK    6  A    between atoms: C6_7  and  C7_8
REMARK    7  A    between atoms: N2_10  and  C8_11
REMARK    8  A    between atoms: C21_25  and  C22_26
REMARK    9  A    between atoms: C22_26  and  C23_27
REMARK   10  A    between atoms: C23_27  and  C24_29
REMARK   11  A    between atoms: C23_27  and  O5_37
REMARK   12  A    between atoms: C24_29  and  C25_30
REMARK   13  A    between atoms: C25_30  and  C26_32
REMARK   14  A    between atoms: C25_30  and  O4_36
REMARK   15  A    between atoms: C26_32  and  C27_33
REMARK                            x       y       z     vdW  Elec       q    Type
REMARK                         _______ _______ _______ _____ _____    ______ ____
ROOT
ATOM      1  N1  <0> A   1     -25.539  -3.954  50.733  0.00  0.00    -0.407 N 
ATOM      2  C3  <0> A   1     -25.836  -5.270  50.724  0.00  0.00    +0.082 C 
ATOM      3  C4  <0> A   1     -27.185  -5.411  50.568  0.00  0.00    -0.141 C 
ATOM      4  C5  <0> A   1     -27.737  -4.118  50.479  0.00  0.00    -0.082 C 
ATOM      5  C6  <0> A   1     -26.702  -3.233  50.589  0.00  0.00    -0.059 C 
ATOM      6  C14 <0> A   1     -29.193  -3.777  50.300  0.00  0.00    +0.110 C 
ENDROOT
BRANCH   3   7
ATOM      7  C15 <0> A   1     -27.934  -6.692  50.503  0.00  0.00    -0.009 A 
ATOM      8  C16 <0> A   1     -28.389  -7.295  51.674  0.00  0.00    +0.050 A 
ATOM      9  C17 <0> A   1     -29.084  -8.485  51.610  0.00  0.00    -0.016 A 
ATOM     10  C18 <0> A   1     -29.331  -9.080  50.383  0.00  0.00    +0.094 A 
ATOM     11  C19 <0> A   1     -28.880  -8.484  49.216  0.00  0.00    -0.016 A 
ATOM     12  C20 <0> A   1     -28.189  -7.290  49.271  0.00  0.00    +0.053 A 
ATOM     13  F1  <0> A   1     -30.012 -10.244  50.325  0.00  0.00    -0.142 F 
ENDBRANCH   3   7
BRANCH   5  14
ATOM     14  C7  <0> A   1     -26.811  -1.770  50.557  0.00  0.00    +0.602 C 
ATOM     15  O1  <0> A   1     -26.634  -1.170  49.513  0.00  0.00    -0.498 OA
ATOM     16  N2  <0> A   1     -27.108  -1.092  51.683  0.00  0.00    -0.661 N 
ATOM     17  H8  <0> A   1     -27.123  -1.552  52.537  0.00  0.00    +0.415 HD
BRANCH  16  18
ATOM     18  C8  <0> A   1     -27.394   0.275  51.621  0.00  0.00    +0.144 A 
ATOM     19  C9  <0> A   1     -26.386   1.208  51.826  0.00  0.00    +0.017 A 
ATOM     20  C10 <0> A   1     -26.673   2.557  51.764  0.00  0.00    +0.026 A 
ATOM     21  C11 <0> A   1     -27.961   2.981  51.497  0.00  0.00    -0.019 A 
ATOM     22  C12 <0> A   1     -28.968   2.055  51.291  0.00  0.00    +0.026 A 
ATOM     23  C13 <0> A   1     -28.687   0.704  51.347  0.00  0.00    -0.027 A 
ENDBRANCH  16  18
ENDBRANCH   5  14
BRANCH   1  25
ATOM     24  C1  <0> A   1     -24.011  -2.879  52.312  0.00  0.00    +0.040 C 
ATOM     25  C2  <0> A   1     -24.196  -3.386  50.881  0.00  0.00    +0.280 C 
ENDBRANCH   1  25
BRANCH   2  26
ATOM     26  C21 <0> A   1     -24.844  -6.396  50.861  0.00  0.00    +0.117 C 
BRANCH  26  27
ATOM     27  C22 <0> A   1     -24.457  -6.906  49.472  0.00  0.00    -0.007 C 
BRANCH  27  28
ATOM     28  C23 <0> A   1     -24.464  -8.436  49.470  0.00  0.00    +0.212 C 
BRANCH  28  29
ATOM     29  O5  <0> A   1     -23.126  -8.919  49.326  0.00  0.00    -0.542 OA
ATOM     30  H30 <0> A   1     -23.036  -9.873  49.453  0.00  0.00    +0.363 HD
ENDBRANCH  28  29
BRANCH  28  31
ATOM     31  C24 <0> A   1     -25.049  -8.945  50.789  0.00  0.00    -0.051 C 
BRANCH  31  32
ATOM     32  C25 <0> A   1     -25.778 -10.268  50.547  0.00  0.00    +0.231 C 
BRANCH  32  33
ATOM     33  O4  <0> A   1     -26.043 -10.417  49.151  0.00  0.00    -0.528 OA
ATOM     34  H29 <0> A   1     -26.066 -11.336  48.851  0.00  0.00    +0.349 HD
ENDBRANCH  32  33
BRANCH  32  35
ATOM     35  C26 <0> A   1     -24.902 -11.428  51.026  0.00  0.00    -0.103 C 
BRANCH  35  36
ATOM     36  C27 <0> A   1     -24.483 -12.263  49.843  0.00  0.00    +0.490 C 
ATOM     37  O2  <0> A   1     -23.565 -11.895  49.131  0.00  0.00    -0.681 OA
ATOM     38  O3  <0> A   1     -25.063 -13.307  49.599  0.00  0.00    -0.713 OA
ENDBRANCH  35  36
ENDBRANCH  32  35
ENDBRANCH  31  32
ENDBRANCH  28  31
ENDBRANCH  27  28
ENDBRANCH  26  27
ENDBRANCH   2  26
TORSDOF 13
