REMARK VINA RESULT:      -7.2     10.245     13.056
REMARK  Name = CHEMBL318070
REMARK  16 active torsions:
REMARK  status: ('A' for Active; 'I' for Inactive)
REMARK    1  A    between atoms: C1_1  and  C2_2
REMARK    2  A    between atoms: C2_2  and  C3_3
REMARK    3  A    between atoms: C2_2  and  C4_4
REMARK    4  A    between atoms: C5_5  and  C19_21
REMARK    5  A    between atoms: C6_6  and  C13_14
REMARK    6  A    between atoms: C8_8  and  C9_10
REMARK    7  A    between atoms: C9_10  and  C10_11
REMARK    8  A    between atoms: C9_10  and  C11_12
REMARK    9  A    between atoms: C9_10  and  C12_13
REMARK   10  A    between atoms: C20_22  and  C21_23
REMARK   11  A    between atoms: C21_23  and  C22_24
REMARK   12  A    between atoms: C21_23  and  O4_32
REMARK   13  A    between atoms: C22_24  and  C23_25
REMARK   14  A    between atoms: C23_25  and  C24_27
REMARK   15  A    between atoms: C23_25  and  O3_31
REMARK   16  A    between atoms: C24_27  and  C25_28
REMARK                            x       y       z     vdW  Elec       q    Type
REMARK                         _______ _______ _______ _____ _____    ______ ____
ROOT
ATOM      1  C4  <0> A   1      -5.138   3.219  45.429  0.00  0.00    +0.153 A 
ATOM      2  C5  <0> A   1      -5.047   4.133  46.479  0.00  0.00    -0.088 A 
ATOM      3  C6  <0> A   1      -3.786   4.682  46.791  0.00  0.00    +0.006 A 
ATOM      4  C7  <0> A   1      -2.687   4.281  46.027  0.00  0.00    -0.026 A 
ATOM      5  C8  <0> A   1      -2.874   3.372  45.006  0.00  0.00    +0.142 A 
ATOM      6  N1  <0> A   1      -4.068   2.873  44.744  0.00  0.00    -0.469 NA
ENDROOT
BRANCH   3   7
ATOM      7  C13 <0> A   1      -3.633   5.656  47.896  0.00  0.00    -0.063 A 
ATOM      8  C14 <0> A   1      -3.446   7.009  47.616  0.00  0.00    +0.078 A 
ATOM      9  C15 <0> A   1      -3.304   7.912  48.649  0.00  0.00    -0.011 A 
ATOM     10  C16 <0> A   1      -3.345   7.476  49.963  0.00  0.00    +0.107 A 
ATOM     11  C17 <0> A   1      -3.529   6.133  50.248  0.00  0.00    -0.017 A 
ATOM     12  C18 <0> A   1      -3.679   5.223  49.222  0.00  0.00    +0.056 A 
ATOM     13  F1  <0> A   1      -3.203   8.364  50.972  0.00  0.00    -0.137 F 
ENDBRANCH   3   7
BRANCH   5  14
ATOM     14  C9  <0> A   1      -1.692   2.936  44.179  0.00  0.00    -0.018 C 
ATOM     15  C10 <0> A   1      -1.940   3.286  42.711  0.00  0.00    +0.039 C 
ATOM     16  C11 <0> A   1      -0.434   3.655  44.669  0.00  0.00    +0.045 C 
ATOM     17  C12 <0> A   1      -1.503   1.424  44.318  0.00  0.00    +0.037 C 
ENDBRANCH   5  14
BRANCH   1  19
ATOM     18  C1  <0> A   1      -7.303   3.641  44.294  0.00  0.00    +0.035 C 
ATOM     19  C2  <0> A   1      -6.475   2.619  45.077  0.00  0.00    +0.043 C 
ATOM     20  C3  <0> A   1      -6.263   1.369  44.220  0.00  0.00    +0.036 C 
ENDBRANCH   1  19
BRANCH   2  21
ATOM     21  C19 <0> A   1      -6.246   4.516  47.248  0.00  0.00    +0.003 C 
ATOM     22  C20 <0> A   1      -6.838   3.630  48.038  0.00  0.00    -0.038 C 
BRANCH  22  23
ATOM     23  C21 <0> A   1      -8.064   4.022  48.824  0.00  0.00    +0.250 C 
BRANCH  23  24
ATOM     24  O4  <0> A   1      -9.235   3.602  48.121  0.00  0.00    -0.537 OA
ATOM     25  H31 <0> A   1      -9.230   2.667  47.872  0.00  0.00    +0.366 HD
ENDBRANCH  23  24
BRANCH  23  26
ATOM     26  C22 <0> A   1      -8.025   3.348  50.199  0.00  0.00    -0.042 C 
BRANCH  26  27
ATOM     27  C23 <0> A   1      -6.660   3.590  50.846  0.00  0.00    +0.231 C 
BRANCH  27  28
ATOM     28  O3  <0> A   1      -6.645   4.881  51.458  0.00  0.00    -0.528 OA
ATOM     29  H30 <0> A   1      -6.873   5.604  50.858  0.00  0.00    +0.350 HD
ENDBRANCH  27  28
BRANCH  27  30
ATOM     30  C24 <0> A   1      -6.402   2.520  51.907  0.00  0.00    -0.102 C 
BRANCH  30  31
ATOM     31  C25 <0> A   1      -5.132   1.780  51.578  0.00  0.00    +0.491 C 
ATOM     32  O1  <0> A   1      -5.146   0.566  51.464  0.00  0.00    -0.681 OA
ATOM     33  O2  <0> A   1      -4.090   2.394  51.426  0.00  0.00    -0.713 OA
ENDBRANCH  30  31
ENDBRANCH  27  30
ENDBRANCH  26  27
ENDBRANCH  23  26
ENDBRANCH  22  23
ENDBRANCH   2  21
TORSDOF 11
