REMARK VINA RESULT:      -7.8      4.867      9.081
REMARK  Name = CHEMBL421614
REMARK  9 active torsions:
REMARK  status: ('A' for Active; 'I' for Inactive)
REMARK    1  A    between atoms: C1_1  and  C2_2
REMARK    2  A    between atoms: C2_2  and  C3_3
REMARK    3  A    between atoms: C2_2  and  C4_4
REMARK    4  A    between atoms: C5_5  and  C19_23
REMARK    5  A    between atoms: C6_6  and  C13_16
REMARK    6  A    between atoms: N1_7  and  C7_9
REMARK    7  A    between atoms: C19_23  and  C20_24
REMARK    8  A    between atoms: C20_24  and  C21_25
REMARK    9  A    between atoms: C23_28  and  O3_34
REMARK                            x       y       z     vdW  Elec       q    Type
REMARK                         _______ _______ _______ _____ _____    ______ ____
ROOT
ATOM      1  C4  <0> A   1     -20.979   1.501  52.437  0.00  0.00    +0.098 C 
ATOM      2  C5  <0> A   1     -22.147   0.904  51.962  0.00  0.00    -0.197 C 
ATOM      3  C6  <0> A   1     -22.143  -0.402  52.362  0.00  0.00    +0.128 C 
ATOM      4  N1  <0> A   1     -20.994  -0.606  53.072  0.00  0.00    -0.321 N 
ATOM      5  N2  <0> A   1     -20.288   0.604  53.094  0.00  0.00    -0.270 NA
ENDROOT
BRANCH   4   6
ATOM      6  C7  <0> A   1     -20.591  -1.809  53.667  0.00  0.00    +0.144 A 
ATOM      7  C8  <0> A   1     -21.040  -2.140  54.938  0.00  0.00    +0.044 A 
ATOM      8  C9  <0> A   1     -20.641  -3.325  55.523  0.00  0.00    +0.016 A 
ATOM      9  C10 <0> A   1     -19.795  -4.185  54.843  0.00  0.00    +0.100 A 
ATOM     10  C11 <0> A   1     -19.346  -3.856  53.575  0.00  0.00    +0.013 A 
ATOM     11  C12 <0> A   1     -19.747  -2.675  52.983  0.00  0.00    +0.063 A 
ATOM     12  F1  <0> A   1     -19.406  -5.344  55.417  0.00  0.00    -0.133 F 
ENDBRANCH   4   6
BRANCH   3  13
ATOM     13  C13 <0> A   1     -23.189  -1.409  52.082  0.00  0.00    -0.051 A 
ATOM     14  C14 <0> A   1     -23.066  -2.259  50.982  0.00  0.00    +0.086 A 
ATOM     15  C15 <0> A   1     -24.044  -3.198  50.726  0.00  0.00    -0.004 A 
ATOM     16  C16 <0> A   1     -25.148  -3.297  51.557  0.00  0.00    +0.114 A 
ATOM     17  C17 <0> A   1     -25.275  -2.455  52.651  0.00  0.00    -0.010 A 
ATOM     18  C18 <0> A   1     -24.300  -1.517  52.920  0.00  0.00    +0.062 A 
ATOM     19  F2  <0> A   1     -26.104  -4.216  51.302  0.00  0.00    -0.135 F 
ENDBRANCH   3  13
BRANCH   1  21
ATOM     20  C1  <0> A   1     -19.683   3.394  53.379  0.00  0.00    +0.036 C 
ATOM     21  C2  <0> A   1     -20.578   2.938  52.224  0.00  0.00    +0.075 C 
ATOM     22  C3  <0> A   1     -19.812   3.064  50.906  0.00  0.00    +0.037 C 
ENDBRANCH   1  21
BRANCH   2  23
ATOM     23  C19 <0> A   1     -23.222   1.580  51.149  0.00  0.00    +0.111 C 
BRANCH  23  24
ATOM     24  C20 <0> A   1     -24.216   2.264  52.088  0.00  0.00    +0.056 C 
BRANCH  24  25
ATOM     25  C21 <0> A   1     -25.599   1.633  51.913  0.00  0.00    +0.197 C 
ATOM     26  C22 <0> A   1     -26.663   2.734  51.882  0.00  0.00    +0.040 C 
ATOM     27  C23 <0> A   1     -28.042   2.102  51.666  0.00  0.00    +0.184 C 
ATOM     28  C24 <0> A   1     -28.033   1.334  50.337  0.00  0.00    +0.020 C 
ATOM     29  C25 <0> A   1     -26.843   0.399  50.338  0.00  0.00    +0.496 C 
ATOM     30  O1  <0> A   1     -26.967  -0.765  50.037  0.00  0.00    -0.453 OA
ATOM     31  O2  <0> A   1     -25.640   0.902  50.682  0.00  0.00    -0.366 OA
BRANCH  27  32
ATOM     32  O3  <0> A   1     -28.331   1.202  52.738  0.00  0.00    -0.563 OA
ATOM     33  H26 <0> A   1     -29.265   0.965  52.812  0.00  0.00    +0.386 HD
ENDBRANCH  27  32
ENDBRANCH  24  25
ENDBRANCH  23  24
ENDBRANCH   2  23
TORSDOF 7
