REMARK VINA RESULT:      -7.8     14.746     18.055
REMARK  Name = CHEMBL77486
REMARK  14 active torsions:
REMARK  status: ('A' for Active; 'I' for Inactive)
REMARK    1  A    between atoms: C1_1  and  C2_2
REMARK    2  A    between atoms: C2_2  and  C3_3
REMARK    3  A    between atoms: C3_3  and  C4_5
REMARK    4  A    between atoms: C3_3  and  C5_6
REMARK    5  A    between atoms: C5_6  and  O2_8
REMARK    6  A    between atoms: O2_8  and  C6_9
REMARK    7  A    between atoms: C8_12  and  C24_38
REMARK    8  A    between atoms: C12_19  and  C17_26
REMARK    9  A    between atoms: C13_21  and  C16_25
REMARK   10  A    between atoms: C17_26  and  C18_27
REMARK   11  A    between atoms: C18_27  and  C19_28
REMARK   12  A    between atoms: C21_31  and  O5_37
REMARK   13  A    between atoms: C25_39  and  C26_40
REMARK   14  A    between atoms: C26_40  and  C27_41
REMARK                            x       y       z     vdW  Elec       q    Type
REMARK                         _______ _______ _______ _____ _____    ______ ____
ROOT
ATOM      1  C6  <0> A   1     -26.465  -1.423  50.346  0.00  0.00    +0.183 C 
ATOM      2  C7  <0> A   1     -26.775  -0.080  49.677  0.00  0.00    +0.020 C 
ATOM      3  C8  <0> A   1     -27.262   0.926  50.721  0.00  0.00    +0.019 C 
ATOM      4  C9  <0> A   1     -26.195   1.115  51.805  0.00  0.00    +0.034 C 
ATOM      5  C10 <0> A   1     -25.920  -0.234  52.464  0.00  0.00    +0.039 C 
ATOM      6  C11 <0> A   1     -25.388  -1.210  51.407  0.00  0.00    +0.017 C 
ATOM      7  C12 <0> A   1     -25.026  -2.524  52.100  0.00  0.00    +0.004 C 
ATOM      8  C13 <0> A   1     -23.823  -2.266  53.013  0.00  0.00    +0.023 C 
ATOM      9  C14 <0> A   1     -24.026  -1.022  53.825  0.00  0.00    -0.050 C 
ATOM     10  C15 <0> A   1     -24.924  -0.120  53.575  0.00  0.00    -0.043 C 
ATOM     11  C16 <0> A   1     -22.566  -2.106  52.155  0.00  0.00    +0.027 C 
ENDROOT
BRANCH   3  12
ATOM     12  C24 <0> A   1     -28.531   0.416  51.354  0.00  0.00    -0.009 C 
ATOM     13  C25 <0> A   1     -29.450   1.260  51.751  0.00  0.00    -0.061 C 
BRANCH  13  14
ATOM     14  C26 <0> A   1     -30.662   0.759  52.495  0.00  0.00    +0.104 C 
BRANCH  14  15
ATOM     15  C27 <0> A   1     -31.771   1.772  52.390  0.00  0.00    -0.075 A 
ATOM     16  C28 <0> A   1     -33.013   1.392  51.919  0.00  0.00    +0.005 A 
ATOM     17  C29 <0> A   1     -34.032   2.322  51.823  0.00  0.00    +0.002 A 
ATOM     18  C30 <0> A   1     -33.807   3.633  52.197  0.00  0.00    -0.006 A 
ATOM     19  C31 <0> A   1     -32.565   4.015  52.669  0.00  0.00    +0.002 A 
ATOM     20  C32 <0> A   1     -31.549   3.083  52.770  0.00  0.00    +0.001 A 
ENDBRANCH  14  15
ENDBRANCH  13  14
ENDBRANCH   3  12
BRANCH   1  21
ATOM     21  O2  <0> A   1     -27.648  -1.936  50.961  0.00  0.00    -0.332 OA
BRANCH  21  22
ATOM     22  C5  <0> A   1     -28.244  -2.979  50.360  0.00  0.00    +0.460 C 
ATOM     23  O1  <0> A   1     -28.015  -3.218  49.198  0.00  0.00    -0.503 OA
BRANCH  22  24
ATOM     24  C3  <0> A   1     -29.199  -3.849  51.134  0.00  0.00    +0.022 C 
ATOM     25  C4  <0> A   1     -29.115  -5.287  50.616  0.00  0.00    +0.056 C 
BRANCH  24  27
ATOM     26  C1  <0> A   1     -29.903  -3.059  53.398  0.00  0.00    +0.022 C 
ATOM     27  C2  <0> A   1     -28.828  -3.819  52.618  0.00  0.00    +0.031 C 
ENDBRANCH  24  27
ENDBRANCH  22  24
ENDBRANCH  21  22
ENDBRANCH   1  21
BRANCH   7  28
ATOM     28  C17 <0> A   1     -24.664  -3.578  51.053  0.00  0.00    +0.019 C 
BRANCH  28  29
ATOM     29  C18 <0> A   1     -25.421  -4.874  51.350  0.00  0.00    +0.051 C 
BRANCH  29  30
ATOM     30  C19 <0> A   1     -24.636  -6.063  50.794  0.00  0.00    +0.193 C 
ATOM     31  C20 <0> A   1     -25.419  -6.699  49.643  0.00  0.00    +0.040 C 
ATOM     32  C21 <0> A   1     -24.649  -7.915  49.116  0.00  0.00    +0.183 C 
ATOM     33  C22 <0> A   1     -24.471  -8.923  50.259  0.00  0.00    +0.021 C 
ATOM     34  C23 <0> A   1     -23.875  -8.196  51.444  0.00  0.00    +0.496 C 
ATOM     35  O3  <0> A   1     -22.917  -8.643  52.030  0.00  0.00    -0.453 OA
ATOM     36  O4  <0> A   1     -24.442  -7.034  51.829  0.00  0.00    -0.367 OA
BRANCH  32  37
ATOM     37  O5  <0> A   1     -23.368  -7.500  48.637  0.00  0.00    -0.563 OA
ATOM     38  H35 <0> A   1     -22.911  -6.881  49.223  0.00  0.00    +0.386 HD
ENDBRANCH  32  37
ENDBRANCH  29  30
ENDBRANCH  28  29
ENDBRANCH   7  28
TORSDOF 11
