REMARK VINA RESULT:      -7.2     15.968     19.050
REMARK  Name = CHEMBL84252
REMARK  13 active torsions:
REMARK  status: ('A' for Active; 'I' for Inactive)
REMARK    1  A    between atoms: C1_1  and  C2_2
REMARK    2  A    between atoms: C2_2  and  C3_3
REMARK    3  A    between atoms: C3_3  and  C4_4
REMARK    4  A    between atoms: C3_3  and  C5_5
REMARK    5  A    between atoms: C3_3  and  C6_6
REMARK    6  A    between atoms: C6_6  and  O2_8
REMARK    7  A    between atoms: O2_8  and  C7_9
REMARK    8  A    between atoms: C9_12  and  C25_37
REMARK    9  A    between atoms: C13_19  and  C18_26
REMARK   10  A    between atoms: C14_21  and  C17_25
REMARK   11  A    between atoms: C18_26  and  C19_27
REMARK   12  A    between atoms: C19_27  and  C20_28
REMARK   13  A    between atoms: C22_30  and  O6_36
REMARK                            x       y       z     vdW  Elec       q    Type
REMARK                         _______ _______ _______ _____ _____    ______ ____
ROOT
ATOM      1  C7  <0> A   1     -25.518  -1.144  53.168  0.00  0.00    +0.184 C 
ATOM      2  C8  <0> A   1     -25.401  -0.692  54.634  0.00  0.00    +0.028 C 
ATOM      3  C9  <0> A   1     -23.993  -0.147  54.886  0.00  0.00    -0.030 C 
ATOM      4  C10 <0> A   1     -22.997  -1.218  54.497  0.00  0.00    +0.366 C 
ATOM      5  O3  <0> A   1     -22.127  -1.558  55.263  0.00  0.00    -0.443 OA
ATOM      6  C11 <0> A   1     -23.123  -1.845  53.129  0.00  0.00    -0.020 C 
ATOM      7  C12 <0> A   1     -24.575  -2.308  52.918  0.00  0.00    +0.023 C 
ATOM      8  C13 <0> A   1     -24.673  -2.955  51.552  0.00  0.00    -0.002 C 
ATOM      9  C14 <0> A   1     -24.203  -2.077  50.405  0.00  0.00    -0.015 C 
ATOM     10  C15 <0> A   1     -22.845  -1.444  50.678  0.00  0.00    +0.023 C 
ATOM     11  C16 <0> A   1     -22.784  -0.803  52.060  0.00  0.00    +0.028 C 
ATOM     12  C17 <0> A   1     -25.239  -1.023  50.029  0.00  0.00    +0.016 C 
ATOM     13  C25 <0> A   1     -23.829   0.194  56.367  0.00  0.00    +0.050 C 
ENDROOT
BRANCH   1  14
ATOM     14  O2  <0> A   1     -26.882  -1.499  52.941  0.00  0.00    -0.331 OA
BRANCH  14  15
ATOM     15  C6  <0> A   1     -27.717  -0.511  52.583  0.00  0.00    +0.471 C 
ATOM     16  O1  <0> A   1     -27.284   0.595  52.359  0.00  0.00    -0.505 OA
BRANCH  15  17
ATOM     17  C3  <0> A   1     -29.195  -0.781  52.458  0.00  0.00    -0.056 C 
ATOM     18  C4  <0> A   1     -29.898   0.468  51.924  0.00  0.00    +0.057 C 
ATOM     19  C5  <0> A   1     -29.765  -1.140  53.831  0.00  0.00    +0.077 C 
BRANCH  17  21
ATOM     20  C1  <0> A   1     -29.892  -3.173  52.274  0.00  0.00    +0.023 C 
ATOM     21  C2  <0> A   1     -29.420  -1.946  51.492  0.00  0.00    +0.034 C 
ENDBRANCH  17  21
ENDBRANCH  15  17
ENDBRANCH  14  15
ENDBRANCH   1  14
BRANCH   8  22
ATOM     22  C18 <0> A   1     -26.063  -3.517  51.266  0.00  0.00    +0.038 C 
BRANCH  22  23
ATOM     23  C19 <0> A   1     -26.221  -4.867  51.969  0.00  0.00    +0.045 C 
BRANCH  23  24
ATOM     24  C20 <0> A   1     -25.275  -5.887  51.333  0.00  0.00    +0.195 C 
ATOM     25  C21 <0> A   1     -25.982  -6.581  50.165  0.00  0.00    +0.037 C 
ATOM     26  C22 <0> A   1     -25.046  -7.630  49.556  0.00  0.00    +0.182 C 
ATOM     27  C23 <0> A   1     -24.678  -8.653  50.639  0.00  0.00    +0.016 C 
ATOM     28  C24 <0> A   1     -24.169  -7.902  51.849  0.00  0.00    +0.495 C 
ATOM     29  O4  <0> A   1     -23.136  -8.221  52.389  0.00  0.00    -0.447 OA
ATOM     30  O5  <0> A   1     -24.901  -6.866  52.309  0.00  0.00    -0.361 OA
BRANCH  26  31
ATOM     31  O6  <0> A   1     -23.862  -6.994  49.073  0.00  0.00    -0.563 OA
ATOM     32  H37 <0> A   1     -23.920  -6.698  48.155  0.00  0.00    +0.386 HD
ENDBRANCH  26  31
ENDBRANCH  23  24
ENDBRANCH  22  23
ENDBRANCH   8  22
TORSDOF 8
