REMARK VINA RESULT:      -7.4      5.121      8.042
REMARK  Name = CHEMBL152893
REMARK  13 active torsions:
REMARK  status: ('A' for Active; 'I' for Inactive)
REMARK    1  A    between atoms: C1_1  and  C2_2
REMARK    2  A    between atoms: C2_2  and  C3_3
REMARK    3  A    between atoms: C2_2  and  C4_4
REMARK    4  A    between atoms: C5_5  and  C20_21
REMARK    5  A    between atoms: C6_6  and  C14_15
REMARK    6  A    between atoms: C7_7  and  C8_9
REMARK    7  A    between atoms: C21_22  and  C22_23
REMARK    8  A    between atoms: C22_23  and  C23_25
REMARK    9  A    between atoms: C22_23  and  O4_33
REMARK   10  A    between atoms: C23_25  and  C24_26
REMARK   11  A    between atoms: C24_26  and  C25_28
REMARK   12  A    between atoms: C24_26  and  O3_32
REMARK   13  A    between atoms: C25_28  and  C26_29
REMARK                            x       y       z     vdW  Elec       q    Type
REMARK                         _______ _______ _______ _____ _____    ______ ____
ROOT
ATOM      1  C4  <0> A   1     -15.188   6.384  45.844  0.00  0.00    -0.120 C 
ATOM      2  C5  <0> A   1     -15.827   7.309  46.628  0.00  0.00    -0.085 C 
ATOM      3  C6  <0> A   1     -15.313   8.599  46.686  0.00  0.00    -0.080 C 
ATOM      4  C7  <0> A   1     -14.193   8.892  45.962  0.00  0.00    -0.120 C 
ATOM      5  S1  <0> A   1     -13.831   7.331  45.176  0.00  0.00    +0.051 S 
ENDROOT
BRANCH   4   6
ATOM      6  C8  <0> A   1     -13.464  10.175  45.858  0.00  0.00    -0.004 A 
ATOM      7  C9  <0> A   1     -12.437  10.472  46.756  0.00  0.00    +0.012 A 
ATOM      8  C10 <0> A   1     -11.762  11.670  46.654  0.00  0.00    +0.003 A 
ATOM      9  C11 <0> A   1     -12.100  12.576  45.665  0.00  0.00    +0.006 A 
ATOM     10  C12 <0> A   1     -13.117  12.288  44.772  0.00  0.00    -0.001 A 
ATOM     11  C13 <0> A   1     -13.796  11.090  44.859  0.00  0.00    +0.047 A 
ENDBRANCH   4   6
BRANCH   3  12
ATOM     12  C14 <0> A   1     -15.978   9.653  47.532  0.00  0.00    +0.052 C 
ATOM     13  C15 <0> A   1     -16.213  10.909  46.691  0.00  0.00    +0.009 C 
ATOM     14  C16 <0> A   1     -16.889  11.979  47.550  0.00  0.00    +0.011 C 
ATOM     15  C17 <0> A   1     -15.987  12.324  48.737  0.00  0.00    -0.001 C 
ATOM     16  C18 <0> A   1     -15.752  11.068  49.579  0.00  0.00    +0.011 C 
ATOM     17  C19 <0> A   1     -15.076   9.997  48.720  0.00  0.00    +0.009 C 
ENDBRANCH   3  12
BRANCH   1  19
ATOM     18  C1  <0> A   1     -16.381   4.815  44.341  0.00  0.00    +0.035 C 
ATOM     19  C2  <0> A   1     -15.538   4.937  45.612  0.00  0.00    +0.082 C 
ATOM     20  C3  <0> A   1     -14.254   4.120  45.452  0.00  0.00    +0.034 C 
ENDBRANCH   1  19
BRANCH   2  21
ATOM     21  C20 <0> A   1     -17.036   6.944  47.394  0.00  0.00    +0.023 C 
ATOM     22  C21 <0> A   1     -18.232   7.328  46.969  0.00  0.00    -0.056 C 
BRANCH  22  23
ATOM     23  C22 <0> A   1     -19.466   6.956  47.749  0.00  0.00    +0.250 C 
BRANCH  23  24
ATOM     24  O4  <0> A   1     -20.494   6.542  46.847  0.00  0.00    -0.538 OA
ATOM     25  H33 <0> A   1     -20.996   7.274  46.461  0.00  0.00    +0.365 HD
ENDBRANCH  23  24
BRANCH  23  26
ATOM     26  C23 <0> A   1     -19.136   5.810  48.708  0.00  0.00    -0.042 C 
BRANCH  26  27
ATOM     27  C24 <0> A   1     -20.387   5.436  49.506  0.00  0.00    +0.231 C 
BRANCH  27  28
ATOM     28  O3  <0> A   1     -21.242   4.623  48.700  0.00  0.00    -0.528 OA
ATOM     29  H32 <0> A   1     -21.818   5.124  48.107  0.00  0.00    +0.350 HD
ENDBRANCH  27  28
BRANCH  27  30
ATOM     30  C25 <0> A   1     -19.979   4.659  50.760  0.00  0.00    -0.102 C 
BRANCH  30  31
ATOM     31  C26 <0> A   1     -19.938   3.186  50.447  0.00  0.00    +0.490 C 
ATOM     32  O1  <0> A   1     -18.949   2.700  49.926  0.00  0.00    -0.681 OA
ATOM     33  O2  <0> A   1     -20.895   2.479  50.716  0.00  0.00    -0.713 OA
ENDBRANCH  30  31
ENDBRANCH  27  30
ENDBRANCH  26  27
ENDBRANCH  23  26
ENDBRANCH  22  23
ENDBRANCH   2  21
TORSDOF 11
