MODEL 1
REMARK VINA RESULT:      -7.8      0.000      0.000
REMARK  Name = CHEMBL253054
REMARK  16 active torsions:
REMARK  status: ('A' for Active; 'I' for Inactive)
REMARK    1  A    between atoms: C1_1  and  C2_2
REMARK    2  A    between atoms: C2_2  and  C3_3
REMARK    3  A    between atoms: C2_2  and  C4_4
REMARK    4  A    between atoms: C5_5  and  S1_35
REMARK    5  A    between atoms: C6_6  and  C21_29
REMARK    6  A    between atoms: C7_7  and  C15_22
REMARK    7  A    between atoms: N1_8  and  C8_9
REMARK    8  A    between atoms: C8_9  and  C9_10
REMARK    9  A    between atoms: C9_10  and  C10_11
REMARK   10  A    between atoms: C10_11  and  C11_13
REMARK   11  A    between atoms: C10_11  and  O4_21
REMARK   12  A    between atoms: C11_13  and  C12_14
REMARK   13  A    between atoms: C12_14  and  C13_16
REMARK   14  A    between atoms: C12_14  and  O3_20
REMARK   15  A    between atoms: C13_16  and  C14_17
REMARK   16  A    between atoms: S1_35  and  N2_38
REMARK                            x       y       z     vdW  Elec       q    Type
REMARK                         _______ _______ _______ _____ _____    ______ ____
ROOT
ATOM      1  C4  <0> A   1     -14.987   6.845  45.583  0.00  0.00    +0.173 C 
ATOM      2  C5  <0> A   1     -15.317   7.070  46.869  0.00  0.00    -0.737 C 
ATOM      3  C6  <0> A   1     -14.811   8.344  47.226  0.00  0.00    -0.022 C 
ATOM      4  C7  <0> A   1     -14.177   8.851  46.104  0.00  0.00    +0.059 C 
ATOM      5  N1  <0> A   1     -14.289   7.917  45.109  0.00  0.00    -0.412 N 
ENDROOT
BRANCH   4   6
ATOM      6  C15 <0> A   1     -13.498  10.158  46.003  0.00  0.00    -0.027 A 
ATOM      7  C16 <0> A   1     -14.184  11.267  45.500  0.00  0.00    +0.045 A 
ATOM      8  C17 <0> A   1     -13.544  12.485  45.408  0.00  0.00    -0.008 A 
ATOM      9  C18 <0> A   1     -12.225  12.611  45.813  0.00  0.00    +0.105 A 
ATOM     10  C19 <0> A   1     -11.540  11.515  46.313  0.00  0.00    -0.008 A 
ATOM     11  C20 <0> A   1     -12.170  10.293  46.415  0.00  0.00    +0.074 A 
ATOM     12  F1  <0> A   1     -11.605  13.807  45.719  0.00  0.00    -0.137 F 
ENDBRANCH   4   6
BRANCH   3  13
ATOM     13  C21 <0> A   1     -14.936   9.006  48.545  0.00  0.00    -0.034 A 
ATOM     14  C22 <0> A   1     -13.898   8.920  49.473  0.00  0.00    +0.061 A 
ATOM     15  C23 <0> A   1     -14.021   9.539  50.699  0.00  0.00    -0.000 A 
ATOM     16  C24 <0> A   1     -15.170  10.243  51.011  0.00  0.00    +0.003 A 
ATOM     17  C25 <0> A   1     -16.203  10.332  50.095  0.00  0.00    -0.009 A 
ATOM     18  C26 <0> A   1     -16.090   9.722  48.862  0.00  0.00    +0.017 A 
ENDBRANCH   3  13
BRANCH   1  20
ATOM     19  C1  <0> A   1     -15.692   5.995  43.362  0.00  0.00    +0.040 C 
ATOM     20  C2  <0> A   1     -15.328   5.605  44.797  0.00  0.00    +0.059 C 
ATOM     21  C3  <0> A   1     -14.121   4.664  44.779  0.00  0.00    +0.039 C 
ENDBRANCH   1  20
BRANCH   2  22
ATOM     22  S1  <0> A   1     -16.215   5.977  47.919  0.00  0.00    +2.731 S 
ATOM     23  O5  <0> A   1     -16.359   4.756  47.207  0.00  0.00    -0.945 OA
ATOM     24  O6  <0> A   1     -15.599   6.045  49.198  0.00  0.00    -0.960 OA
BRANCH  22  25
ATOM     25  N2  <0> A   1     -17.738   6.606  48.092  0.00  0.00    -1.039 NA
ATOM     26  C27 <0> A   1     -18.625   6.936  49.218  0.00  0.00    +0.286 C 
ATOM     27  C28 <0> A   1     -19.815   6.708  48.275  0.00  0.00    +0.030 C 
ATOM     28  C29 <0> A   1     -18.795   7.084  47.189  0.00  0.00    +0.290 C 
ENDBRANCH  22  25
ENDBRANCH   2  22
BRANCH   5  29
ATOM     29  C8  <0> A   1     -13.751   8.049  43.752  0.00  0.00    +0.294 C 
BRANCH  29  30
ATOM     30  C9  <0> A   1     -12.281   7.626  43.742  0.00  0.00    -0.015 C 
BRANCH  30  31
ATOM     31  C10 <0> A   1     -11.801   7.483  42.296  0.00  0.00    +0.218 C 
BRANCH  31  32
ATOM     32  O4  <0> A   1     -11.557   6.105  42.008  0.00  0.00    -0.540 OA
ATOM     33  H19 <0> A   1     -11.031   5.650  42.681  0.00  0.00    +0.366 HD
ENDBRANCH  31  32
BRANCH  31  34
ATOM     34  C11 <0> A   1     -12.873   8.021  41.347  0.00  0.00    -0.047 C 
BRANCH  34  35
ATOM     35  C12 <0> A   1     -12.311   9.205  40.559  0.00  0.00    +0.232 C 
BRANCH  35  36
ATOM     36  O3  <0> A   1     -12.419   8.940  39.159  0.00  0.00    -0.528 OA
ATOM     37  H18 <0> A   1     -11.573   8.945  38.692  0.00  0.00    +0.350 HD
ENDBRANCH  35  36
BRANCH  35  38
ATOM     38  C13 <0> A   1     -13.102  10.469  40.902  0.00  0.00    -0.102 C 
BRANCH  38  39
ATOM     39  C14 <0> A   1     -13.289  11.298  39.657  0.00  0.00    +0.491 C 
ATOM     40  O1  <0> A   1     -12.353  11.937  39.205  0.00  0.00    -0.681 OA
ATOM     41  O2  <0> A   1     -14.375  11.332  39.104  0.00  0.00    -0.712 OA
ENDBRANCH  38  39
ENDBRANCH  35  38
ENDBRANCH  34  35
ENDBRANCH  31  34
ENDBRANCH  30  31
ENDBRANCH  29  30
ENDBRANCH   5  29
TORSDOF 14
ENDMDL
MODEL 2
REMARK VINA RESULT:      -7.5      2.807      7.687
REMARK  Name = CHEMBL253054
REMARK  16 active torsions:
REMARK  status: ('A' for Active; 'I' for Inactive)
REMARK    1  A    between atoms: C1_1  and  C2_2
REMARK    2  A    between atoms: C2_2  and  C3_3
REMARK    3  A    between atoms: C2_2  and  C4_4
REMARK    4  A    between atoms: C5_5  and  S1_35
REMARK    5  A    between atoms: C6_6  and  C21_29
REMARK    6  A    between atoms: C7_7  and  C15_22
REMARK    7  A    between atoms: N1_8  and  C8_9
REMARK    8  A    between atoms: C8_9  and  C9_10
REMARK    9  A    between atoms: C9_10  and  C10_11
REMARK   10  A    between atoms: C10_11  and  C11_13
REMARK   11  A    between atoms: C10_11  and  O4_21
REMARK   12  A    between atoms: C11_13  and  C12_14
REMARK   13  A    between atoms: C12_14  and  C13_16
REMARK   14  A    between atoms: C12_14  and  O3_20
REMARK   15  A    between atoms: C13_16  and  C14_17
REMARK   16  A    between atoms: S1_35  and  N2_38
REMARK                            x       y       z     vdW  Elec       q    Type
REMARK                         _______ _______ _______ _____ _____    ______ ____
ROOT
ATOM      1  C4  <0> A   1     -14.720   6.722  44.981  0.00  0.00    +0.173 C 
ATOM      2  C5  <0> A   1     -13.755   7.656  44.881  0.00  0.00    -0.737 C 
ATOM      3  C6  <0> A   1     -13.896   8.539  45.979  0.00  0.00    -0.022 C 
ATOM      4  C7  <0> A   1     -14.975   8.086  46.720  0.00  0.00    +0.059 C 
ATOM      5  N1  <0> A   1     -15.472   6.976  46.091  0.00  0.00    -0.412 N 
ENDROOT
BRANCH   4   6
ATOM      6  C15 <0> A   1     -15.498   8.695  47.959  0.00  0.00    -0.027 A 
ATOM      7  C16 <0> A   1     -16.315   9.826  47.894  0.00  0.00    +0.045 A 
ATOM      8  C17 <0> A   1     -16.801  10.390  49.056  0.00  0.00    -0.008 A 
ATOM      9  C18 <0> A   1     -16.479   9.837  50.285  0.00  0.00    +0.105 A 
ATOM     10  C19 <0> A   1     -15.669   8.714  50.355  0.00  0.00    -0.008 A 
ATOM     11  C20 <0> A   1     -15.182   8.138  49.201  0.00  0.00    +0.074 A 
ATOM     12  F1  <0> A   1     -16.957  10.394  51.418  0.00  0.00    -0.137 F 
ENDBRANCH   4   6
BRANCH   3  13
ATOM     13  C21 <0> A   1     -13.052   9.719  46.277  0.00  0.00    -0.034 A 
ATOM     14  C22 <0> A   1     -13.417  10.979  45.801  0.00  0.00    +0.061 A 
ATOM     15  C23 <0> A   1     -12.627  12.074  46.083  0.00  0.00    -0.000 A 
ATOM     16  C24 <0> A   1     -11.475  11.926  46.834  0.00  0.00    +0.003 A 
ATOM     17  C25 <0> A   1     -11.108  10.679  47.308  0.00  0.00    -0.009 A 
ATOM     18  C26 <0> A   1     -11.893   9.576  47.038  0.00  0.00    +0.017 A 
ENDBRANCH   3  13
BRANCH   1  20
ATOM     19  C1  <0> A   1     -14.553   4.264  44.692  0.00  0.00    +0.040 C 
ATOM     20  C2  <0> A   1     -14.938   5.583  44.018  0.00  0.00    +0.059 C 
ATOM     21  C3  <0> A   1     -16.413   5.535  43.609  0.00  0.00    +0.039 C 
ENDBRANCH   1  20
BRANCH   2  22
ATOM     22  S1  <0> A   1     -12.536   7.760  43.612  0.00  0.00    +2.731 S 
ATOM     23  O5  <0> A   1     -11.293   7.983  44.262  0.00  0.00    -0.945 OA
ATOM     24  O6  <0> A   1     -12.757   6.656  42.746  0.00  0.00    -0.960 OA
BRANCH  22  25
ATOM     25  N2  <0> A   1     -12.862   9.125  42.732  0.00  0.00    -1.039 NA
ATOM     26  C27 <0> A   1     -12.113   9.998  41.816  0.00  0.00    +0.286 C 
ATOM     27  C28 <0> A   1     -13.051  11.142  42.226  0.00  0.00    +0.030 C 
ATOM     28  C29 <0> A   1     -14.030   9.993  42.518  0.00  0.00    +0.290 C 
ENDBRANCH  22  25
ENDBRANCH   2  22
BRANCH   5  29
ATOM     29  C8  <0> A   1     -16.621   6.185  46.540  0.00  0.00    +0.294 C 
BRANCH  29  30
ATOM     30  C9  <0> A   1     -17.916   6.915  46.177  0.00  0.00    -0.015 C 
BRANCH  30  31
ATOM     31  C10 <0> A   1     -18.825   6.983  47.405  0.00  0.00    +0.218 C 
BRANCH  31  32
ATOM     32  O4  <0> A   1     -20.159   6.634  47.032  0.00  0.00    -0.540 OA
ATOM     33  H19 <0> A   1     -20.726   6.395  47.778  0.00  0.00    +0.366 HD
ENDBRANCH  31  32
BRANCH  31  34
ATOM     34  C11 <0> A   1     -18.320   6.005  48.468  0.00  0.00    -0.047 C 
BRANCH  34  35
ATOM     35  C12 <0> A   1     -18.961   6.340  49.815  0.00  0.00    +0.232 C 
BRANCH  35  36
ATOM     36  O3  <0> A   1     -19.956   7.350  49.632  0.00  0.00    -0.528 OA
ATOM     37  H18 <0> A   1     -20.148   7.862  50.429  0.00  0.00    +0.350 HD
ENDBRANCH  35  36
BRANCH  35  38
ATOM     38  C13 <0> A   1     -19.612   5.085  50.399  0.00  0.00    -0.102 C 
BRANCH  38  39
ATOM     39  C14 <0> A   1     -21.057   5.023  49.974  0.00  0.00    +0.491 C 
ATOM     40  O1  <0> A   1     -21.347   4.628  48.856  0.00  0.00    -0.681 OA
ATOM     41  O2  <0> A   1     -21.935   5.369  50.746  0.00  0.00    -0.712 OA
ENDBRANCH  38  39
ENDBRANCH  35  38
ENDBRANCH  34  35
ENDBRANCH  31  34
ENDBRANCH  30  31
ENDBRANCH  29  30
ENDBRANCH   5  29
TORSDOF 14
ENDMDL
MODEL 3
REMARK VINA RESULT:      -7.5      2.978      4.940
REMARK  Name = CHEMBL253054
REMARK  16 active torsions:
REMARK  status: ('A' for Active; 'I' for Inactive)
REMARK    1  A    between atoms: C1_1  and  C2_2
REMARK    2  A    between atoms: C2_2  and  C3_3
REMARK    3  A    between atoms: C2_2  and  C4_4
REMARK    4  A    between atoms: C5_5  and  S1_35
REMARK    5  A    between atoms: C6_6  and  C21_29
REMARK    6  A    between atoms: C7_7  and  C15_22
REMARK    7  A    between atoms: N1_8  and  C8_9
REMARK    8  A    between atoms: C8_9  and  C9_10
REMARK    9  A    between atoms: C9_10  and  C10_11
REMARK   10  A    between atoms: C10_11  and  C11_13
REMARK   11  A    between atoms: C10_11  and  O4_21
REMARK   12  A    between atoms: C11_13  and  C12_14
REMARK   13  A    between atoms: C12_14  and  C13_16
REMARK   14  A    between atoms: C12_14  and  O3_20
REMARK   15  A    between atoms: C13_16  and  C14_17
REMARK   16  A    between atoms: S1_35  and  N2_38
REMARK                            x       y       z     vdW  Elec       q    Type
REMARK                         _______ _______ _______ _____ _____    ______ ____
ROOT
ATOM      1  C4  <0> A   1     -13.046   9.734  46.669  0.00  0.00    +0.173 C 
ATOM      2  C5  <0> A   1     -13.882   9.675  47.723  0.00  0.00    -0.737 C 
ATOM      3  C6  <0> A   1     -14.652   8.494  47.595  0.00  0.00    -0.022 C 
ATOM      4  C7  <0> A   1     -14.234   7.869  46.432  0.00  0.00    +0.059 C 
ATOM      5  N1  <0> A   1     -13.254   8.646  45.874  0.00  0.00    -0.412 N 
ENDROOT
BRANCH   4   6
ATOM      6  C15 <0> A   1     -14.756   6.598  45.889  0.00  0.00    -0.027 A 
ATOM      7  C16 <0> A   1     -16.003   6.564  45.261  0.00  0.00    +0.045 A 
ATOM      8  C17 <0> A   1     -16.485   5.374  44.755  0.00  0.00    -0.008 A 
ATOM      9  C18 <0> A   1     -15.734   4.215  44.871  0.00  0.00    +0.105 A 
ATOM     10  C19 <0> A   1     -14.496   4.243  45.492  0.00  0.00    -0.008 A 
ATOM     11  C20 <0> A   1     -14.001   5.427  45.996  0.00  0.00    +0.074 A 
ATOM     12  F1  <0> A   1     -16.212   3.053  44.375  0.00  0.00    -0.137 F 
ENDBRANCH   4   6
BRANCH   3  13
ATOM     13  C21 <0> A   1     -15.702   8.018  48.526  0.00  0.00    -0.034 A 
ATOM     14  C22 <0> A   1     -17.010   8.485  48.403  0.00  0.00    +0.061 A 
ATOM     15  C23 <0> A   1     -17.983   8.038  49.272  0.00  0.00    -0.000 A 
ATOM     16  C24 <0> A   1     -17.664   7.129  50.265  0.00  0.00    +0.003 A 
ATOM     17  C25 <0> A   1     -16.368   6.662  50.391  0.00  0.00    -0.009 A 
ATOM     18  C26 <0> A   1     -15.387   7.097  49.524  0.00  0.00    +0.017 A 
ENDBRANCH   3  13
BRANCH   1  20
ATOM     19  C1  <0> A   1     -10.726  10.216  45.934  0.00  0.00    +0.040 C 
ATOM     20  C2  <0> A   1     -12.046  10.831  46.407  0.00  0.00    +0.059 C 
ATOM     21  C3  <0> A   1     -12.587  11.769  45.326  0.00  0.00    +0.039 C 
ENDBRANCH   1  20
BRANCH   2  22
ATOM     22  S1  <0> A   1     -13.999  10.856  49.026  0.00  0.00    +2.731 S 
ATOM     23  O5  <0> A   1     -14.418  10.144  50.182  0.00  0.00    -0.945 OA
ATOM     24  O6  <0> A   1     -12.799  11.616  48.992  0.00  0.00    -0.960 OA
BRANCH  22  25
ATOM     25  N2  <0> A   1     -15.229  11.894  48.638  0.00  0.00    -1.039 NA
ATOM     26  C27 <0> A   1     -16.698  11.832  48.609  0.00  0.00    +0.286 C 
ATOM     27  C28 <0> A   1     -16.668  12.907  47.514  0.00  0.00    +0.030 C 
ATOM     28  C29 <0> A   1     -15.333  13.287  48.175  0.00  0.00    +0.290 C 
ENDBRANCH  22  25
ENDBRANCH   2  22
BRANCH   5  29
ATOM     29  C8  <0> A   1     -12.540   8.353  44.628  0.00  0.00    +0.294 C 
BRANCH  29  30
ATOM     30  C9  <0> A   1     -13.512   8.442  43.450  0.00  0.00    -0.015 C 
BRANCH  30  31
ATOM     31  C10 <0> A   1     -13.163   7.367  42.419  0.00  0.00    +0.218 C 
BRANCH  31  32
ATOM     32  O4  <0> A   1     -14.336   6.617  42.096  0.00  0.00    -0.540 OA
ATOM     33  H19 <0> A   1     -14.474   6.492  41.147  0.00  0.00    +0.366 HD
ENDBRANCH  31  32
BRANCH  31  34
ATOM     34  C11 <0> A   1     -12.619   8.031  41.153  0.00  0.00    -0.047 C 
BRANCH  34  35
ATOM     35  C12 <0> A   1     -13.006   9.511  41.148  0.00  0.00    +0.232 C 
BRANCH  35  36
ATOM     36  O3  <0> A   1     -11.822  10.313  41.131  0.00  0.00    -0.528 OA
ATOM     37  H18 <0> A   1     -11.490  10.505  40.244  0.00  0.00    +0.350 HD
ENDBRANCH  35  36
BRANCH  35  38
ATOM     38  C13 <0> A   1     -13.845   9.816  39.905  0.00  0.00    -0.102 C 
BRANCH  38  39
ATOM     39  C14 <0> A   1     -13.931  11.308  39.709  0.00  0.00    +0.491 C 
ATOM     40  O1  <0> A   1     -13.326  11.838  38.792  0.00  0.00    -0.681 OA
ATOM     41  O2  <0> A   1     -14.604  11.984  40.468  0.00  0.00    -0.712 OA
ENDBRANCH  38  39
ENDBRANCH  35  38
ENDBRANCH  34  35
ENDBRANCH  31  34
ENDBRANCH  30  31
ENDBRANCH  29  30
ENDBRANCH   5  29
TORSDOF 14
ENDMDL
MODEL 4
REMARK VINA RESULT:      -7.4      3.087      5.372
REMARK  Name = CHEMBL253054
REMARK  16 active torsions:
REMARK  status: ('A' for Active; 'I' for Inactive)
REMARK    1  A    between atoms: C1_1  and  C2_2
REMARK    2  A    between atoms: C2_2  and  C3_3
REMARK    3  A    between atoms: C2_2  and  C4_4
REMARK    4  A    between atoms: C5_5  and  S1_35
REMARK    5  A    between atoms: C6_6  and  C21_29
REMARK    6  A    between atoms: C7_7  and  C15_22
REMARK    7  A    between atoms: N1_8  and  C8_9
REMARK    8  A    between atoms: C8_9  and  C9_10
REMARK    9  A    between atoms: C9_10  and  C10_11
REMARK   10  A    between atoms: C10_11  and  C11_13
REMARK   11  A    between atoms: C10_11  and  O4_21
REMARK   12  A    between atoms: C11_13  and  C12_14
REMARK   13  A    between atoms: C12_14  and  C13_16
REMARK   14  A    between atoms: C12_14  and  O3_20
REMARK   15  A    between atoms: C13_16  and  C14_17
REMARK   16  A    between atoms: S1_35  and  N2_38
REMARK                            x       y       z     vdW  Elec       q    Type
REMARK                         _______ _______ _______ _____ _____    ______ ____
ROOT
ATOM      1  C4  <0> A   1     -12.840   9.914  46.810  0.00  0.00    +0.173 C 
ATOM      2  C5  <0> A   1     -13.660   9.895  47.879  0.00  0.00    -0.737 C 
ATOM      3  C6  <0> A   1     -14.451   8.724  47.793  0.00  0.00    -0.022 C 
ATOM      4  C7  <0> A   1     -14.063   8.063  46.638  0.00  0.00    +0.059 C 
ATOM      5  N1  <0> A   1     -13.080   8.810  46.046  0.00  0.00    -0.412 N 
ENDROOT
BRANCH   4   6
ATOM      6  C15 <0> A   1     -14.615   6.789  46.136  0.00  0.00    -0.027 A 
ATOM      7  C16 <0> A   1     -15.886   6.755  45.559  0.00  0.00    +0.045 A 
ATOM      8  C17 <0> A   1     -16.396   5.561  45.091  0.00  0.00    -0.008 A 
ATOM      9  C18 <0> A   1     -15.649   4.399  45.193  0.00  0.00    +0.105 A 
ATOM     10  C19 <0> A   1     -14.386   4.427  45.763  0.00  0.00    -0.008 A 
ATOM     11  C20 <0> A   1     -13.863   5.614  46.229  0.00  0.00    +0.074 A 
ATOM     12  F1  <0> A   1     -16.154   3.233  44.733  0.00  0.00    -0.137 F 
ENDBRANCH   4   6
BRANCH   3  13
ATOM     13  C21 <0> A   1     -15.492   8.288  48.752  0.00  0.00    -0.034 A 
ATOM     14  C22 <0> A   1     -16.789   8.791  48.653  0.00  0.00    +0.061 A 
ATOM     15  C23 <0> A   1     -17.755   8.382  49.549  0.00  0.00    -0.000 A 
ATOM     16  C24 <0> A   1     -17.439   7.475  50.545  0.00  0.00    +0.003 A 
ATOM     17  C25 <0> A   1     -16.154   6.973  50.648  0.00  0.00    -0.009 A 
ATOM     18  C26 <0> A   1     -15.181   7.370  49.754  0.00  0.00    +0.017 A 
ENDBRANCH   3  13
BRANCH   1  20
ATOM     19  C1  <0> A   1     -10.519  10.338  46.045  0.00  0.00    +0.040 C 
ATOM     20  C2  <0> A   1     -11.827  10.987  46.505  0.00  0.00    +0.059 C 
ATOM     21  C3  <0> A   1     -12.363  11.895  45.395  0.00  0.00    +0.039 C 
ENDBRANCH   1  20
BRANCH   2  22
ATOM     22  S1  <0> A   1     -13.735  11.108  49.154  0.00  0.00    +2.731 S 
ATOM     23  O5  <0> A   1     -14.143  12.321  48.537  0.00  0.00    -0.945 OA
ATOM     24  O6  <0> A   1     -14.452  10.521  50.230  0.00  0.00    -0.960 OA
BRANCH  22  25
ATOM     25  N2  <0> A   1     -12.187  11.349  49.692  0.00  0.00    -1.039 NA
ATOM     26  C27 <0> A   1     -11.277  12.497  49.821  0.00  0.00    +0.286 C 
ATOM     27  C28 <0> A   1     -10.105  11.514  49.688  0.00  0.00    +0.030 C 
ATOM     28  C29 <0> A   1     -11.120  10.509  50.259  0.00  0.00    +0.290 C 
ENDBRANCH  22  25
ENDBRANCH   2  22
BRANCH   5  29
ATOM     29  C8  <0> A   1     -12.392   8.475  44.795  0.00  0.00    +0.294 C 
BRANCH  29  30
ATOM     30  C9  <0> A   1     -13.377   8.574  43.629  0.00  0.00    -0.015 C 
BRANCH  30  31
ATOM     31  C10 <0> A   1     -13.061   7.486  42.601  0.00  0.00    +0.218 C 
BRANCH  31  32
ATOM     32  O4  <0> A   1     -14.256   6.767  42.286  0.00  0.00    -0.540 OA
ATOM     33  H19 <0> A   1     -14.308   5.892  42.697  0.00  0.00    +0.366 HD
ENDBRANCH  31  32
BRANCH  31  34
ATOM     34  C11 <0> A   1     -12.504   8.130  41.330  0.00  0.00    -0.047 C 
BRANCH  34  35
ATOM     35  C12 <0> A   1     -12.954   9.589  41.259  0.00  0.00    +0.232 C 
BRANCH  35  36
ATOM     36  O3  <0> A   1     -11.806  10.439  41.196  0.00  0.00    -0.528 OA
ATOM     37  H18 <0> A   1     -11.035  10.029  40.782  0.00  0.00    +0.350 HD
ENDBRANCH  35  36
BRANCH  35  38
ATOM     38  C13 <0> A   1     -13.811   9.799  40.009  0.00  0.00    -0.102 C 
BRANCH  38  39
ATOM     39  C14 <0> A   1     -13.944  11.274  39.731  0.00  0.00    +0.491 C 
ATOM     40  O1  <0> A   1     -14.635  11.971  40.455  0.00  0.00    -0.681 OA
ATOM     41  O2  <0> A   1     -13.362  11.770  38.781  0.00  0.00    -0.712 OA
ENDBRANCH  38  39
ENDBRANCH  35  38
ENDBRANCH  34  35
ENDBRANCH  31  34
ENDBRANCH  30  31
ENDBRANCH  29  30
ENDBRANCH   5  29
TORSDOF 14
ENDMDL
MODEL 5
REMARK VINA RESULT:      -7.3      1.685      2.054
REMARK  Name = CHEMBL253054
REMARK  16 active torsions:
REMARK  status: ('A' for Active; 'I' for Inactive)
REMARK    1  A    between atoms: C1_1  and  C2_2
REMARK    2  A    between atoms: C2_2  and  C3_3
REMARK    3  A    between atoms: C2_2  and  C4_4
REMARK    4  A    between atoms: C5_5  and  S1_35
REMARK    5  A    between atoms: C6_6  and  C21_29
REMARK    6  A    between atoms: C7_7  and  C15_22
REMARK    7  A    between atoms: N1_8  and  C8_9
REMARK    8  A    between atoms: C8_9  and  C9_10
REMARK    9  A    between atoms: C9_10  and  C10_11
REMARK   10  A    between atoms: C10_11  and  C11_13
REMARK   11  A    between atoms: C10_11  and  O4_21
REMARK   12  A    between atoms: C11_13  and  C12_14
REMARK   13  A    between atoms: C12_14  and  C13_16
REMARK   14  A    between atoms: C12_14  and  O3_20
REMARK   15  A    between atoms: C13_16  and  C14_17
REMARK   16  A    between atoms: S1_35  and  N2_38
REMARK                            x       y       z     vdW  Elec       q    Type
REMARK                         _______ _______ _______ _____ _____    ______ ____
ROOT
ATOM      1  C4  <0> A   1     -15.775   6.434  45.755  0.00  0.00    +0.173 C 
ATOM      2  C5  <0> A   1     -16.216   7.242  46.738  0.00  0.00    -0.737 C 
ATOM      3  C6  <0> A   1     -15.216   8.217  46.974  0.00  0.00    -0.022 C 
ATOM      4  C7  <0> A   1     -14.180   7.947  46.095  0.00  0.00    +0.059 C 
ATOM      5  N1  <0> A   1     -14.537   6.848  45.360  0.00  0.00    -0.412 N 
ENDROOT
BRANCH   4   6
ATOM      6  C15 <0> A   1     -12.918   8.705  45.976  0.00  0.00    -0.027 A 
ATOM      7  C16 <0> A   1     -12.904   9.948  45.341  0.00  0.00    +0.045 A 
ATOM      8  C17 <0> A   1     -11.722  10.651  45.234  0.00  0.00    -0.008 A 
ATOM      9  C18 <0> A   1     -10.550  10.126  45.755  0.00  0.00    +0.105 A 
ATOM     10  C19 <0> A   1     -10.558   8.892  46.387  0.00  0.00    -0.008 A 
ATOM     11  C20 <0> A   1     -11.734   8.183  46.506  0.00  0.00    +0.074 A 
ATOM     12  F1  <0> A   1      -9.396  10.819  45.645  0.00  0.00    -0.137 F 
ENDBRANCH   4   6
BRANCH   3  13
ATOM     13  C21 <0> A   1     -15.267   9.312  47.969  0.00  0.00    -0.034 A 
ATOM     14  C22 <0> A   1     -14.794   9.105  49.265  0.00  0.00    +0.061 A 
ATOM     15  C23 <0> A   1     -14.844  10.129  50.187  0.00  0.00    -0.000 A 
ATOM     16  C24 <0> A   1     -15.363  11.360  49.830  0.00  0.00    +0.003 A 
ATOM     17  C25 <0> A   1     -15.835  11.573  48.547  0.00  0.00    -0.009 A 
ATOM     18  C26 <0> A   1     -15.785  10.557  47.613  0.00  0.00    +0.017 A 
ENDBRANCH   3  13
BRANCH   1  20
ATOM     19  C1  <0> A   1     -16.994   5.587  43.769  0.00  0.00    +0.040 C 
ATOM     20  C2  <0> A   1     -16.527   5.257  45.188  0.00  0.00    +0.059 C 
ATOM     21  C3  <0> A   1     -15.607   4.034  45.151  0.00  0.00    +0.039 C 
ENDBRANCH   1  20
BRANCH   2  22
ATOM     22  S1  <0> A   1     -17.758   7.111  47.580  0.00  0.00    +2.731 S 
ATOM     23  O5  <0> A   1     -17.992   8.369  48.198  0.00  0.00    -0.945 OA
ATOM     24  O6  <0> A   1     -18.673   6.531  46.661  0.00  0.00    -0.960 OA
BRANCH  22  25
ATOM     25  N2  <0> A   1     -17.556   6.013  48.804  0.00  0.00    -1.039 NA
ATOM     26  C27 <0> A   1     -18.060   4.666  49.112  0.00  0.00    +0.286 C 
ATOM     27  C28 <0> A   1     -17.857   4.990  50.599  0.00  0.00    +0.030 C 
ATOM     28  C29 <0> A   1     -16.788   5.953  50.057  0.00  0.00    +0.290 C 
ENDBRANCH  22  25
ENDBRANCH   2  22
BRANCH   5  29
ATOM     29  C8  <0> A   1     -13.723   6.221  44.314  0.00  0.00    +0.294 C 
BRANCH  29  30
ATOM     30  C9  <0> A   1     -13.911   6.978  42.998  0.00  0.00    -0.015 C 
BRANCH  30  31
ATOM     31  C10 <0> A   1     -12.543   7.345  42.421  0.00  0.00    +0.218 C 
BRANCH  31  32
ATOM     32  O4  <0> A   1     -11.708   6.186  42.398  0.00  0.00    -0.540 OA
ATOM     33  H19 <0> A   1     -11.218   6.070  41.572  0.00  0.00    +0.366 HD
ENDBRANCH  31  32
BRANCH  31  34
ATOM     34  C11 <0> A   1     -12.716   7.876  40.997  0.00  0.00    -0.047 C 
BRANCH  34  35
ATOM     35  C12 <0> A   1     -13.035   9.371  41.045  0.00  0.00    +0.232 C 
BRANCH  35  36
ATOM     36  O3  <0> A   1     -11.842  10.103  41.339  0.00  0.00    -0.528 OA
ATOM     37  H18 <0> A   1     -11.054   9.765  40.893  0.00  0.00    +0.350 HD
ENDBRANCH  35  36
BRANCH  35  38
ATOM     38  C13 <0> A   1     -13.587   9.820  39.691  0.00  0.00    -0.102 C 
BRANCH  38  39
ATOM     39  C14 <0> A   1     -13.504  11.321  39.586  0.00  0.00    +0.491 C 
ATOM     40  O1  <0> A   1     -14.284  12.020  40.210  0.00  0.00    -0.681 OA
ATOM     41  O2  <0> A   1     -12.657  11.836  38.875  0.00  0.00    -0.712 OA
ENDBRANCH  38  39
ENDBRANCH  35  38
ENDBRANCH  34  35
ENDBRANCH  31  34
ENDBRANCH  30  31
ENDBRANCH  29  30
ENDBRANCH   5  29
TORSDOF 14
ENDMDL
MODEL 6
REMARK VINA RESULT:      -7.2     15.950     19.475
REMARK  Name = CHEMBL253054
REMARK  16 active torsions:
REMARK  status: ('A' for Active; 'I' for Inactive)
REMARK    1  A    between atoms: C1_1  and  C2_2
REMARK    2  A    between atoms: C2_2  and  C3_3
REMARK    3  A    between atoms: C2_2  and  C4_4
REMARK    4  A    between atoms: C5_5  and  S1_35
REMARK    5  A    between atoms: C6_6  and  C21_29
REMARK    6  A    between atoms: C7_7  and  C15_22
REMARK    7  A    between atoms: N1_8  and  C8_9
REMARK    8  A    between atoms: C8_9  and  C9_10
REMARK    9  A    between atoms: C9_10  and  C10_11
REMARK   10  A    between atoms: C10_11  and  C11_13
REMARK   11  A    between atoms: C10_11  and  O4_21
REMARK   12  A    between atoms: C11_13  and  C12_14
REMARK   13  A    between atoms: C12_14  and  C13_16
REMARK   14  A    between atoms: C12_14  and  O3_20
REMARK   15  A    between atoms: C13_16  and  C14_17
REMARK   16  A    between atoms: S1_35  and  N2_38
REMARK                            x       y       z     vdW  Elec       q    Type
REMARK                         _______ _______ _______ _____ _____    ______ ____
ROOT
ATOM      1  C4  <0> A   1     -27.825  -4.536  51.890  0.00  0.00    +0.173 C 
ATOM      2  C5  <0> A   1     -28.499  -3.369  51.897  0.00  0.00    -0.737 C 
ATOM      3  C6  <0> A   1     -27.546  -2.322  51.927  0.00  0.00    -0.022 C 
ATOM      4  C7  <0> A   1     -26.296  -2.920  51.938  0.00  0.00    +0.059 C 
ATOM      5  N1  <0> A   1     -26.486  -4.276  51.921  0.00  0.00    -0.412 N 
ENDROOT
BRANCH   4   6
ATOM      6  C15 <0> A   1     -24.996  -2.221  51.968  0.00  0.00    -0.027 A 
ATOM      7  C16 <0> A   1     -24.434  -1.839  53.189  0.00  0.00    +0.045 A 
ATOM      8  C17 <0> A   1     -23.219  -1.186  53.210  0.00  0.00    -0.008 A 
ATOM      9  C18 <0> A   1     -22.556  -0.910  52.025  0.00  0.00    +0.105 A 
ATOM     10  C19 <0> A   1     -23.109  -1.288  50.812  0.00  0.00    -0.008 A 
ATOM     11  C20 <0> A   1     -24.320  -1.946  50.777  0.00  0.00    +0.074 A 
ATOM     12  F1  <0> A   1     -21.367  -0.270  52.054  0.00  0.00    -0.137 F 
ENDBRANCH   4   6
BRANCH   3  13
ATOM     13  C21 <0> A   1     -27.830  -0.869  51.944  0.00  0.00    -0.034 A 
ATOM     14  C22 <0> A   1     -28.071  -0.217  53.153  0.00  0.00    +0.061 A 
ATOM     15  C23 <0> A   1     -28.334   1.137  53.163  0.00  0.00    -0.000 A 
ATOM     16  C24 <0> A   1     -28.361   1.848  51.977  0.00  0.00    +0.003 A 
ATOM     17  C25 <0> A   1     -28.124   1.207  50.774  0.00  0.00    -0.009 A 
ATOM     18  C26 <0> A   1     -27.853  -0.146  50.752  0.00  0.00    +0.017 A 
ENDBRANCH   3  13
BRANCH   1  20
ATOM     19  C1  <0> A   1     -28.352  -6.481  50.446  0.00  0.00    +0.040 C 
ATOM     20  C2  <0> A   1     -28.451  -5.906  51.861  0.00  0.00    +0.059 C 
ATOM     21  C3  <0> A   1     -27.713  -6.825  52.837  0.00  0.00    +0.039 C 
ENDBRANCH   1  20
BRANCH   2  22
ATOM     22  S1  <0> A   1     -30.250  -3.179  51.872  0.00  0.00    +2.731 S 
ATOM     23  O5  <0> A   1     -30.508  -1.784  51.936  0.00  0.00    -0.945 OA
ATOM     24  O6  <0> A   1     -30.732  -3.996  50.813  0.00  0.00    -0.960 OA
BRANCH  22  25
ATOM     25  N2  <0> A   1     -30.834  -3.834  53.277  0.00  0.00    -1.039 NA
ATOM     26  C27 <0> A   1     -30.647  -3.591  54.715  0.00  0.00    +0.286 C 
ATOM     27  C28 <0> A   1     -30.998  -5.067  54.954  0.00  0.00    +0.030 C 
ATOM     28  C29 <0> A   1     -31.772  -4.909  53.635  0.00  0.00    +0.290 C 
ENDBRANCH  22  25
ENDBRANCH   2  22
BRANCH   5  29
ATOM     29  C8  <0> A   1     -25.424  -5.286  51.930  0.00  0.00    +0.294 C 
BRANCH  29  30
ATOM     30  C9  <0> A   1     -24.893  -5.481  50.509  0.00  0.00    -0.015 C 
BRANCH  30  31
ATOM     31  C10 <0> A   1     -25.058  -6.945  50.099  0.00  0.00    +0.218 C 
BRANCH  31  32
ATOM     32  O4  <0> A   1     -24.781  -7.084  48.704  0.00  0.00    -0.540 OA
ATOM     33  H19 <0> A   1     -24.461  -7.962  48.452  0.00  0.00    +0.366 HD
ENDBRANCH  31  32
BRANCH  31  34
ATOM     34  C11 <0> A   1     -24.085  -7.812  50.901  0.00  0.00    -0.047 C 
BRANCH  34  35
ATOM     35  C12 <0> A   1     -24.607  -9.249  50.954  0.00  0.00    +0.232 C 
BRANCH  35  36
ATOM     36  O3  <0> A   1     -25.963  -9.280  50.502  0.00  0.00    -0.528 OA
ATOM     37  H18 <0> A   1     -26.066  -9.582  49.590  0.00  0.00    +0.350 HD
ENDBRANCH  35  36
BRANCH  35  38
ATOM     38  C13 <0> A   1     -23.749 -10.138  50.052  0.00  0.00    -0.102 C 
BRANCH  38  39
ATOM     39  C14 <0> A   1     -24.578 -10.630  48.894  0.00  0.00    +0.491 C 
ATOM     40  O1  <0> A   1     -25.118 -11.722  48.951  0.00  0.00    -0.681 OA
ATOM     41  O2  <0> A   1     -24.708  -9.937  47.899  0.00  0.00    -0.712 OA
ENDBRANCH  38  39
ENDBRANCH  35  38
ENDBRANCH  34  35
ENDBRANCH  31  34
ENDBRANCH  30  31
ENDBRANCH  29  30
ENDBRANCH   5  29
TORSDOF 14
ENDMDL
MODEL 7
REMARK VINA RESULT:      -7.2     16.467     20.149
REMARK  Name = CHEMBL253054
REMARK  16 active torsions:
REMARK  status: ('A' for Active; 'I' for Inactive)
REMARK    1  A    between atoms: C1_1  and  C2_2
REMARK    2  A    between atoms: C2_2  and  C3_3
REMARK    3  A    between atoms: C2_2  and  C4_4
REMARK    4  A    between atoms: C5_5  and  S1_35
REMARK    5  A    between atoms: C6_6  and  C21_29
REMARK    6  A    between atoms: C7_7  and  C15_22
REMARK    7  A    between atoms: N1_8  and  C8_9
REMARK    8  A    between atoms: C8_9  and  C9_10
REMARK    9  A    between atoms: C9_10  and  C10_11
REMARK   10  A    between atoms: C10_11  and  C11_13
REMARK   11  A    between atoms: C10_11  and  O4_21
REMARK   12  A    between atoms: C11_13  and  C12_14
REMARK   13  A    between atoms: C12_14  and  C13_16
REMARK   14  A    between atoms: C12_14  and  O3_20
REMARK   15  A    between atoms: C13_16  and  C14_17
REMARK   16  A    between atoms: S1_35  and  N2_38
REMARK                            x       y       z     vdW  Elec       q    Type
REMARK                         _______ _______ _______ _____ _____    ______ ____
ROOT
ATOM      1  C4  <0> A   1     -28.177  -5.246  51.013  0.00  0.00    +0.173 C 
ATOM      2  C5  <0> A   1     -28.890  -4.203  51.479  0.00  0.00    -0.737 C 
ATOM      3  C6  <0> A   1     -27.996  -3.121  51.667  0.00  0.00    -0.022 C 
ATOM      4  C7  <0> A   1     -26.740  -3.571  51.295  0.00  0.00    +0.059 C 
ATOM      5  N1  <0> A   1     -26.869  -4.877  50.903  0.00  0.00    -0.412 N 
ENDROOT
BRANCH   4   6
ATOM      6  C15 <0> A   1     -25.489  -2.786  51.321  0.00  0.00    -0.027 A 
ATOM      7  C16 <0> A   1     -25.146  -1.978  50.235  0.00  0.00    +0.045 A 
ATOM      8  C17 <0> A   1     -23.977  -1.247  50.267  0.00  0.00    -0.008 A 
ATOM      9  C18 <0> A   1     -23.143  -1.314  51.372  0.00  0.00    +0.105 A 
ATOM     10  C19 <0> A   1     -23.480  -2.114  52.452  0.00  0.00    -0.008 A 
ATOM     11  C20 <0> A   1     -24.648  -2.845  52.436  0.00  0.00    +0.074 A 
ATOM     12  F1  <0> A   1     -21.999  -0.596  51.396  0.00  0.00    -0.137 F 
ENDBRANCH   4   6
BRANCH   3  13
ATOM     13  C21 <0> A   1     -28.338  -1.769  52.166  0.00  0.00    -0.034 A 
ATOM     14  C22 <0> A   1     -28.618  -0.741  51.266  0.00  0.00    +0.061 A 
ATOM     15  C23 <0> A   1     -28.937   0.516  51.736  0.00  0.00    -0.000 A 
ATOM     16  C24 <0> A   1     -28.977   0.759  53.097  0.00  0.00    +0.003 A 
ATOM     17  C25 <0> A   1     -28.699  -0.256  53.995  0.00  0.00    -0.009 A 
ATOM     18  C26 <0> A   1     -28.386  -1.520  53.537  0.00  0.00    +0.017 A 
ENDBRANCH   3  13
BRANCH   1  20
ATOM     19  C1  <0> A   1     -28.076  -7.123  49.395  0.00  0.00    +0.040 C 
ATOM     20  C2  <0> A   1     -28.735  -6.605  50.676  0.00  0.00    +0.059 C 
ATOM     21  C3  <0> A   1     -28.447  -7.574  51.825  0.00  0.00    +0.039 C 
ENDBRANCH   1  20
BRANCH   2  22
ATOM     22  S1  <0> A   1     -30.623  -4.186  51.798  0.00  0.00    +2.731 S 
ATOM     23  O5  <0> A   1     -30.978  -2.833  52.043  0.00  0.00    -0.945 OA
ATOM     24  O6  <0> A   1     -31.231  -4.960  50.773  0.00  0.00    -0.960 OA
BRANCH  22  25
ATOM     25  N2  <0> A   1     -30.867  -5.004  53.217  0.00  0.00    -1.039 NA
ATOM     26  C27 <0> A   1     -30.333  -4.934  54.585  0.00  0.00    +0.286 C 
ATOM     27  C28 <0> A   1     -30.655  -6.429  54.729  0.00  0.00    +0.030 C 
ATOM     28  C29 <0> A   1     -31.720  -6.117  53.664  0.00  0.00    +0.290 C 
ENDBRANCH  22  25
ENDBRANCH   2  22
BRANCH   5  29
ATOM     29  C8  <0> A   1     -25.778  -5.737  50.435  0.00  0.00    +0.294 C 
BRANCH  29  30
ATOM     30  C9  <0> A   1     -25.117  -6.421  51.633  0.00  0.00    -0.015 C 
BRANCH  30  31
ATOM     31  C10 <0> A   1     -24.261  -7.591  51.145  0.00  0.00    +0.218 C 
BRANCH  31  32
ATOM     32  O4  <0> A   1     -23.359  -7.987  52.181  0.00  0.00    -0.540 OA
ATOM     33  H19 <0> A   1     -23.054  -8.902  52.107  0.00  0.00    +0.366 HD
ENDBRANCH  31  32
BRANCH  31  34
ATOM     34  C11 <0> A   1     -25.167  -8.768  50.780  0.00  0.00    -0.047 C 
BRANCH  34  35
ATOM     35  C12 <0> A   1     -24.382  -9.773  49.936  0.00  0.00    +0.232 C 
BRANCH  35  36
ATOM     36  O3  <0> A   1     -23.035  -9.320  49.786  0.00  0.00    -0.528 OA
ATOM     37  H18 <0> A   1     -22.686  -9.414  48.889  0.00  0.00    +0.350 HD
ENDBRANCH  35  36
BRANCH  35  38
ATOM     38  C13 <0> A   1     -24.385 -11.137  50.631  0.00  0.00    -0.102 C 
BRANCH  38  39
ATOM     39  C14 <0> A   1     -24.275 -12.228  49.597  0.00  0.00    +0.491 C 
ATOM     40  O1  <0> A   1     -23.444 -12.143  48.708  0.00  0.00    -0.681 OA
ATOM     41  O2  <0> A   1     -25.016 -13.194  49.649  0.00  0.00    -0.712 OA
ENDBRANCH  38  39
ENDBRANCH  35  38
ENDBRANCH  34  35
ENDBRANCH  31  34
ENDBRANCH  30  31
ENDBRANCH  29  30
ENDBRANCH   5  29
TORSDOF 14
ENDMDL
MODEL 8
REMARK VINA RESULT:      -7.2     16.348     19.966
REMARK  Name = CHEMBL253054
REMARK  16 active torsions:
REMARK  status: ('A' for Active; 'I' for Inactive)
REMARK    1  A    between atoms: C1_1  and  C2_2
REMARK    2  A    between atoms: C2_2  and  C3_3
REMARK    3  A    between atoms: C2_2  and  C4_4
REMARK    4  A    between atoms: C5_5  and  S1_35
REMARK    5  A    between atoms: C6_6  and  C21_29
REMARK    6  A    between atoms: C7_7  and  C15_22
REMARK    7  A    between atoms: N1_8  and  C8_9
REMARK    8  A    between atoms: C8_9  and  C9_10
REMARK    9  A    between atoms: C9_10  and  C10_11
REMARK   10  A    between atoms: C10_11  and  C11_13
REMARK   11  A    between atoms: C10_11  and  O4_21
REMARK   12  A    between atoms: C11_13  and  C12_14
REMARK   13  A    between atoms: C12_14  and  C13_16
REMARK   14  A    between atoms: C12_14  and  O3_20
REMARK   15  A    between atoms: C13_16  and  C14_17
REMARK   16  A    between atoms: S1_35  and  N2_38
REMARK                            x       y       z     vdW  Elec       q    Type
REMARK                         _______ _______ _______ _____ _____    ______ ____
ROOT
ATOM      1  C4  <0> A   1     -26.817  -3.285  50.954  0.00  0.00    +0.173 C 
ATOM      2  C5  <0> A   1     -27.914  -4.066  50.967  0.00  0.00    -0.737 C 
ATOM      3  C6  <0> A   1     -27.487  -5.409  50.831  0.00  0.00    -0.022 C 
ATOM      4  C7  <0> A   1     -26.105  -5.382  50.740  0.00  0.00    +0.059 C 
ATOM      5  N1  <0> A   1     -25.712  -4.072  50.811  0.00  0.00    -0.412 N 
ENDROOT
BRANCH   4   6
ATOM      6  C15 <0> A   1     -25.218  -6.553  50.588  0.00  0.00    -0.027 A 
ATOM      7  C16 <0> A   1     -24.894  -7.026  49.315  0.00  0.00    +0.045 A 
ATOM      8  C17 <0> A   1     -24.065  -8.120  49.179  0.00  0.00    -0.008 A 
ATOM      9  C18 <0> A   1     -23.554  -8.749  50.303  0.00  0.00    +0.105 A 
ATOM     10  C19 <0> A   1     -23.872  -8.283  51.569  0.00  0.00    -0.008 A 
ATOM     11  C20 <0> A   1     -24.695  -7.187  51.718  0.00  0.00    +0.074 A 
ATOM     12  F1  <0> A   1     -22.743  -9.820  50.164  0.00  0.00    -0.137 F 
ENDBRANCH   4   6
BRANCH   3  13
ATOM     13  C21 <0> A   1     -28.351  -6.612  50.795  0.00  0.00    -0.034 A 
ATOM     14  C22 <0> A   1     -28.863  -7.069  49.581  0.00  0.00    +0.061 A 
ATOM     15  C23 <0> A   1     -29.667  -8.189  49.553  0.00  0.00    -0.000 A 
ATOM     16  C24 <0> A   1     -29.967  -8.859  50.725  0.00  0.00    +0.003 A 
ATOM     17  C25 <0> A   1     -29.462  -8.410  51.933  0.00  0.00    -0.009 A 
ATOM     18  C26 <0> A   1     -28.652  -7.294  51.973  0.00  0.00    +0.017 A 
ENDBRANCH   3  13
BRANCH   1  20
ATOM     19  C1  <0> A   1     -26.243  -1.380  52.434  0.00  0.00    +0.040 C 
ATOM     20  C2  <0> A   1     -26.812  -1.783  51.072  0.00  0.00    +0.059 C 
ATOM     21  C3  <0> A   1     -25.945  -1.186  49.961  0.00  0.00    +0.039 C 
ENDBRANCH   1  20
BRANCH   2  22
ATOM     22  S1  <0> A   1     -29.581  -3.516  51.123  0.00  0.00    +2.731 S 
ATOM     23  O5  <0> A   1     -29.536  -2.097  51.181  0.00  0.00    -0.945 OA
ATOM     24  O6  <0> A   1     -30.332  -4.216  50.141  0.00  0.00    -0.960 OA
BRANCH  22  25
ATOM     25  N2  <0> A   1     -30.131  -4.033  52.597  0.00  0.00    -1.039 NA
ATOM     26  C27 <0> A   1     -29.804  -3.759  54.004  0.00  0.00    +0.286 C 
ATOM     27  C28 <0> A   1     -30.318  -5.167  54.341  0.00  0.00    +0.030 C 
ATOM     28  C29 <0> A   1     -31.166  -4.963  53.074  0.00  0.00    +0.290 C 
ENDBRANCH  22  25
ENDBRANCH   2  22
BRANCH   5  29
ATOM     29  C8  <0> A   1     -24.328  -3.593  50.748  0.00  0.00    +0.294 C 
BRANCH  29  30
ATOM     30  C9  <0> A   1     -23.672  -3.747  52.121  0.00  0.00    -0.015 C 
BRANCH  30  31
ATOM     31  C10 <0> A   1     -22.591  -2.677  52.293  0.00  0.00    +0.218 C 
BRANCH  31  32
ATOM     32  O4  <0> A   1     -22.789  -1.994  53.532  0.00  0.00    -0.540 OA
ATOM     33  H19 <0> A   1     -23.442  -2.411  54.111  0.00  0.00    +0.366 HD
ENDBRANCH  31  32
BRANCH  31  34
ATOM     34  C11 <0> A   1     -21.213  -3.340  52.291  0.00  0.00    -0.047 C 
BRANCH  34  35
ATOM     35  C12 <0> A   1     -20.584  -3.214  53.679  0.00  0.00    +0.232 C 
BRANCH  35  36
ATOM     36  O3  <0> A   1     -20.988  -4.322  54.487  0.00  0.00    -0.528 OA
ATOM     37  H18 <0> A   1     -20.813  -5.184  54.088  0.00  0.00    +0.350 HD
ENDBRANCH  35  36
BRANCH  35  38
ATOM     38  C13 <0> A   1     -19.059  -3.207  53.551  0.00  0.00    -0.102 C 
BRANCH  38  39
ATOM     39  C14 <0> A   1     -18.508  -4.528  54.023  0.00  0.00    +0.491 C 
ATOM     40  O1  <0> A   1     -18.079  -4.637  55.160  0.00  0.00    -0.681 OA
ATOM     41  O2  <0> A   1     -18.490  -5.486  53.269  0.00  0.00    -0.712 OA
ENDBRANCH  38  39
ENDBRANCH  35  38
ENDBRANCH  34  35
ENDBRANCH  31  34
ENDBRANCH  30  31
ENDBRANCH  29  30
ENDBRANCH   5  29
TORSDOF 14
ENDMDL
MODEL 9
REMARK VINA RESULT:      -7.1     15.997     19.929
REMARK  Name = CHEMBL253054
REMARK  16 active torsions:
REMARK  status: ('A' for Active; 'I' for Inactive)
REMARK    1  A    between atoms: C1_1  and  C2_2
REMARK    2  A    between atoms: C2_2  and  C3_3
REMARK    3  A    between atoms: C2_2  and  C4_4
REMARK    4  A    between atoms: C5_5  and  S1_35
REMARK    5  A    between atoms: C6_6  and  C21_29
REMARK    6  A    between atoms: C7_7  and  C15_22
REMARK    7  A    between atoms: N1_8  and  C8_9
REMARK    8  A    between atoms: C8_9  and  C9_10
REMARK    9  A    between atoms: C9_10  and  C10_11
REMARK   10  A    between atoms: C10_11  and  C11_13
REMARK   11  A    between atoms: C10_11  and  O4_21
REMARK   12  A    between atoms: C11_13  and  C12_14
REMARK   13  A    between atoms: C12_14  and  C13_16
REMARK   14  A    between atoms: C12_14  and  O3_20
REMARK   15  A    between atoms: C13_16  and  C14_17
REMARK   16  A    between atoms: S1_35  and  N2_38
REMARK                            x       y       z     vdW  Elec       q    Type
REMARK                         _______ _______ _______ _____ _____    ______ ____
ROOT
ATOM      1  C4  <0> A   1     -24.860  -2.793  51.968  0.00  0.00    +0.173 C 
ATOM      2  C5  <0> A   1     -25.953  -2.172  52.454  0.00  0.00    -0.737 C 
ATOM      3  C6  <0> A   1     -27.076  -2.979  52.150  0.00  0.00    -0.022 C 
ATOM      4  C7  <0> A   1     -26.599  -4.088  51.471  0.00  0.00    +0.059 C 
ATOM      5  N1  <0> A   1     -25.240  -3.955  51.364  0.00  0.00    -0.412 N 
ENDROOT
BRANCH   4   6
ATOM      6  C15 <0> A   1     -27.411  -5.208  50.953  0.00  0.00    -0.027 A 
ATOM      7  C16 <0> A   1     -27.788  -6.251  51.801  0.00  0.00    +0.045 A 
ATOM      8  C17 <0> A   1     -28.547  -7.294  51.311  0.00  0.00    -0.008 A 
ATOM      9  C18 <0> A   1     -28.933  -7.308  49.980  0.00  0.00    +0.105 A 
ATOM     10  C19 <0> A   1     -28.561  -6.275  49.134  0.00  0.00    -0.008 A 
ATOM     11  C20 <0> A   1     -27.809  -5.224  49.613  0.00  0.00    +0.074 A 
ATOM     12  F1  <0> A   1     -29.674  -8.333  49.507  0.00  0.00    -0.137 F 
ENDBRANCH   4   6
BRANCH   3  13
ATOM     13  C21 <0> A   1     -28.488  -2.691  52.491  0.00  0.00    -0.034 A 
ATOM     14  C22 <0> A   1     -29.203  -1.737  51.767  0.00  0.00    +0.061 A 
ATOM     15  C23 <0> A   1     -30.519  -1.474  52.089  0.00  0.00    -0.000 A 
ATOM     16  C24 <0> A   1     -31.129  -2.153  53.128  0.00  0.00    +0.003 A 
ATOM     17  C25 <0> A   1     -30.425  -3.100  53.850  0.00  0.00    -0.009 A 
ATOM     18  C26 <0> A   1     -29.110  -3.377  53.534  0.00  0.00    +0.017 A 
ENDBRANCH   3  13
BRANCH   1  20
ATOM     19  C1  <0> A   1     -22.534  -3.402  52.574  0.00  0.00    +0.040 C 
ATOM     20  C2  <0> A   1     -23.446  -2.281  52.071  0.00  0.00    +0.059 C 
ATOM     21  C3  <0> A   1     -22.970  -1.816  50.693  0.00  0.00    +0.039 C 
ENDBRANCH   1  20
BRANCH   2  22
ATOM     22  S1  <0> A   1     -25.980  -0.634  53.314  0.00  0.00    +2.731 S 
ATOM     23  O5  <0> A   1     -26.974  -0.750  54.321  0.00  0.00    -0.945 OA
ATOM     24  O6  <0> A   1     -24.628  -0.312  53.610  0.00  0.00    -0.960 OA
BRANCH  22  25
ATOM     25  N2  <0> A   1     -26.517   0.513  52.247  0.00  0.00    -1.039 NA
ATOM     26  C27 <0> A   1     -27.511   1.597  52.269  0.00  0.00    +0.286 C 
ATOM     27  C28 <0> A   1     -27.644   1.433  50.749  0.00  0.00    +0.030 C 
ATOM     28  C29 <0> A   1     -26.206   0.900  50.862  0.00  0.00    +0.290 C 
ENDBRANCH  22  25
ENDBRANCH   2  22
BRANCH   5  29
ATOM     29  C8  <0> A   1     -24.340  -4.908  50.710  0.00  0.00    +0.294 C 
BRANCH  29  30
ATOM     30  C9  <0> A   1     -24.278  -6.198  51.530  0.00  0.00    -0.015 C 
BRANCH  30  31
ATOM     31  C10 <0> A   1     -24.518  -7.398  50.613  0.00  0.00    +0.218 C 
BRANCH  31  32
ATOM     32  O4  <0> A   1     -24.062  -7.089  49.294  0.00  0.00    -0.540 OA
ATOM     33  H19 <0> A   1     -23.995  -7.859  48.711  0.00  0.00    +0.366 HD
ENDBRANCH  31  32
BRANCH  31  34
ATOM     34  C11 <0> A   1     -23.751  -8.610  51.147  0.00  0.00    -0.047 C 
BRANCH  34  35
ATOM     35  C12 <0> A   1     -24.506  -9.890  50.787  0.00  0.00    +0.232 C 
BRANCH  35  36
ATOM     36  O3  <0> A   1     -25.837  -9.561  50.382  0.00  0.00    -0.528 OA
ATOM     37  H18 <0> A   1     -25.887  -8.819  49.765  0.00  0.00    +0.350 HD
ENDBRANCH  35  36
BRANCH  35  38
ATOM     38  C13 <0> A   1     -23.786 -10.602  49.640  0.00  0.00    -0.102 C 
BRANCH  38  39
ATOM     39  C14 <0> A   1     -24.633 -10.534  48.395  0.00  0.00    +0.491 C 
ATOM     40  O1  <0> A   1     -24.599  -9.541  47.688  0.00  0.00    -0.681 OA
ATOM     41  O2  <0> A   1     -25.353 -11.471  48.096  0.00  0.00    -0.712 OA
ENDBRANCH  38  39
ENDBRANCH  35  38
ENDBRANCH  34  35
ENDBRANCH  31  34
ENDBRANCH  30  31
ENDBRANCH  29  30
ENDBRANCH   5  29
TORSDOF 14
ENDMDL
MODEL 10
REMARK VINA RESULT:      -7.1     13.432     17.497
REMARK  Name = CHEMBL253054
REMARK  16 active torsions:
REMARK  status: ('A' for Active; 'I' for Inactive)
REMARK    1  A    between atoms: C1_1  and  C2_2
REMARK    2  A    between atoms: C2_2  and  C3_3
REMARK    3  A    between atoms: C2_2  and  C4_4
REMARK    4  A    between atoms: C5_5  and  S1_35
REMARK    5  A    between atoms: C6_6  and  C21_29
REMARK    6  A    between atoms: C7_7  and  C15_22
REMARK    7  A    between atoms: N1_8  and  C8_9
REMARK    8  A    between atoms: C8_9  and  C9_10
REMARK    9  A    between atoms: C9_10  and  C10_11
REMARK   10  A    between atoms: C10_11  and  C11_13
REMARK   11  A    between atoms: C10_11  and  O4_21
REMARK   12  A    between atoms: C11_13  and  C12_14
REMARK   13  A    between atoms: C12_14  and  C13_16
REMARK   14  A    between atoms: C12_14  and  O3_20
REMARK   15  A    between atoms: C13_16  and  C14_17
REMARK   16  A    between atoms: S1_35  and  N2_38
REMARK                            x       y       z     vdW  Elec       q    Type
REMARK                         _______ _______ _______ _____ _____    ______ ____
ROOT
ATOM      1  C4  <0> A   1     -26.373  -1.726  51.523  0.00  0.00    +0.173 C 
ATOM      2  C5  <0> A   1     -25.980  -0.437  51.531  0.00  0.00    -0.737 C 
ATOM      3  C6  <0> A   1     -24.609  -0.408  51.884  0.00  0.00    -0.022 C 
ATOM      4  C7  <0> A   1     -24.218  -1.723  52.080  0.00  0.00    +0.059 C 
ATOM      5  N1  <0> A   1     -25.313  -2.516  51.860  0.00  0.00    -0.412 N 
ENDROOT
BRANCH   4   6
ATOM      6  C15 <0> A   1     -22.868  -2.183  52.462  0.00  0.00    -0.027 A 
ATOM      7  C16 <0> A   1     -21.985  -2.649  51.485  0.00  0.00    +0.045 A 
ATOM      8  C17 <0> A   1     -20.725  -3.078  51.848  0.00  0.00    -0.008 A 
ATOM      9  C18 <0> A   1     -20.336  -3.047  53.178  0.00  0.00    +0.105 A 
ATOM     10  C19 <0> A   1     -21.208  -2.585  54.151  0.00  0.00    -0.008 A 
ATOM     11  C20 <0> A   1     -22.468  -2.148  53.800  0.00  0.00    +0.074 A 
ATOM     12  F1  <0> A   1     -19.101  -3.469  53.527  0.00  0.00    -0.137 F 
ENDBRANCH   4   6
BRANCH   3  13
ATOM     13  C21 <0> A   1     -23.757   0.796  52.017  0.00  0.00    -0.034 A 
ATOM     14  C22 <0> A   1     -23.577   1.392  53.265  0.00  0.00    +0.061 A 
ATOM     15  C23 <0> A   1     -22.782   2.512  53.383  0.00  0.00    -0.000 A 
ATOM     16  C24 <0> A   1     -22.164   3.047  52.267  0.00  0.00    +0.003 A 
ATOM     17  C25 <0> A   1     -22.338   2.460  51.026  0.00  0.00    -0.009 A 
ATOM     18  C26 <0> A   1     -23.126   1.335  50.896  0.00  0.00    +0.017 A 
ENDBRANCH   3  13
BRANCH   1  20
ATOM     19  C1  <0> A   1     -27.769  -2.839  49.802  0.00  0.00    +0.040 C 
ATOM     20  C2  <0> A   1     -27.761  -2.214  51.200  0.00  0.00    +0.059 C 
ATOM     21  C3  <0> A   1     -28.186  -3.264  52.230  0.00  0.00    +0.039 C 
ENDBRANCH   1  20
BRANCH   2  22
ATOM     22  S1  <0> A   1     -26.990   0.960  51.169  0.00  0.00    +2.731 S 
ATOM     23  O5  <0> A   1     -26.281   2.103  51.626  0.00  0.00    -0.945 OA
ATOM     24  O6  <0> A   1     -27.414   0.815  49.821  0.00  0.00    -0.960 OA
BRANCH  22  25
ATOM     25  N2  <0> A   1     -28.349   0.839  52.108  0.00  0.00    -1.039 NA
ATOM     26  C27 <0> A   1     -28.635   0.607  53.532  0.00  0.00    +0.286 C 
ATOM     27  C28 <0> A   1     -29.982   0.007  53.108  0.00  0.00    +0.030 C 
ATOM     28  C29 <0> A   1     -29.800   0.923  51.886  0.00  0.00    +0.290 C 
ENDBRANCH  22  25
ENDBRANCH   2  22
BRANCH   5  29
ATOM     29  C8  <0> A   1     -25.341  -3.978  51.966  0.00  0.00    +0.294 C 
BRANCH  29  30
ATOM     30  C9  <0> A   1     -24.769  -4.593  50.688  0.00  0.00    -0.015 C 
BRANCH  30  31
ATOM     31  C10 <0> A   1     -25.365  -5.987  50.482  0.00  0.00    +0.218 C 
BRANCH  31  32
ATOM     32  O4  <0> A   1     -25.822  -6.116  49.135  0.00  0.00    -0.540 OA
ATOM     33  H19 <0> A   1     -26.556  -5.527  48.911  0.00  0.00    +0.366 HD
ENDBRANCH  31  32
BRANCH  31  34
ATOM     34  C11 <0> A   1     -24.295  -7.045  50.761  0.00  0.00    -0.047 C 
BRANCH  34  35
ATOM     35  C12 <0> A   1     -24.249  -8.042  49.603  0.00  0.00    +0.232 C 
BRANCH  35  36
ATOM     36  O3  <0> A   1     -23.432  -7.517  48.554  0.00  0.00    -0.528 OA
ATOM     37  H18 <0> A   1     -23.880  -6.868  47.995  0.00  0.00    +0.350 HD
ENDBRANCH  35  36
BRANCH  35  38
ATOM     38  C13 <0> A   1     -23.661  -9.367  50.092  0.00  0.00    -0.102 C 
BRANCH  38  39
ATOM     39  C14 <0> A   1     -24.057 -10.473  49.148  0.00  0.00    +0.491 C 
ATOM     40  O1  <0> A   1     -23.843 -11.636  49.447  0.00  0.00    -0.681 OA
ATOM     41  O2  <0> A   1     -24.590 -10.205  48.084  0.00  0.00    -0.712 OA
ENDBRANCH  38  39
ENDBRANCH  35  38
ENDBRANCH  34  35
ENDBRANCH  31  34
ENDBRANCH  30  31
ENDBRANCH  29  30
ENDBRANCH   5  29
TORSDOF 14
ENDMDL
