REMARK VINA RESULT:      -7.6     10.622     13.940
REMARK  Name = CHEMBL99838
REMARK  15 active torsions:
REMARK  status: ('A' for Active; 'I' for Inactive)
REMARK    1  A    between atoms: C1_1  and  C2_2
REMARK    2  A    between atoms: C2_2  and  C3_3
REMARK    3  A    between atoms: C2_2  and  C4_4
REMARK    4  A    between atoms: C6_6  and  C23_29
REMARK    5  A    between atoms: C8_8  and  C16_22
REMARK    6  A    between atoms: C9_9  and  O1_10
REMARK    7  A    between atoms: O1_10  and  C10_11
REMARK    8  A    between atoms: C10_11  and  C11_12
REMARK    9  A    between atoms: C11_12  and  C12_13
REMARK   10  A    between atoms: C11_12  and  O5_21
REMARK   11  A    between atoms: C12_13  and  C13_14
REMARK   12  A    between atoms: C13_14  and  C14_16
REMARK   13  A    between atoms: C13_14  and  O4_20
REMARK   14  A    between atoms: C14_16  and  C15_17
REMARK   15  A    between atoms: C16_22  and  C17_23
REMARK                            x       y       z     vdW  Elec       q    Type
REMARK                         _______ _______ _______ _____ _____    ______ ____
ROOT
ATOM      1  C4  <0> A   1      -4.039   4.973  50.076  0.00  0.00    -0.086 A 
ATOM      2  C5  <0> A   1      -3.067   5.701  50.730  0.00  0.00    +0.028 A 
ATOM      3  C6  <0> A   1      -2.069   6.343  49.999  0.00  0.00    -0.053 A 
ATOM      4  C7  <0> A   1      -2.056   6.246  48.608  0.00  0.00    +0.027 A 
ATOM      5  C8  <0> A   1      -3.030   5.517  47.959  0.00  0.00    -0.088 A 
ATOM      6  C9  <0> A   1      -4.020   4.874  48.692  0.00  0.00    +0.106 A 
ENDROOT
BRANCH   3   7
ATOM      7  C23 <0> A   1      -1.022   7.127  50.698  0.00  0.00    -0.037 A 
ATOM      8  C24 <0> A   1      -1.114   8.516  50.762  0.00  0.00    +0.011 A 
ATOM      9  C25 <0> A   1      -0.137   9.241  51.414  0.00  0.00    +0.006 A 
ATOM     10  C26 <0> A   1       0.933   8.591  52.004  0.00  0.00    -0.002 A 
ATOM     11  C27 <0> A   1       1.029   7.212  51.943  0.00  0.00    +0.006 A 
ATOM     12  C28 <0> A   1       0.055   6.477  51.299  0.00  0.00    +0.012 A 
ENDBRANCH   3   7
BRANCH   1  14
ATOM     13  C1  <0> A   1      -4.532   3.051  51.562  0.00  0.00    +0.028 C 
ATOM     14  C2  <0> A   1      -5.119   4.280  50.866  0.00  0.00    +0.032 C 
ATOM     15  C3  <0> A   1      -5.680   5.241  51.915  0.00  0.00    +0.023 C 
ENDBRANCH   1  14
BRANCH   6  16
ATOM     16  O1  <0> A   1      -4.976   4.152  48.050  0.00  0.00    -0.316 OA
BRANCH  16  17
ATOM     17  C10 <0> A   1      -5.950   4.883  47.304  0.00  0.00    +0.146 C 
BRANCH  17  18
ATOM     18  C11 <0> A   1      -7.306   4.182  47.409  0.00  0.00    +0.225 C 
BRANCH  18  19
ATOM     19  O5  <0> A   1      -8.320   5.148  47.695  0.00  0.00    -0.531 OA
ATOM     20  H19 <0> A   1      -8.283   5.935  47.134  0.00  0.00    +0.362 HD
ENDBRANCH  18  19
BRANCH  18  21
ATOM     21  C12 <0> A   1      -7.625   3.485  46.086  0.00  0.00    -0.044 C 
BRANCH  21  22
ATOM     22  C13 <0> A   1      -6.524   2.472  45.766  0.00  0.00    +0.235 C 
BRANCH  22  23
ATOM     23  O4  <0> A   1      -6.777   1.256  46.473  0.00  0.00    -0.527 OA
ATOM     24  H18 <0> A   1      -7.713   1.027  46.540  0.00  0.00    +0.350 HD
ENDBRANCH  22  23
BRANCH  22  25
ATOM     25  C14 <0> A   1      -6.511   2.193  44.261  0.00  0.00    -0.101 C 
BRANCH  25  26
ATOM     26  C15 <0> A   1      -6.213   0.735  44.023  0.00  0.00    +0.491 C 
ATOM     27  O2  <0> A   1      -5.223   0.226  44.521  0.00  0.00    -0.680 OA
ATOM     28  O3  <0> A   1      -6.961   0.064  43.333  0.00  0.00    -0.713 OA
ENDBRANCH  25  26
ENDBRANCH  22  25
ENDBRANCH  21  22
ENDBRANCH  18  21
ENDBRANCH  17  18
ENDBRANCH  16  17
ENDBRANCH   6  16
BRANCH   5  29
ATOM     29  C16 <0> A   1      -3.017   5.412  46.457  0.00  0.00    +0.071 C 
BRANCH  29  30
ATOM     30  C17 <0> A   1      -2.334   4.107  46.042  0.00  0.00    +0.002 C 
ATOM     31  C18 <0> A   1      -0.937   4.414  45.499  0.00  0.00    +0.006 C 
ATOM     32  C19 <0> A   1      -0.253   3.109  45.085  0.00  0.00    -0.001 C 
ATOM     33  C20 <0> A   1      -1.083   2.421  43.998  0.00  0.00    -0.002 C 
ATOM     34  C21 <0> A   1      -2.481   2.115  44.542  0.00  0.00    +0.004 C 
ATOM     35  C22 <0> A   1      -3.164   3.419  44.956  0.00  0.00    +0.009 C 
ENDBRANCH  29  30
ENDBRANCH   5  29
TORSDOF 13
