REMARK VINA RESULT:      -8.0      9.793     11.835
REMARK  Name = CHEMBL295717
REMARK  7 active torsions:
REMARK  status: ('A' for Active; 'I' for Inactive)
REMARK    1  A    between atoms: C1_1  and  C2_2
REMARK    2  A    between atoms: C4_4  and  C23_28
REMARK    3  A    between atoms: C5_5  and  C16_17
REMARK    4  A    between atoms: C6_6  and  C8_8
REMARK    5  A    between atoms: C9_9  and  C10_10
REMARK    6  A    between atoms: C17_18  and  C18_19
REMARK    7  A    between atoms: C20_21  and  O3_27
REMARK                            x       y       z     vdW  Elec       q    Type
REMARK                         _______ _______ _______ _____ _____    ______ ____
ROOT
ATOM      1  C1  <0> A   1     -12.276  14.043  48.182  0.00  0.00    +0.090 C 
ATOM      2  C2  <0> A   1     -12.930  12.759  47.743  0.00  0.00    -0.077 A 
ATOM      3  C3  <0> A   1     -13.812  12.110  48.591  0.00  0.00    +0.006 A 
ATOM      4  C4  <0> A   1     -14.419  10.932  48.204  0.00  0.00    -0.068 A 
ATOM      5  C5  <0> A   1     -14.147  10.388  46.950  0.00  0.00    -0.056 A 
ATOM      6  C6  <0> A   1     -13.250  11.047  46.085  0.00  0.00    -0.038 A 
ATOM      7  C7  <0> A   1     -12.650  12.241  46.495  0.00  0.00    +0.009 A 
ATOM      8  C23 <0> A   1     -15.376  10.236  49.137  0.00  0.00    +0.092 C 
ENDROOT
BRANCH   6   9
ATOM      9  C8  <0> A   1     -12.952  10.486  44.758  0.00  0.00    +0.028 C 
ATOM     10  C9  <0> A   1     -13.678  10.861  43.691  0.00  0.00    +0.016 C 
BRANCH  10  11
ATOM     11  C10 <0> A   1     -13.378  10.299  42.363  0.00  0.00    -0.050 A 
ATOM     12  C11 <0> A   1     -13.165   8.926  42.213  0.00  0.00    +0.034 A 
ATOM     13  C12 <0> A   1     -12.885   8.407  40.967  0.00  0.00    +0.029 A 
ATOM     14  C13 <0> A   1     -12.814   9.242  39.865  0.00  0.00    -0.035 A 
ATOM     15  C14 <0> A   1     -13.024  10.604  40.006  0.00  0.00    +0.027 A 
ATOM     16  C15 <0> A   1     -13.311  11.136  41.245  0.00  0.00    +0.038 A 
ATOM     17 Cl1  <0> A   1     -12.460   8.580  38.300  0.00  0.00    -0.069 Cl
ENDBRANCH  10  11
ENDBRANCH   6   9
BRANCH   5  18
ATOM     18  C16 <0> A   1     -14.793   9.129  46.531  0.00  0.00    +0.047 C 
ATOM     19  C17 <0> A   1     -14.085   8.007  46.480  0.00  0.00    -0.022 C 
BRANCH  19  20
ATOM     20  C18 <0> A   1     -14.708   6.748  45.933  0.00  0.00    +0.239 C 
ATOM     21  C19 <0> A   1     -13.963   5.528  46.481  0.00  0.00    +0.052 C 
ATOM     22  C20 <0> A   1     -14.573   4.253  45.891  0.00  0.00    +0.186 C 
ATOM     23  C21 <0> A   1     -14.453   4.307  44.363  0.00  0.00    +0.023 C 
ATOM     24  C22 <0> A   1     -15.028   5.624  43.888  0.00  0.00    +0.497 C 
ATOM     25  O1  <0> A   1     -15.826   5.662  42.982  0.00  0.00    -0.450 OA
ATOM     26  O2  <0> A   1     -14.621   6.753  44.504  0.00  0.00    -0.369 OA
BRANCH  22  27
ATOM     27  O3  <0> A   1     -15.950   4.165  46.263  0.00  0.00    -0.564 OA
ATOM     28  H20 <0> A   1     -16.286   4.952  46.715  0.00  0.00    +0.387 HD
ENDBRANCH  22  27
ENDBRANCH  19  20
ENDBRANCH   5  18
TORSDOF 5
