REMARK VINA RESULT:      -7.2      9.892     12.332
REMARK  Name = CHEMBL101497
REMARK  13 active torsions:
REMARK  status: ('A' for Active; 'I' for Inactive)
REMARK    1  A    between atoms: C1_1  and  C2_2
REMARK    2  A    between atoms: C2_2  and  C3_3
REMARK    3  A    between atoms: C2_2  and  C4_4
REMARK    4  A    between atoms: C11_12  and  C19_26
REMARK    5  A    between atoms: C12_13  and  O1_14
REMARK    6  A    between atoms: O1_14  and  C13_15
REMARK    7  A    between atoms: C13_15  and  C14_16
REMARK    8  A    between atoms: C14_16  and  C15_17
REMARK    9  A    between atoms: C14_16  and  O5_25
REMARK   10  A    between atoms: C15_17  and  C16_18
REMARK   11  A    between atoms: C16_18  and  C17_20
REMARK   12  A    between atoms: C16_18  and  O4_24
REMARK   13  A    between atoms: C17_20  and  C18_21
REMARK                            x       y       z     vdW  Elec       q    Type
REMARK                         _______ _______ _______ _____ _____    ______ ____
ROOT
ATOM      1  C4  <0> A   1      -4.148   4.006  45.891  0.00  0.00    -0.033 A 
ATOM      2  C5  <0> A   1      -3.002   3.510  45.238  0.00  0.00    -0.085 A 
ATOM      3  C6  <0> A   1      -3.098   2.506  44.261  0.00  0.00    +0.040 A 
ATOM      4  C7  <0> A   1      -1.971   2.051  43.649  0.00  0.00    +0.009 A 
ATOM      5  C8  <0> A   1      -0.720   2.567  43.980  0.00  0.00    +0.028 A 
ATOM      6  C9  <0> A   1      -0.588   3.540  44.923  0.00  0.00    +0.045 A 
ATOM      7  C10 <0> A   1      -1.730   4.037  45.576  0.00  0.00    +0.127 A 
ATOM      8  N1  <0> A   1      -1.627   4.993  46.505  0.00  0.00    -0.458 NA
ATOM      9  C11 <0> A   1      -2.692   5.464  47.124  0.00  0.00    +0.195 A 
ATOM     10  C12 <0> A   1      -3.985   4.987  46.829  0.00  0.00    +0.058 A 
ENDROOT
BRANCH   9  11
ATOM     11  C19 <0> A   1      -2.526   6.523  48.147  0.00  0.00    -0.070 A 
ATOM     12  C20 <0> A   1      -2.101   6.193  49.434  0.00  0.00    +0.100 A 
ATOM     13  C21 <0> A   1      -1.949   7.183  50.382  0.00  0.00    -0.015 A 
ATOM     14  C22 <0> A   1      -2.218   8.503  50.058  0.00  0.00    +0.115 A 
ATOM     15  C23 <0> A   1      -2.640   8.836  48.782  0.00  0.00    -0.026 A 
ATOM     16  C24 <0> A   1      -2.790   7.854  47.824  0.00  0.00    +0.087 A 
ATOM     17  F1  <0> A   1      -2.067   9.469  50.991  0.00  0.00    -0.136 F 
ENDBRANCH   9  11
BRANCH   1  19
ATOM     18  C1  <0> A   1      -6.062   4.194  44.327  0.00  0.00    +0.036 C 
ATOM     19  C2  <0> A   1      -5.517   3.471  45.560  0.00  0.00    +0.039 C 
ATOM     20  C3  <0> A   1      -5.425   1.972  45.273  0.00  0.00    +0.031 C 
ENDBRANCH   1  19
BRANCH  10  21
ATOM     21  O1  <0> A   1      -5.064   5.496  47.478  0.00  0.00    -0.310 OA
BRANCH  21  22
ATOM     22  C13 <0> A   1      -5.935   4.563  48.120  0.00  0.00    +0.149 C 
BRANCH  22  23
ATOM     23  C14 <0> A   1      -5.307   4.102  49.437  0.00  0.00    +0.228 C 
BRANCH  23  24
ATOM     24  O5  <0> A   1      -5.331   5.177  50.378  0.00  0.00    -0.530 OA
ATOM     25  H21 <0> A   1      -5.636   4.921  51.260  0.00  0.00    +0.363 HD
ENDBRANCH  23  24
BRANCH  23  26
ATOM     26  C15 <0> A   1      -6.102   2.919  49.993  0.00  0.00    -0.043 C 
BRANCH  26  27
ATOM     27  C16 <0> A   1      -7.340   2.683  49.126  0.00  0.00    +0.235 C 
BRANCH  27  28
ATOM     28  O4  <0> A   1      -7.478   1.285  48.862  0.00  0.00    -0.527 OA
ATOM     29  H20 <0> A   1      -8.383   1.009  48.666  0.00  0.00    +0.350 HD
ENDBRANCH  27  28
BRANCH  27  30
ATOM     30  C17 <0> A   1      -8.583   3.187  49.862  0.00  0.00    -0.101 C 
BRANCH  30  31
ATOM     31  C18 <0> A   1      -9.298   4.201  49.006  0.00  0.00    +0.491 C 
ATOM     32  O2  <0> A   1      -9.490   5.328  49.428  0.00  0.00    -0.680 OA
ATOM     33  O3  <0> A   1      -9.682   3.893  47.890  0.00  0.00    -0.712 OA
ENDBRANCH  30  31
ENDBRANCH  27  30
ENDBRANCH  26  27
ENDBRANCH  23  26
ENDBRANCH  22  23
ENDBRANCH  21  22
ENDBRANCH  10  21
TORSDOF 11
