REMARK VINA RESULT:      -7.7     30.861     33.205
REMARK  Name = CHEMBL300495
REMARK  6 active torsions:
REMARK  status: ('A' for Active; 'I' for Inactive)
REMARK    1  A    between atoms: C4_4  and  C7_7
REMARK    2  A    between atoms: C7_7  and  C8_8
REMARK    3  A    between atoms: C13_13  and  C14_14
REMARK    4  A    between atoms: C14_14  and  C15_15
REMARK    5  A    between atoms: C15_15  and  C16_16
REMARK    6  A    between atoms: C18_18  and  O3_24
REMARK                            x       y       z     vdW  Elec       q    Type
REMARK                         _______ _______ _______ _____ _____    ______ ____
ROOT
ATOM      1  C8  <0> A   1      -4.744   4.312  45.648  0.00  0.00    -0.048 A 
ATOM      2  C9  <0> A   1      -3.402   4.177  45.345  0.00  0.00    +0.045 A 
ATOM      3  C10 <0> A   1      -2.942   3.024  44.733  0.00  0.00    -0.024 A 
ATOM      4  C11 <0> A   1      -3.827   2.005  44.424  0.00  0.00    +0.039 A 
ATOM      5  C12 <0> A   1      -5.170   2.142  44.728  0.00  0.00    -0.021 A 
ATOM      6  C13 <0> A   1      -5.627   3.293  45.344  0.00  0.00    -0.068 A 
ATOM      7 Cl1  <0> A   1      -6.281   0.865  44.340  0.00  0.00    -0.053 Cl
ATOM      8 Cl2  <0> A   1      -1.257   2.855  44.352  0.00  0.00    -0.057 Cl
ENDROOT
BRANCH   1   9
ATOM      9  C7  <0> A   1      -5.242   5.567  46.314  0.00  0.00    +0.148 C 
BRANCH   9  13
ATOM     10  C1  <0> A   1      -2.430   6.824  49.274  0.00  0.00    +0.002 A 
ATOM     11  C2  <0> A   1      -2.648   7.603  48.153  0.00  0.00    +0.005 A 
ATOM     12  C3  <0> A   1      -3.558   7.196  47.196  0.00  0.00    +0.008 A 
ATOM     13  C4  <0> A   1      -4.249   6.010  47.358  0.00  0.00    -0.086 A 
ATOM     14  C5  <0> A   1      -4.032   5.231  48.479  0.00  0.00    +0.008 A 
ATOM     15  C6  <0> A   1      -3.123   5.639  49.437  0.00  0.00    +0.006 A 
ENDBRANCH   9  13
ENDBRANCH   1   9
BRANCH   6  16
ATOM     16  C14 <0> A   1      -7.089   3.438  45.681  0.00  0.00    +0.086 C 
BRANCH  16  17
ATOM     17  C15 <0> A   1      -7.331   2.966  47.116  0.00  0.00    +0.062 C 
BRANCH  17  18
ATOM     18  C16 <0> A   1      -8.634   3.573  47.639  0.00  0.00    +0.199 C 
ATOM     19  C17 <0> A   1      -8.778   5.004  47.116  0.00  0.00    +0.042 C 
ATOM     20  C18 <0> A   1     -10.064   5.623  47.674  0.00  0.00    +0.184 C 
ATOM     21  C19 <0> A   1      -9.990   5.622  49.207  0.00  0.00    +0.021 C 
ATOM     22  C20 <0> A   1      -9.649   4.220  49.664  0.00  0.00    +0.496 C 
ATOM     23  O1  <0> A   1     -10.286   3.679  50.536  0.00  0.00    -0.452 OA
ATOM     24  O2  <0> A   1      -8.613   3.592  49.070  0.00  0.00    -0.368 OA
BRANCH  20  25
ATOM     25  O3  <0> A   1     -11.190   4.854  47.245  0.00  0.00    -0.564 OA
ATOM     26  H20 <0> A   1     -11.095   4.481  46.358  0.00  0.00    +0.387 HD
ENDBRANCH  20  25
ENDBRANCH  17  18
ENDBRANCH  16  17
ENDBRANCH   6  16
TORSDOF 6
