REMARK VINA RESULT:      -8.9      0.000      0.000
REMARK  Name = CHEMBL341284
REMARK  11 active torsions:
REMARK  status: ('A' for Active; 'I' for Inactive)
REMARK    1  A    between atoms: C1_1  and  C2_2
REMARK    2  A    between atoms: C5_5  and  S1_8
REMARK    3  A    between atoms: S1_8  and  N1_11
REMARK    4  A    between atoms: C8_12  and  C21_31
REMARK    5  A    between atoms: C9_13  and  C14_19
REMARK    6  A    between atoms: C10_14  and  C11_16
REMARK    7  A    between atoms: C11_16  and  C12_17
REMARK    8  A    between atoms: C11_16  and  C13_18
REMARK    9  A    between atoms: C14_19  and  C15_20
REMARK   10  A    between atoms: C15_20  and  C16_21
REMARK   11  A    between atoms: C18_24  and  O5_30
REMARK                            x       y       z     vdW  Elec       q    Type
REMARK                         _______ _______ _______ _____ _____    ______ ____
ROOT
ATOM      1  N1  <0> A   1     -13.993   9.426  46.243  0.00  0.00    -0.734 N 
ATOM      2  C8  <0> A   1     -14.830   8.352  46.296  0.00  0.00    +0.141 C 
ATOM      3  C9  <0> A   1     -15.896   8.705  47.074  0.00  0.00    -0.168 C 
ATOM      4  C10 <0> A   1     -15.699  10.019  47.500  0.00  0.00    +0.127 C 
ATOM      5  N2  <0> A   1     -14.563  10.449  47.012  0.00  0.00    -0.237 NA
ENDROOT
BRANCH   2   6
ATOM      6  C21 <0> A   1     -14.623   7.046  45.633  0.00  0.00    -0.089 A 
ATOM      7  C22 <0> A   1     -14.147   5.957  46.364  0.00  0.00    +0.084 A 
ATOM      8  C23 <0> A   1     -13.955   4.741  45.741  0.00  0.00    -0.020 A 
ATOM      9  C24 <0> A   1     -14.236   4.600  44.391  0.00  0.00    +0.124 A 
ATOM     10  C25 <0> A   1     -14.709   5.678  43.661  0.00  0.00    -0.011 A 
ATOM     11  C26 <0> A   1     -14.908   6.897  44.276  0.00  0.00    +0.127 A 
ATOM     12  F1  <0> A   1     -14.047   3.407  43.786  0.00  0.00    -0.134 F 
ENDBRANCH   2   6
BRANCH   1  13
ATOM     13  S1  <0> A   1     -12.556   9.505  45.424  0.00  0.00    +2.687 S 
ATOM     14  O1  <0> A   1     -12.029   8.186  45.401  0.00  0.00    -0.914 OA
ATOM     15  O2  <0> A   1     -11.838  10.603  45.970  0.00  0.00    -0.921 OA
BRANCH  13  20
ATOM     16  C1  <0> A   1     -13.831  10.955  39.709  0.00  0.00    +0.105 C 
ATOM     17  C2  <0> A   1     -13.513  10.593  41.136  0.00  0.00    -0.018 A 
ATOM     18  C3  <0> A   1     -14.064  11.321  42.173  0.00  0.00    -0.005 A 
ATOM     19  C4  <0> A   1     -13.772  10.989  43.483  0.00  0.00    +0.131 A 
ATOM     20  C5  <0> A   1     -12.929   9.928  43.755  0.00  0.00    -0.682 A 
ATOM     21  C6  <0> A   1     -12.378   9.199  42.718  0.00  0.00    +0.137 A 
ATOM     22  C7  <0> A   1     -12.673   9.530  41.408  0.00  0.00    -0.004 A 
ENDBRANCH  13  20
ENDBRANCH   1  13
BRANCH   4  23
ATOM     23  C11 <0> A   1     -16.633  10.808  48.380  0.00  0.00    +0.076 C 
ATOM     24  C12 <0> A   1     -16.084  10.839  49.808  0.00  0.00    +0.041 C 
ATOM     25  C13 <0> A   1     -16.750  12.238  47.848  0.00  0.00    +0.041 C 
ENDBRANCH   4  23
BRANCH   3  26
ATOM     26  C14 <0> A   1     -17.076   7.831  47.412  0.00  0.00    +0.117 C 
BRANCH  26  27
ATOM     27  C15 <0> A   1     -16.811   7.105  48.732  0.00  0.00    +0.055 C 
BRANCH  27  28
ATOM     28  C16 <0> A   1     -17.795   5.942  48.882  0.00  0.00    +0.198 C 
ATOM     29  C17 <0> A   1     -17.653   5.329  50.278  0.00  0.00    +0.040 C 
ATOM     30  C18 <0> A   1     -18.669   4.193  50.438  0.00  0.00    +0.183 C 
ATOM     31  C19 <0> A   1     -20.082   4.760  50.248  0.00  0.00    +0.021 C 
ATOM     32  C20 <0> A   1     -20.113   5.527  48.945  0.00  0.00    +0.496 C 
ATOM     33  O3  <0> A   1     -20.992   5.342  48.136  0.00  0.00    -0.452 OA
ATOM     34  O4  <0> A   1     -19.133   6.424  48.710  0.00  0.00    -0.366 OA
BRANCH  30  35
ATOM     35  O5  <0> A   1     -18.419   3.185  49.456  0.00  0.00    -0.564 OA
ATOM     36  H25 <0> A   1     -19.210   2.887  48.988  0.00  0.00    +0.387 HD
ENDBRANCH  30  35
ENDBRANCH  27  28
ENDBRANCH  26  27
ENDBRANCH   3  26
TORSDOF 8
