REMARK VINA RESULT:      -7.2     16.940     20.094
REMARK  Name = CHEMBL152893
REMARK  13 active torsions:
REMARK  status: ('A' for Active; 'I' for Inactive)
REMARK    1  A    between atoms: C1_1  and  C2_2
REMARK    2  A    between atoms: C2_2  and  C3_3
REMARK    3  A    between atoms: C2_2  and  C4_4
REMARK    4  A    between atoms: C5_5  and  C20_21
REMARK    5  A    between atoms: C6_6  and  C14_15
REMARK    6  A    between atoms: C7_7  and  C8_9
REMARK    7  A    between atoms: C21_22  and  C22_23
REMARK    8  A    between atoms: C22_23  and  C23_25
REMARK    9  A    between atoms: C22_23  and  O4_33
REMARK   10  A    between atoms: C23_25  and  C24_26
REMARK   11  A    between atoms: C24_26  and  C25_28
REMARK   12  A    between atoms: C24_26  and  O3_32
REMARK   13  A    between atoms: C25_28  and  C26_29
REMARK                            x       y       z     vdW  Elec       q    Type
REMARK                         _______ _______ _______ _____ _____    ______ ____
ROOT
ATOM      1  C4  <0> A   1     -27.848  -5.713  50.646  0.00  0.00    -0.120 C 
ATOM      2  C5  <0> A   1     -26.611  -5.284  51.054  0.00  0.00    -0.085 C 
ATOM      3  C6  <0> A   1     -26.398  -3.920  51.209  0.00  0.00    -0.080 C 
ATOM      4  C7  <0> A   1     -27.427  -3.062  50.948  0.00  0.00    -0.120 C 
ATOM      5  S1  <0> A   1     -28.736  -4.175  50.466  0.00  0.00    +0.051 S 
ENDROOT
BRANCH   4   6
ATOM      6  C8  <0> A   1     -27.451  -1.586  51.038  0.00  0.00    -0.004 A 
ATOM      7  C9  <0> A   1     -26.886  -0.813  50.023  0.00  0.00    +0.012 A 
ATOM      8  C10 <0> A   1     -26.911   0.564  50.113  0.00  0.00    +0.003 A 
ATOM      9  C11 <0> A   1     -27.494   1.177  51.207  0.00  0.00    +0.006 A 
ATOM     10  C12 <0> A   1     -28.056   0.417  52.218  0.00  0.00    -0.001 A 
ATOM     11  C13 <0> A   1     -28.043  -0.960  52.136  0.00  0.00    +0.047 A 
ENDBRANCH   4   6
BRANCH   3  12
ATOM     12  C14 <0> A   1     -25.057  -3.398  51.655  0.00  0.00    +0.052 C 
ATOM     13  C15 <0> A   1     -25.258  -2.341  52.742  0.00  0.00    +0.009 C 
ATOM     14  C16 <0> A   1     -23.897  -1.811  53.196  0.00  0.00    +0.011 C 
ATOM     15  C17 <0> A   1     -23.171  -1.184  52.004  0.00  0.00    -0.001 C 
ATOM     16  C18 <0> A   1     -22.970  -2.241  50.917  0.00  0.00    +0.011 C 
ATOM     17  C19 <0> A   1     -24.331  -2.771  50.463  0.00  0.00    +0.009 C 
ENDBRANCH   3  12
BRANCH   1  19
ATOM     18  C1  <0> A   1     -28.963  -7.667  51.687  0.00  0.00    +0.035 C 
ATOM     19  C2  <0> A   1     -28.330  -7.119  50.406  0.00  0.00    +0.082 C 
ATOM     20  C3  <0> A   1     -29.371  -7.118  49.284  0.00  0.00    +0.034 C 
ENDBRANCH   1  19
BRANCH   2  21
ATOM     21  C20 <0> A   1     -25.528  -6.252  51.324  0.00  0.00    +0.023 C 
ATOM     22  C21 <0> A   1     -25.018  -6.971  50.334  0.00  0.00    -0.056 C 
BRANCH  22  23
ATOM     23  C22 <0> A   1     -23.913  -7.958  50.609  0.00  0.00    +0.250 C 
BRANCH  23  24
ATOM     24  O4  <0> A   1     -24.417  -9.024  51.417  0.00  0.00    -0.538 OA
ATOM     25  H33 <0> A   1     -24.075  -9.896  51.173  0.00  0.00    +0.365 HD
ENDBRANCH  23  24
BRANCH  23  26
ATOM     26  C23 <0> A   1     -23.392  -8.522  49.286  0.00  0.00    -0.042 C 
BRANCH  26  27
ATOM     27  C24 <0> A   1     -24.481  -8.407  48.217  0.00  0.00    +0.231 C 
BRANCH  27  28
ATOM     28  O3  <0> A   1     -23.916  -7.876  47.016  0.00  0.00    -0.528 OA
ATOM     29  H32 <0> A   1     -24.473  -7.992  46.235  0.00  0.00    +0.350 HD
ENDBRANCH  27  28
BRANCH  27  30
ATOM     30  C25 <0> A   1     -25.068  -9.791  47.935  0.00  0.00    -0.102 C 
BRANCH  30  31
ATOM     31  C26 <0> A   1     -26.459  -9.873  48.509  0.00  0.00    +0.490 C 
ATOM     32  O1  <0> A   1     -27.428  -9.740  47.782  0.00  0.00    -0.681 OA
ATOM     33  O2  <0> A   1     -26.615 -10.074  49.701  0.00  0.00    -0.713 OA
ENDBRANCH  30  31
ENDBRANCH  27  30
ENDBRANCH  26  27
ENDBRANCH  23  26
ENDBRANCH  22  23
ENDBRANCH   2  21
TORSDOF 11
