REMARK VINA RESULT:      -7.6      0.000      0.000
REMARK  Name = CHEMBL121052
REMARK  12 active torsions:
REMARK  status: ('A' for Active; 'I' for Inactive)
REMARK    1  A    between atoms: C3_3  and  C5_6
REMARK    2  A    between atoms: C6_7  and  C16_28
REMARK    3  A    between atoms: C7_9  and  C15_24
REMARK    4  A    between atoms: N2_10  and  C8_11
REMARK    5  A    between atoms: C8_11  and  C9_12
REMARK    6  A    between atoms: C9_12  and  C10_13
REMARK    7  A    between atoms: C10_13  and  C11_15
REMARK    8  A    between atoms: C10_13  and  O4_23
REMARK    9  A    between atoms: C11_15  and  C12_16
REMARK   10  A    between atoms: C12_16  and  C13_18
REMARK   11  A    between atoms: C12_16  and  O3_22
REMARK   12  A    between atoms: C13_18  and  C14_19
REMARK                            x       y       z     vdW  Elec       q    Type
REMARK                         _______ _______ _______ _____ _____    ______ ____
ROOT
ATOM      1  C5  <0> A   1     -15.028   7.901  46.142  0.00  0.00    +0.115 C 
ATOM      2  C6  <0> A   1     -16.009   8.449  46.954  0.00  0.00    +0.073 C 
ATOM      3  N1  <0> A   1     -15.743   9.763  47.079  0.00  0.00    -0.413 NA
ATOM      4  C7  <0> A   1     -14.671  10.059  46.400  0.00  0.00    +0.119 C 
ATOM      5  N2  <0> A   1     -14.186   8.939  45.806  0.00  0.00    -0.413 N 
ENDROOT
BRANCH   2   6
ATOM      6  C16 <0> A   1     -17.142   7.722  47.571  0.00  0.00    -0.015 A 
ATOM      7  C17 <0> A   1     -18.278   7.426  46.818  0.00  0.00    +0.066 A 
ATOM      8  C18 <0> A   1     -19.330   6.749  47.398  0.00  0.00    -0.013 A 
ATOM      9  C19 <0> A   1     -19.260   6.361  48.726  0.00  0.00    +0.103 A 
ATOM     10  C20 <0> A   1     -18.134   6.653  49.479  0.00  0.00    -0.015 A 
ATOM     11  C21 <0> A   1     -17.073   7.324  48.907  0.00  0.00    +0.080 A 
ATOM     12  F4  <0> A   1     -20.293   5.697  49.290  0.00  0.00    -0.139 F 
ENDBRANCH   2   6
BRANCH   1  15
ATOM     13  C1  <0> A   1     -15.354   4.465  44.592  0.00  0.00    -0.020 C 
ATOM     14  C2  <0> A   1     -15.664   5.788  44.813  0.00  0.00    +0.032 C 
ATOM     15  C3  <0> A   1     -14.908   6.496  45.729  0.00  0.00    -0.117 C 
ATOM     16  S1  <0> A   1     -13.744   5.258  46.278  0.00  0.00    +0.081 S 
ATOM     17  C4  <0> A   1     -14.326   3.900  45.275  0.00  0.00    +0.032 C 
ENDBRANCH   1  15
BRANCH   4  18
ATOM     18  C15 <0> A   1     -14.059  11.433  46.297  0.00  0.00    +0.565 C 
ATOM     19  F1  <0> A   1     -12.733  11.388  46.740  0.00  0.00    -0.148 F 
ATOM     20  F2  <0> A   1     -14.092  11.859  44.965  0.00  0.00    -0.166 F 
ATOM     21  F3  <0> A   1     -14.787  12.328  47.090  0.00  0.00    -0.161 F 
ENDBRANCH   4  18
BRANCH   5  22
ATOM     22  C8  <0> A   1     -12.993   8.849  44.961  0.00  0.00    +0.309 C 
BRANCH  22  23
ATOM     23  C9  <0> A   1     -13.411   8.582  43.514  0.00  0.00    -0.012 C 
BRANCH  23  24
ATOM     24  C10 <0> A   1     -12.344   7.728  42.825  0.00  0.00    +0.223 C 
BRANCH  24  25
ATOM     25  O4  <0> A   1     -12.731   6.353  42.874  0.00  0.00    -0.537 OA
ATOM     26  H15 <0> A   1     -12.145   5.761  42.383  0.00  0.00    +0.365 HD
ENDBRANCH  24  25
BRANCH  24  27
ATOM     27  C11 <0> A   1     -12.204   8.166  41.366  0.00  0.00    -0.045 C 
BRANCH  27  28
ATOM     28  C12 <0> A   1     -12.756   9.584  41.204  0.00  0.00    +0.233 C 
BRANCH  28  29
ATOM     29  O3  <0> A   1     -11.709  10.531  41.430  0.00  0.00    -0.527 OA
ATOM     30  H14 <0> A   1     -10.824  10.140  41.451  0.00  0.00    +0.350 HD
ENDBRANCH  28  29
BRANCH  28  31
ATOM     31  C13 <0> A   1     -13.304   9.758  39.786  0.00  0.00    -0.101 C 
BRANCH  31  32
ATOM     32  C14 <0> A   1     -13.348  11.225  39.442  0.00  0.00    +0.491 C 
ATOM     33  O1  <0> A   1     -14.299  11.905  39.790  0.00  0.00    -0.681 OA
ATOM     34  O2  <0> A   1     -12.433  11.732  38.816  0.00  0.00    -0.712 OA
ENDBRANCH  31  32
ENDBRANCH  28  31
ENDBRANCH  27  28
ENDBRANCH  24  27
ENDBRANCH  23  24
ENDBRANCH  22  23
ENDBRANCH   5  22
TORSDOF 12
