REMARK VINA RESULT:      -7.4      4.209      6.741
REMARK  Name = CHEMBL11891
REMARK  11 active torsions:
REMARK  status: ('A' for Active; 'I' for Inactive)
REMARK    1  A    between atoms: C6_6  and  C7_7
REMARK    2  A    between atoms: C7_7  and  C17_27
REMARK    3  A    between atoms: C8_8  and  C9_9
REMARK    4  A    between atoms: C8_8  and  N1_22
REMARK    5  A    between atoms: C10_10  and  C11_11
REMARK    6  A    between atoms: C11_11  and  C12_13
REMARK    7  A    between atoms: C11_11  and  O4_21
REMARK    8  A    between atoms: C12_13  and  C13_14
REMARK    9  A    between atoms: C13_14  and  C14_16
REMARK   10  A    between atoms: C13_14  and  O3_20
REMARK   11  A    between atoms: C14_16  and  C15_17
REMARK                            x       y       z     vdW  Elec       q    Type
REMARK                         _______ _______ _______ _____ _____    ______ ____
ROOT
ATOM      1  C7  <0> A   1     -13.373   8.378  44.763  0.00  0.00    -0.013 C 
ATOM      2  C8  <0> A   1     -12.702   8.712  45.905  0.00  0.00    +0.158 C 
ENDROOT
BRANCH   1   8
ATOM      3  C1  <0> A   1     -15.360   7.044  45.454  0.00  0.00    +0.071 A 
ATOM      4  C2  <0> A   1     -16.108   5.887  45.404  0.00  0.00    -0.011 A 
ATOM      5  C3  <0> A   1     -15.691   4.821  44.623  0.00  0.00    +0.111 A 
ATOM      6  C4  <0> A   1     -14.520   4.911  43.887  0.00  0.00    -0.005 A 
ATOM      7  C5  <0> A   1     -13.763   6.063  43.929  0.00  0.00    +0.067 A 
ATOM      8  C6  <0> A   1     -14.179   7.141  44.714  0.00  0.00    -0.058 A 
ATOM      9  F2  <0> A   1     -16.428   3.690  44.578  0.00  0.00    -0.136 F 
ENDBRANCH   1   8
BRANCH   1  10
ATOM     10  C17 <0> A   1     -13.292   9.255  43.577  0.00  0.00    -0.080 A 
ATOM     11  C18 <0> A   1     -14.138  10.360  43.463  0.00  0.00    +0.060 A 
ATOM     12  C19 <0> A   1     -14.058  11.175  42.353  0.00  0.00    -0.008 A 
ATOM     13  C20 <0> A   1     -13.140  10.898  41.351  0.00  0.00    +0.112 A 
ATOM     14  C21 <0> A   1     -12.299   9.803  41.459  0.00  0.00    -0.007 A 
ATOM     15  C22 <0> A   1     -12.366   8.984  42.566  0.00  0.00    +0.072 A 
ATOM     16  F1  <0> A   1     -13.067  11.701  40.267  0.00  0.00    -0.135 F 
ENDBRANCH   1  10
BRANCH   2  17
ATOM     17  N1  <0> A   1     -11.939   9.881  45.951  0.00  0.00    -0.332 N 
ATOM     18  C16 <0> A   1     -12.330  11.099  46.390  0.00  0.00    +0.468 C 
ATOM     19  N2  <0> A   1     -11.308  11.905  46.258  0.00  0.00    -0.329 NA
ATOM     20  N3  <0> A   1     -10.300  11.281  45.764  0.00  0.00    -0.035 NA
ATOM     21  N4  <0> A   1     -10.600  10.045  45.554  0.00  0.00    -0.068 NA
ENDBRANCH   2  17
BRANCH   2  22
ATOM     22  C9  <0> A   1     -12.781   7.841  47.082  0.00  0.00    +0.005 C 
ATOM     23  C10 <0> A   1     -11.665   7.428  47.682  0.00  0.00    -0.010 C 
BRANCH  23  24
ATOM     24  C11 <0> A   1     -11.741   6.442  48.820  0.00  0.00    +0.254 C 
BRANCH  24  25
ATOM     25  O4  <0> A   1     -12.490   5.297  48.408  0.00  0.00    -0.533 OA
ATOM     26  H14 <0> A   1     -13.222   5.073  49.000  0.00  0.00    +0.365 HD
ENDBRANCH  24  25
BRANCH  24  27
ATOM     27  C12 <0> A   1     -10.328   6.013  49.218  0.00  0.00    -0.039 C 
BRANCH  27  28
ATOM     28  C13 <0> A   1     -10.151   4.519  48.937  0.00  0.00    +0.233 C 
BRANCH  28  29
ATOM     29  O3  <0> A   1     -10.049   4.308  47.527  0.00  0.00    -0.527 OA
ATOM     30  H13 <0> A   1      -9.148   4.382  47.182  0.00  0.00    +0.350 HD
ENDBRANCH  28  29
BRANCH  28  31
ATOM     31  C14 <0> A   1      -8.878   4.018  49.621  0.00  0.00    -0.101 C 
BRANCH  31  32
ATOM     32  C15 <0> A   1      -7.886   3.578  48.576  0.00  0.00    +0.491 C 
ATOM     33  O1  <0> A   1      -7.124   4.389  48.079  0.00  0.00    -0.681 OA
ATOM     34  O2  <0> A   1      -7.845   2.410  48.227  0.00  0.00    -0.712 OA
ENDBRANCH  31  32
ENDBRANCH  28  31
ENDBRANCH  27  28
ENDBRANCH  24  27
ENDBRANCH  23  24
ENDBRANCH   2  22
TORSDOF 11
