MODEL 1
REMARK VINA RESULT:      -8.5      0.000      0.000
REMARK  Name = CHEMBL471744
REMARK  17 active torsions:
REMARK  status: ('A' for Active; 'I' for Inactive)
REMARK    1  A    between atoms: C1_1  and  C2_2
REMARK    2  A    between atoms: C2_2  and  C3_3
REMARK    3  A    between atoms: C4_4  and  C23_31
REMARK    4  A    between atoms: C5_5  and  C20_28
REMARK    5  A    between atoms: C6_6  and  C14_21
REMARK    6  A    between atoms: N1_7  and  C7_8
REMARK    7  A    between atoms: C7_8  and  C8_9
REMARK    8  A    between atoms: C8_9  and  C9_10
REMARK    9  A    between atoms: C9_10  and  C10_12
REMARK   10  A    between atoms: C9_10  and  O4_20
REMARK   11  A    between atoms: C10_12  and  C11_13
REMARK   12  A    between atoms: C11_13  and  C12_15
REMARK   13  A    between atoms: C11_13  and  O3_19
REMARK   14  A    between atoms: C12_15  and  C13_16
REMARK   15  A    between atoms: C20_28  and  C21_29
REMARK   16  A    between atoms: C20_28  and  C22_30
REMARK   17  A    between atoms: N2_33  and  C24_34
REMARK                            x       y       z     vdW  Elec       q    Type
REMARK                         _______ _______ _______ _____ _____    ______ ____
ROOT
ATOM      1  C3  <0> A   1     -15.039   6.862  45.839  0.00  0.00    +0.089 C 
ATOM      2  C4  <0> A   1     -15.987   7.434  46.660  0.00  0.00    -0.221 C 
ATOM      3  C5  <0> A   1     -15.603   8.787  46.855  0.00  0.00    -0.086 C 
ATOM      4  C6  <0> A   1     -14.454   8.978  46.157  0.00  0.00    +0.043 C 
ATOM      5  N1  <0> A   1     -14.114   7.797  45.544  0.00  0.00    -0.413 N 
ENDROOT
BRANCH   4   6
ATOM      6  C14 <0> A   1     -13.693  10.244  46.074  0.00  0.00    -0.023 A 
ATOM      7  C15 <0> A   1     -13.920  11.130  45.019  0.00  0.00    +0.065 A 
ATOM      8  C16 <0> A   1     -13.208  12.309  44.947  0.00  0.00    -0.009 A 
ATOM      9  C17 <0> A   1     -12.269  12.615  45.919  0.00  0.00    +0.102 A 
ATOM     10  C18 <0> A   1     -12.039  11.738  46.967  0.00  0.00    -0.006 A 
ATOM     11  C19 <0> A   1     -12.750  10.560  47.053  0.00  0.00    +0.046 A 
ATOM     12  F1  <0> A   1     -11.574  13.771  45.843  0.00  0.00    -0.138 F 
ENDBRANCH   4   6
BRANCH   2  13
ATOM     13  C23 <0> A   1     -17.174   6.771  47.226  0.00  0.00    +0.606 C 
ATOM     14  O5  <0> A   1     -18.140   6.547  46.522  0.00  0.00    -0.512 OA
ATOM     15  N2  <0> A   1     -17.189   6.410  48.524  0.00  0.00    -0.671 N 
ATOM     16  H29 <0> A   1     -16.391   6.517  49.067  0.00  0.00    +0.411 HD
BRANCH  15  17
ATOM     17  C24 <0> A   1     -18.353   5.880  49.090  0.00  0.00    +0.151 A 
ATOM     18  C25 <0> A   1     -18.463   4.513  49.306  0.00  0.00    -0.024 A 
ATOM     19  C26 <0> A   1     -19.615   3.994  49.866  0.00  0.00    +0.024 A 
ATOM     20  C27 <0> A   1     -20.657   4.834  50.209  0.00  0.00    -0.018 A 
ATOM     21  C28 <0> A   1     -20.551   6.197  49.994  0.00  0.00    +0.024 A 
ATOM     22  C29 <0> A   1     -19.400   6.723  49.442  0.00  0.00    +0.011 A 
ENDBRANCH  15  17
ENDBRANCH   2  13
BRANCH   3  23
ATOM     23  C20 <0> A   1     -16.329   9.815  47.681  0.00  0.00    +0.048 C 
ATOM     24  C21 <0> A   1     -15.522  10.117  48.946  0.00  0.00    +0.021 C 
ATOM     25  C22 <0> A   1     -16.498  11.099  46.865  0.00  0.00    +0.024 C 
ENDBRANCH   3  23
BRANCH   1  27
ATOM     26  C1  <0> A   1     -15.891   5.315  44.098  0.00  0.00    +0.035 C 
ATOM     27  C2  <0> A   1     -15.035   5.433  45.360  0.00  0.00    +0.099 C 
ENDBRANCH   1  27
BRANCH   5  28
ATOM     28  C7  <0> A   1     -12.935   7.587  44.700  0.00  0.00    +0.293 C 
BRANCH  28  29
ATOM     29  C8  <0> A   1     -13.311   7.811  43.235  0.00  0.00    -0.014 C 
BRANCH  29  30
ATOM     30  C9  <0> A   1     -12.100   7.518  42.347  0.00  0.00    +0.217 C 
BRANCH  30  31
ATOM     31  O4  <0> A   1     -11.920   6.105  42.237  0.00  0.00    -0.541 OA
ATOM     32  H17 <0> A   1     -11.141   5.846  41.725  0.00  0.00    +0.366 HD
ENDBRANCH  30  31
BRANCH  30  33
ATOM     33  C10 <0> A   1     -12.330   8.113  40.957  0.00  0.00    -0.048 C 
BRANCH  33  34
ATOM     34  C11 <0> A   1     -12.889   9.530  41.094  0.00  0.00    +0.231 C 
BRANCH  34  35
ATOM     35  O3  <0> A   1     -11.814  10.471  41.059  0.00  0.00    -0.528 OA
ATOM     36  H16 <0> A   1     -11.921  11.214  41.669  0.00  0.00    +0.350 HD
ENDBRANCH  34  35
BRANCH  34  37
ATOM     37  C12 <0> A   1     -13.852   9.813  39.939  0.00  0.00    -0.102 C 
BRANCH  37  38
ATOM     38  C13 <0> A   1     -13.957  11.301  39.725  0.00  0.00    +0.490 C 
ATOM     39  O1  <0> A   1     -14.612  11.983  40.495  0.00  0.00    -0.681 OA
ATOM     40  O2  <0> A   1     -13.385  11.823  38.784  0.00  0.00    -0.712 OA
ENDBRANCH  37  38
ENDBRANCH  34  37
ENDBRANCH  33  34
ENDBRANCH  30  33
ENDBRANCH  29  30
ENDBRANCH  28  29
ENDBRANCH   5  28
TORSDOF 14
ENDMDL
MODEL 2
REMARK VINA RESULT:      -8.2      1.841      3.746
REMARK  Name = CHEMBL471744
REMARK  17 active torsions:
REMARK  status: ('A' for Active; 'I' for Inactive)
REMARK    1  A    between atoms: C1_1  and  C2_2
REMARK    2  A    between atoms: C2_2  and  C3_3
REMARK    3  A    between atoms: C4_4  and  C23_31
REMARK    4  A    between atoms: C5_5  and  C20_28
REMARK    5  A    between atoms: C6_6  and  C14_21
REMARK    6  A    between atoms: N1_7  and  C7_8
REMARK    7  A    between atoms: C7_8  and  C8_9
REMARK    8  A    between atoms: C8_9  and  C9_10
REMARK    9  A    between atoms: C9_10  and  C10_12
REMARK   10  A    between atoms: C9_10  and  O4_20
REMARK   11  A    between atoms: C10_12  and  C11_13
REMARK   12  A    between atoms: C11_13  and  C12_15
REMARK   13  A    between atoms: C11_13  and  O3_19
REMARK   14  A    between atoms: C12_15  and  C13_16
REMARK   15  A    between atoms: C20_28  and  C21_29
REMARK   16  A    between atoms: C20_28  and  C22_30
REMARK   17  A    between atoms: N2_33  and  C24_34
REMARK                            x       y       z     vdW  Elec       q    Type
REMARK                         _______ _______ _______ _____ _____    ______ ____
ROOT
ATOM      1  C3  <0> A   1     -15.737   8.756  47.020  0.00  0.00    +0.089 C 
ATOM      2  C4  <0> A   1     -16.191   7.486  46.738  0.00  0.00    -0.221 C 
ATOM      3  C5  <0> A   1     -15.315   6.940  45.764  0.00  0.00    -0.086 C 
ATOM      4  C6  <0> A   1     -14.379   7.886  45.497  0.00  0.00    +0.043 C 
ATOM      5  N1  <0> A   1     -14.647   8.993  46.263  0.00  0.00    -0.413 N 
ENDROOT
BRANCH   4   6
ATOM      6  C14 <0> A   1     -13.261   7.749  44.537  0.00  0.00    -0.023 A 
ATOM      7  C15 <0> A   1     -11.941   7.814  44.986  0.00  0.00    +0.065 A 
ATOM      8  C16 <0> A   1     -10.903   7.686  44.087  0.00  0.00    -0.009 A 
ATOM      9  C17 <0> A   1     -11.168   7.494  42.741  0.00  0.00    +0.102 A 
ATOM     10  C18 <0> A   1     -12.476   7.430  42.290  0.00  0.00    -0.006 A 
ATOM     11  C19 <0> A   1     -13.523   7.550  43.181  0.00  0.00    +0.046 A 
ATOM     12  F1  <0> A   1     -10.147   7.369  41.865  0.00  0.00    -0.138 F 
ENDBRANCH   4   6
BRANCH   2  13
ATOM     13  C23 <0> A   1     -17.362   6.821  47.334  0.00  0.00    +0.606 C 
ATOM     14  O5  <0> A   1     -18.386   6.697  46.688  0.00  0.00    -0.512 OA
ATOM     15  N2  <0> A   1     -17.300   6.349  48.594  0.00  0.00    -0.671 N 
ATOM     16  H29 <0> A   1     -16.462   6.378  49.083  0.00  0.00    +0.411 HD
BRANCH  15  17
ATOM     17  C24 <0> A   1     -18.443   5.817  49.200  0.00  0.00    +0.151 A 
ATOM     18  C25 <0> A   1     -18.562   4.445  49.380  0.00  0.00    -0.024 A 
ATOM     19  C26 <0> A   1     -19.692   3.923  49.978  0.00  0.00    +0.024 A 
ATOM     20  C27 <0> A   1     -20.705   4.765  50.397  0.00  0.00    -0.018 A 
ATOM     21  C28 <0> A   1     -20.591   6.132  50.219  0.00  0.00    +0.024 A 
ATOM     22  C29 <0> A   1     -19.461   6.661  49.628  0.00  0.00    +0.011 A 
ENDBRANCH  15  17
ENDBRANCH   2  13
BRANCH   3  23
ATOM     23  C20 <0> A   1     -15.407   5.571  45.143  0.00  0.00    +0.048 C 
ATOM     24  C21 <0> A   1     -15.605   4.524  46.243  0.00  0.00    +0.021 C 
ATOM     25  C22 <0> A   1     -16.594   5.526  44.178  0.00  0.00    +0.024 C 
ENDBRANCH   3  23
BRANCH   1  27
ATOM     26  C1  <0> A   1     -15.723   9.522  49.378  0.00  0.00    +0.035 C 
ATOM     27  C2  <0> A   1     -16.358   9.718  48.000  0.00  0.00    +0.099 C 
ENDBRANCH   1  27
BRANCH   5  28
ATOM     28  C7  <0> A   1     -13.868  10.234  46.262  0.00  0.00    +0.293 C 
BRANCH  28  29
ATOM     29  C8  <0> A   1     -14.553  11.264  45.363  0.00  0.00    -0.014 C 
BRANCH  29  30
ATOM     30  C9  <0> A   1     -13.615  11.643  44.215  0.00  0.00    +0.217 C 
BRANCH  30  31
ATOM     31  O4  <0> A   1     -12.302  11.154  44.491  0.00  0.00    -0.541 OA
ATOM     32  H17 <0> A   1     -12.000  10.469  43.879  0.00  0.00    +0.366 HD
ENDBRANCH  30  31
BRANCH  30  33
ATOM     33  C10 <0> A   1     -14.126  11.025  42.912  0.00  0.00    -0.048 C 
BRANCH  33  34
ATOM     34  C11 <0> A   1     -13.278  11.528  41.742  0.00  0.00    +0.231 C 
BRANCH  34  35
ATOM     35  O3  <0> A   1     -12.016  10.859  41.747  0.00  0.00    -0.528 OA
ATOM     36  H16 <0> A   1     -12.080   9.896  41.815  0.00  0.00    +0.350 HD
ENDBRANCH  34  35
BRANCH  34  37
ATOM     37  C12 <0> A   1     -14.003  11.238  40.426  0.00  0.00    -0.102 C 
BRANCH  37  38
ATOM     38  C13 <0> A   1     -12.991  11.071  39.321  0.00  0.00    +0.490 C 
ATOM     39  O1  <0> A   1     -12.736   9.960  38.891  0.00  0.00    -0.681 OA
ATOM     40  O2  <0> A   1     -12.429  12.049  38.858  0.00  0.00    -0.712 OA
ENDBRANCH  37  38
ENDBRANCH  34  37
ENDBRANCH  33  34
ENDBRANCH  30  33
ENDBRANCH  29  30
ENDBRANCH  28  29
ENDBRANCH   5  28
TORSDOF 14
ENDMDL
MODEL 3
REMARK VINA RESULT:      -8.2      0.676      1.127
REMARK  Name = CHEMBL471744
REMARK  17 active torsions:
REMARK  status: ('A' for Active; 'I' for Inactive)
REMARK    1  A    between atoms: C1_1  and  C2_2
REMARK    2  A    between atoms: C2_2  and  C3_3
REMARK    3  A    between atoms: C4_4  and  C23_31
REMARK    4  A    between atoms: C5_5  and  C20_28
REMARK    5  A    between atoms: C6_6  and  C14_21
REMARK    6  A    between atoms: N1_7  and  C7_8
REMARK    7  A    between atoms: C7_8  and  C8_9
REMARK    8  A    between atoms: C8_9  and  C9_10
REMARK    9  A    between atoms: C9_10  and  C10_12
REMARK   10  A    between atoms: C9_10  and  O4_20
REMARK   11  A    between atoms: C10_12  and  C11_13
REMARK   12  A    between atoms: C11_13  and  C12_15
REMARK   13  A    between atoms: C11_13  and  O3_19
REMARK   14  A    between atoms: C12_15  and  C13_16
REMARK   15  A    between atoms: C20_28  and  C21_29
REMARK   16  A    between atoms: C20_28  and  C22_30
REMARK   17  A    between atoms: N2_33  and  C24_34
REMARK                            x       y       z     vdW  Elec       q    Type
REMARK                         _______ _______ _______ _____ _____    ______ ____
ROOT
ATOM      1  C3  <0> A   1     -15.219   6.756  45.796  0.00  0.00    +0.089 C 
ATOM      2  C4  <0> A   1     -16.084   7.307  46.717  0.00  0.00    -0.221 C 
ATOM      3  C5  <0> A   1     -15.652   8.640  46.944  0.00  0.00    -0.086 C 
ATOM      4  C6  <0> A   1     -14.559   8.842  46.164  0.00  0.00    +0.043 C 
ATOM      5  N1  <0> A   1     -14.298   7.686  45.471  0.00  0.00    -0.413 N 
ENDROOT
BRANCH   4   6
ATOM      6  C14 <0> A   1     -13.777  10.095  46.080  0.00  0.00    -0.023 A 
ATOM      7  C15 <0> A   1     -14.055  11.027  45.079  0.00  0.00    +0.065 A 
ATOM      8  C16 <0> A   1     -13.323  12.194  45.004  0.00  0.00    -0.009 A 
ATOM      9  C17 <0> A   1     -12.313  12.441  45.921  0.00  0.00    +0.102 A 
ATOM     10  C18 <0> A   1     -12.033  11.518  46.915  0.00  0.00    -0.006 A 
ATOM     11  C19 <0> A   1     -12.763  10.351  47.003  0.00  0.00    +0.046 A 
ATOM     12  F1  <0> A   1     -11.599  13.585  45.843  0.00  0.00    -0.138 F 
ENDBRANCH   4   6
BRANCH   2  13
ATOM     13  C23 <0> A   1     -17.237   6.641  47.345  0.00  0.00    +0.606 C 
ATOM     14  O5  <0> A   1     -18.275   6.507  46.725  0.00  0.00    -0.512 OA
ATOM     15  N2  <0> A   1     -17.142   6.179  48.607  0.00  0.00    -0.671 N 
ATOM     16  H29 <0> A   1     -16.293   6.217  49.076  0.00  0.00    +0.411 HD
BRANCH  15  17
ATOM     17  C24 <0> A   1     -18.268   5.646  49.244  0.00  0.00    +0.151 A 
ATOM     18  C25 <0> A   1     -19.274   6.488  49.702  0.00  0.00    -0.024 A 
ATOM     19  C26 <0> A   1     -20.383   5.957  50.330  0.00  0.00    +0.024 A 
ATOM     20  C27 <0> A   1     -20.493   4.590  50.505  0.00  0.00    -0.018 A 
ATOM     21  C28 <0> A   1     -19.493   3.749  50.052  0.00  0.00    +0.024 A 
ATOM     22  C29 <0> A   1     -18.384   4.272  49.416  0.00  0.00    +0.011 A 
ENDBRANCH  15  17
ENDBRANCH   2  13
BRANCH   3  23
ATOM     23  C20 <0> A   1     -16.286   9.642  47.873  0.00  0.00    +0.048 C 
ATOM     24  C21 <0> A   1     -15.396   9.829  49.104  0.00  0.00    +0.021 C 
ATOM     25  C22 <0> A   1     -16.443  10.981  47.150  0.00  0.00    +0.024 C 
ENDBRANCH   3  23
BRANCH   1  27
ATOM     26  C1  <0> A   1     -16.273   5.305  44.083  0.00  0.00    +0.035 C 
ATOM     27  C2  <0> A   1     -15.287   5.352  45.252  0.00  0.00    +0.099 C 
ENDBRANCH   1  27
BRANCH   5  28
ATOM     28  C7  <0> A   1     -13.195   7.494  44.526  0.00  0.00    +0.293 C 
BRANCH  28  29
ATOM     29  C8  <0> A   1     -13.703   7.713  43.100  0.00  0.00    -0.014 C 
BRANCH  29  30
ATOM     30  C9  <0> A   1     -12.531   7.618  42.121  0.00  0.00    +0.217 C 
BRANCH  30  31
ATOM     31  O4  <0> A   1     -11.932   6.324  42.219  0.00  0.00    -0.541 OA
ATOM     32  H17 <0> A   1     -11.803   5.885  41.367  0.00  0.00    +0.366 HD
ENDBRANCH  30  31
BRANCH  30  33
ATOM     33  C10 <0> A   1     -13.037   7.838  40.695  0.00  0.00    -0.048 C 
BRANCH  33  34
ATOM     34  C11 <0> A   1     -12.318   9.039  40.078  0.00  0.00    +0.231 C 
BRANCH  34  35
ATOM     35  O3  <0> A   1     -12.445   8.992  38.656  0.00  0.00    -0.528 OA
ATOM     36  H16 <0> A   1     -12.888   9.762  38.274  0.00  0.00    +0.350 HD
ENDBRANCH  34  35
BRANCH  34  37
ATOM     37  C12 <0> A   1     -12.944  10.334  40.603  0.00  0.00    -0.102 C 
BRANCH  37  38
ATOM     38  C13 <0> A   1     -13.303  11.224  39.441  0.00  0.00    +0.490 C 
ATOM     39  O1  <0> A   1     -12.438  11.878  38.884  0.00  0.00    -0.681 OA
ATOM     40  O2  <0> A   1     -14.459  11.289  39.058  0.00  0.00    -0.712 OA
ENDBRANCH  37  38
ENDBRANCH  34  37
ENDBRANCH  33  34
ENDBRANCH  30  33
ENDBRANCH  29  30
ENDBRANCH  28  29
ENDBRANCH   5  28
TORSDOF 14
ENDMDL
MODEL 4
REMARK VINA RESULT:      -8.0      1.421      2.116
REMARK  Name = CHEMBL471744
REMARK  17 active torsions:
REMARK  status: ('A' for Active; 'I' for Inactive)
REMARK    1  A    between atoms: C1_1  and  C2_2
REMARK    2  A    between atoms: C2_2  and  C3_3
REMARK    3  A    between atoms: C4_4  and  C23_31
REMARK    4  A    between atoms: C5_5  and  C20_28
REMARK    5  A    between atoms: C6_6  and  C14_21
REMARK    6  A    between atoms: N1_7  and  C7_8
REMARK    7  A    between atoms: C7_8  and  C8_9
REMARK    8  A    between atoms: C8_9  and  C9_10
REMARK    9  A    between atoms: C9_10  and  C10_12
REMARK   10  A    between atoms: C9_10  and  O4_20
REMARK   11  A    between atoms: C10_12  and  C11_13
REMARK   12  A    between atoms: C11_13  and  C12_15
REMARK   13  A    between atoms: C11_13  and  O3_19
REMARK   14  A    between atoms: C12_15  and  C13_16
REMARK   15  A    between atoms: C20_28  and  C21_29
REMARK   16  A    between atoms: C20_28  and  C22_30
REMARK   17  A    between atoms: N2_33  and  C24_34
REMARK                            x       y       z     vdW  Elec       q    Type
REMARK                         _______ _______ _______ _____ _____    ______ ____
ROOT
ATOM      1  C3  <0> A   1     -15.768   6.213  45.203  0.00  0.00    +0.089 C 
ATOM      2  C4  <0> A   1     -16.181   6.889  46.331  0.00  0.00    -0.221 C 
ATOM      3  C5  <0> A   1     -15.131   7.775  46.690  0.00  0.00    -0.086 C 
ATOM      4  C6  <0> A   1     -14.138   7.604  45.780  0.00  0.00    +0.043 C 
ATOM      5  N1  <0> A   1     -14.533   6.645  44.879  0.00  0.00    -0.413 N 
ENDROOT
BRANCH   4   6
ATOM      6  C14 <0> A   1     -12.846   8.325  45.764  0.00  0.00    -0.023 A 
ATOM      7  C15 <0> A   1     -11.687   7.692  46.215  0.00  0.00    +0.065 A 
ATOM      8  C16 <0> A   1     -10.485   8.369  46.198  0.00  0.00    -0.009 A 
ATOM      9  C17 <0> A   1     -10.428   9.674  45.736  0.00  0.00    +0.102 A 
ATOM     10  C18 <0> A   1     -11.577  10.306  45.289  0.00  0.00    -0.006 A 
ATOM     11  C19 <0> A   1     -12.783   9.637  45.295  0.00  0.00    +0.046 A 
ATOM     12  F1  <0> A   1      -9.248  10.332  45.721  0.00  0.00    -0.138 F 
ENDBRANCH   4   6
BRANCH   2  13
ATOM     13  C23 <0> A   1     -17.466   6.724  47.031  0.00  0.00    +0.606 C 
ATOM     14  O5  <0> A   1     -18.499   7.081  46.498  0.00  0.00    -0.512 OA
ATOM     15  N2  <0> A   1     -17.497   6.177  48.262  0.00  0.00    -0.671 N 
ATOM     16  H29 <0> A   1     -16.685   5.822  48.657  0.00  0.00    +0.411 HD
BRANCH  15  17
ATOM     17  C24 <0> A   1     -18.701   6.121  48.973  0.00  0.00    +0.151 A 
ATOM     18  C25 <0> A   1     -19.193   7.258  49.600  0.00  0.00    -0.024 A 
ATOM     19  C26 <0> A   1     -20.382   7.199  50.301  0.00  0.00    +0.024 A 
ATOM     20  C27 <0> A   1     -21.080   6.009  50.380  0.00  0.00    -0.018 A 
ATOM     21  C28 <0> A   1     -20.593   4.874  49.758  0.00  0.00    +0.024 A 
ATOM     22  C29 <0> A   1     -19.409   4.928  49.049  0.00  0.00    +0.011 A 
ENDBRANCH  15  17
ENDBRANCH   2  13
BRANCH   3  23
ATOM     23  C20 <0> A   1     -15.120   8.724  47.859  0.00  0.00    +0.048 C 
ATOM     24  C21 <0> A   1     -16.423   9.528  47.875  0.00  0.00    +0.021 C 
ATOM     25  C22 <0> A   1     -14.996   7.930  49.161  0.00  0.00    +0.024 C 
ENDBRANCH   3  23
BRANCH   1  27
ATOM     26  C1  <0> A   1     -16.080   3.774  44.881  0.00  0.00    +0.035 C 
ATOM     27  C2  <0> A   1     -16.560   5.165  44.463  0.00  0.00    +0.099 C 
ENDBRANCH   1  27
BRANCH   5  28
ATOM     28  C7  <0> A   1     -13.738   6.169  43.744  0.00  0.00    +0.293 C 
BRANCH  28  29
ATOM     29  C8  <0> A   1     -13.741   7.228  42.641  0.00  0.00    -0.014 C 
BRANCH  29  30
ATOM     30  C9  <0> A   1     -12.317   7.426  42.119  0.00  0.00    +0.217 C 
BRANCH  30  31
ATOM     31  O4  <0> A   1     -11.621   6.178  42.150  0.00  0.00    -0.541 OA
ATOM     32  H17 <0> A   1     -11.670   5.722  43.001  0.00  0.00    +0.366 HD
ENDBRANCH  30  31
BRANCH  30  33
ATOM     33  C10 <0> A   1     -12.367   7.946  40.681  0.00  0.00    -0.048 C 
BRANCH  33  34
ATOM     34  C11 <0> A   1     -12.835   9.402  40.681  0.00  0.00    +0.231 C 
BRANCH  34  35
ATOM     35  O3  <0> A   1     -11.845  10.220  41.307  0.00  0.00    -0.528 OA
ATOM     36  H16 <0> A   1     -11.984  10.351  42.255  0.00  0.00    +0.350 HD
ENDBRANCH  34  35
BRANCH  34  37
ATOM     37  C12 <0> A   1     -13.045   9.871  39.239  0.00  0.00    -0.102 C 
BRANCH  37  38
ATOM     38  C13 <0> A   1     -13.177  11.372  39.213  0.00  0.00    +0.490 C 
ATOM     39  O1  <0> A   1     -12.326  12.049  38.661  0.00  0.00    -0.681 OA
ATOM     40  O2  <0> A   1     -14.134  11.908  39.744  0.00  0.00    -0.712 OA
ENDBRANCH  37  38
ENDBRANCH  34  37
ENDBRANCH  33  34
ENDBRANCH  30  33
ENDBRANCH  29  30
ENDBRANCH  28  29
ENDBRANCH   5  28
TORSDOF 14
ENDMDL
MODEL 5
REMARK VINA RESULT:      -7.7      3.586      6.489
REMARK  Name = CHEMBL471744
REMARK  17 active torsions:
REMARK  status: ('A' for Active; 'I' for Inactive)
REMARK    1  A    between atoms: C1_1  and  C2_2
REMARK    2  A    between atoms: C2_2  and  C3_3
REMARK    3  A    between atoms: C4_4  and  C23_31
REMARK    4  A    between atoms: C5_5  and  C20_28
REMARK    5  A    between atoms: C6_6  and  C14_21
REMARK    6  A    between atoms: N1_7  and  C7_8
REMARK    7  A    between atoms: C7_8  and  C8_9
REMARK    8  A    between atoms: C8_9  and  C9_10
REMARK    9  A    between atoms: C9_10  and  C10_12
REMARK   10  A    between atoms: C9_10  and  O4_20
REMARK   11  A    between atoms: C10_12  and  C11_13
REMARK   12  A    between atoms: C11_13  and  C12_15
REMARK   13  A    between atoms: C11_13  and  O3_19
REMARK   14  A    between atoms: C12_15  and  C13_16
REMARK   15  A    between atoms: C20_28  and  C21_29
REMARK   16  A    between atoms: C20_28  and  C22_30
REMARK   17  A    between atoms: N2_33  and  C24_34
REMARK                            x       y       z     vdW  Elec       q    Type
REMARK                         _______ _______ _______ _____ _____    ______ ____
ROOT
ATOM      1  C3  <0> A   1     -12.444   9.800  46.377  0.00  0.00    +0.089 C 
ATOM      2  C4  <0> A   1     -12.698   9.528  47.704  0.00  0.00    -0.221 C 
ATOM      3  C5  <0> A   1     -13.446   8.322  47.744  0.00  0.00    -0.086 C 
ATOM      4  C6  <0> A   1     -13.613   7.916  46.459  0.00  0.00    +0.043 C 
ATOM      5  N1  <0> A   1     -13.003   8.826  45.631  0.00  0.00    -0.413 N 
ENDROOT
BRANCH   4   6
ATOM      6  C14 <0> A   1     -14.335   6.700  46.023  0.00  0.00    -0.023 A 
ATOM      7  C15 <0> A   1     -15.701   6.761  45.742  0.00  0.00    +0.065 A 
ATOM      8  C16 <0> A   1     -16.370   5.625  45.336  0.00  0.00    -0.009 A 
ATOM      9  C17 <0> A   1     -15.688   4.425  45.209  0.00  0.00    +0.102 A 
ATOM     10  C18 <0> A   1     -14.333   4.359  45.488  0.00  0.00    -0.006 A 
ATOM     11  C19 <0> A   1     -13.653   5.491  45.888  0.00  0.00    +0.046 A 
ATOM     12  F1  <0> A   1     -16.348   3.315  44.811  0.00  0.00    -0.138 F 
ENDBRANCH   4   6
BRANCH   2  13
ATOM     13  C23 <0> A   1     -12.276  10.335  48.861  0.00  0.00    +0.606 C 
ATOM     14  O5  <0> A   1     -12.955  11.275  49.228  0.00  0.00    -0.512 OA
ATOM     15  N2  <0> A   1     -11.137  10.031  49.514  0.00  0.00    -0.671 N 
ATOM     16  H29 <0> A   1     -10.635   9.237  49.272  0.00  0.00    +0.411 HD
BRANCH  15  17
ATOM     17  C24 <0> A   1     -10.677  10.861  50.543  0.00  0.00    +0.151 A 
ATOM     18  C25 <0> A   1     -11.129  10.675  51.843  0.00  0.00    -0.024 A 
ATOM     19  C26 <0> A   1     -10.673  11.496  52.855  0.00  0.00    +0.024 A 
ATOM     20  C27 <0> A   1      -9.768  12.503  52.575  0.00  0.00    -0.018 A 
ATOM     21  C28 <0> A   1      -9.316  12.691  51.281  0.00  0.00    +0.024 A 
ATOM     22  C29 <0> A   1      -9.762  11.870  50.266  0.00  0.00    +0.011 A 
ENDBRANCH  15  17
ENDBRANCH   2  13
BRANCH   3  23
ATOM     23  C20 <0> A   1     -13.957   7.625  48.976  0.00  0.00    +0.048 C 
ATOM     24  C21 <0> A   1     -12.774   7.109  49.798  0.00  0.00    +0.021 C 
ATOM     25  C22 <0> A   1     -14.772   8.609  49.819  0.00  0.00    +0.024 C 
ENDBRANCH   3  23
BRANCH   1  27
ATOM     26  C1  <0> A   1     -12.630  12.170  45.670  0.00  0.00    +0.035 C 
ATOM     27  C2  <0> A   1     -11.677  10.986  45.851  0.00  0.00    +0.099 C 
ENDBRANCH   1  27
BRANCH   5  28
ATOM     28  C7  <0> A   1     -12.964   8.749  44.169  0.00  0.00    +0.293 C 
BRANCH  28  29
ATOM     29  C8  <0> A   1     -11.710   7.990  43.732  0.00  0.00    -0.014 C 
BRANCH  29  30
ATOM     30  C9  <0> A   1     -11.807   7.659  42.241  0.00  0.00    +0.217 C 
BRANCH  30  31
ATOM     31  O4  <0> A   1     -11.832   6.241  42.069  0.00  0.00    -0.541 OA
ATOM     32  H17 <0> A   1     -11.648   5.743  42.877  0.00  0.00    +0.366 HD
ENDBRANCH  30  31
BRANCH  30  33
ATOM     33  C10 <0> A   1     -13.088   8.265  41.666  0.00  0.00    -0.048 C 
BRANCH  33  34
ATOM     34  C11 <0> A   1     -12.728   9.272  40.571  0.00  0.00    +0.231 C 
BRANCH  34  35
ATOM     35  O3  <0> A   1     -13.336   8.874  39.340  0.00  0.00    -0.528 OA
ATOM     36  H16 <0> A   1     -12.704   8.605  38.658  0.00  0.00    +0.350 HD
ENDBRANCH  34  35
BRANCH  34  37
ATOM     37  C12 <0> A   1     -13.240  10.659  40.966  0.00  0.00    -0.102 C 
BRANCH  37  38
ATOM     38  C13 <0> A   1     -13.961  11.280  39.797  0.00  0.00    +0.490 C 
ATOM     39  O1  <0> A   1     -13.330  11.854  38.926  0.00  0.00    -0.681 OA
ATOM     40  O2  <0> A   1     -15.175  11.206  39.722  0.00  0.00    -0.712 OA
ENDBRANCH  37  38
ENDBRANCH  34  37
ENDBRANCH  33  34
ENDBRANCH  30  33
ENDBRANCH  29  30
ENDBRANCH  28  29
ENDBRANCH   5  28
TORSDOF 14
ENDMDL
MODEL 6
REMARK VINA RESULT:      -7.5     15.887     20.532
REMARK  Name = CHEMBL471744
REMARK  17 active torsions:
REMARK  status: ('A' for Active; 'I' for Inactive)
REMARK    1  A    between atoms: C1_1  and  C2_2
REMARK    2  A    between atoms: C2_2  and  C3_3
REMARK    3  A    between atoms: C4_4  and  C23_31
REMARK    4  A    between atoms: C5_5  and  C20_28
REMARK    5  A    between atoms: C6_6  and  C14_21
REMARK    6  A    between atoms: N1_7  and  C7_8
REMARK    7  A    between atoms: C7_8  and  C8_9
REMARK    8  A    between atoms: C8_9  and  C9_10
REMARK    9  A    between atoms: C9_10  and  C10_12
REMARK   10  A    between atoms: C9_10  and  O4_20
REMARK   11  A    between atoms: C10_12  and  C11_13
REMARK   12  A    between atoms: C11_13  and  C12_15
REMARK   13  A    between atoms: C11_13  and  O3_19
REMARK   14  A    between atoms: C12_15  and  C13_16
REMARK   15  A    between atoms: C20_28  and  C21_29
REMARK   16  A    between atoms: C20_28  and  C22_30
REMARK   17  A    between atoms: N2_33  and  C24_34
REMARK                            x       y       z     vdW  Elec       q    Type
REMARK                         _______ _______ _______ _____ _____    ______ ____
ROOT
ATOM      1  C3  <0> A   1     -25.588  -4.009  50.846  0.00  0.00    +0.089 C 
ATOM      2  C4  <0> A   1     -26.740  -3.287  50.621  0.00  0.00    -0.221 C 
ATOM      3  C5  <0> A   1     -27.793  -4.227  50.468  0.00  0.00    -0.086 C 
ATOM      4  C6  <0> A   1     -27.246  -5.462  50.603  0.00  0.00    +0.043 C 
ATOM      5  N1  <0> A   1     -25.899  -5.320  50.829  0.00  0.00    -0.413 N 
ENDROOT
BRANCH   4   6
ATOM      6  C14 <0> A   1     -27.977  -6.746  50.517  0.00  0.00    -0.023 A 
ATOM      7  C15 <0> A   1     -28.477  -7.346  51.673  0.00  0.00    +0.065 A 
ATOM      8  C16 <0> A   1     -29.158  -8.542  51.587  0.00  0.00    -0.009 A 
ATOM      9  C17 <0> A   1     -29.345  -9.149  50.355  0.00  0.00    +0.102 A 
ATOM     10  C18 <0> A   1     -28.849  -8.558  49.204  0.00  0.00    -0.006 A 
ATOM     11  C19 <0> A   1     -28.173  -7.358  49.278  0.00  0.00    +0.046 A 
ATOM     12  F1  <0> A   1     -30.012 -10.320  50.277  0.00  0.00    -0.138 F 
ENDBRANCH   4   6
BRANCH   2  13
ATOM     13  C23 <0> A   1     -26.858  -1.821  50.553  0.00  0.00    +0.606 C 
ATOM     14  O5  <0> A   1     -26.476  -1.225  49.564  0.00  0.00    -0.512 OA
ATOM     15  N2  <0> A   1     -27.391  -1.139  51.586  0.00  0.00    -0.671 N 
ATOM     16  H29 <0> A   1     -27.766  -1.618  52.342  0.00  0.00    +0.411 HD
BRANCH  15  17
ATOM     17  C24 <0> A   1     -27.403   0.259  51.570  0.00  0.00    +0.151 A 
ATOM     18  C25 <0> A   1     -26.260   0.970  51.913  0.00  0.00    -0.024 A 
ATOM     19  C26 <0> A   1     -26.275   2.351  51.897  0.00  0.00    +0.024 A 
ATOM     20  C27 <0> A   1     -27.428   3.026  51.541  0.00  0.00    -0.018 A 
ATOM     21  C28 <0> A   1     -28.569   2.322  51.200  0.00  0.00    +0.024 A 
ATOM     22  C29 <0> A   1     -28.558   0.941  51.207  0.00  0.00    +0.011 A 
ENDBRANCH  15  17
ENDBRANCH   2  13
BRANCH   3  23
ATOM     23  C20 <0> A   1     -29.242  -3.914  50.204  0.00  0.00    +0.048 C 
ATOM     24  C21 <0> A   1     -29.705  -4.662  48.951  0.00  0.00    +0.021 C 
ATOM     25  C22 <0> A   1     -30.086  -4.355  51.402  0.00  0.00    +0.024 C 
ENDBRANCH   3  23
BRANCH   1  27
ATOM     26  C1  <0> A   1     -24.194  -2.650  52.384  0.00  0.00    +0.035 C 
ATOM     27  C2  <0> A   1     -24.214  -3.430  51.068  0.00  0.00    +0.099 C 
ENDBRANCH   1  27
BRANCH   5  28
ATOM     28  C7  <0> A   1     -24.951  -6.420  51.023  0.00  0.00    +0.293 C 
BRANCH  28  29
ATOM     29  C8  <0> A   1     -24.393  -6.857  49.668  0.00  0.00    -0.014 C 
BRANCH  29  30
ATOM     30  C9  <0> A   1     -24.496  -8.378  49.540  0.00  0.00    +0.217 C 
BRANCH  30  31
ATOM     31  O4  <0> A   1     -23.202  -8.923  49.274  0.00  0.00    -0.541 OA
ATOM     32  H17 <0> A   1     -23.140  -9.397  48.434  0.00  0.00    +0.366 HD
ENDBRANCH  30  31
BRANCH  30  33
ATOM     33  C10 <0> A   1     -25.037  -8.965  50.845  0.00  0.00    -0.048 C 
BRANCH  33  34
ATOM     34  C11 <0> A   1     -25.758 -10.282  50.553  0.00  0.00    +0.231 C 
BRANCH  34  35
ATOM     35  O3  <0> A   1     -26.018 -10.381  49.151  0.00  0.00    -0.528 OA
ATOM     36  H16 <0> A   1     -26.890 -10.056  48.888  0.00  0.00    +0.350 HD
ENDBRANCH  34  35
BRANCH  34  37
ATOM     37  C12 <0> A   1     -24.877 -11.454  50.991  0.00  0.00    -0.102 C 
BRANCH  37  38
ATOM     38  C13 <0> A   1     -24.482 -12.265  49.784  0.00  0.00    +0.490 C 
ATOM     39  O1  <0> A   1     -23.536 -11.916  49.098  0.00  0.00    -0.681 OA
ATOM     40  O2  <0> A   1     -25.107 -13.270  49.494  0.00  0.00    -0.712 OA
ENDBRANCH  37  38
ENDBRANCH  34  37
ENDBRANCH  33  34
ENDBRANCH  30  33
ENDBRANCH  29  30
ENDBRANCH  28  29
ENDBRANCH   5  28
TORSDOF 14
ENDMDL
MODEL 7
REMARK VINA RESULT:      -7.5     12.508     15.282
REMARK  Name = CHEMBL471744
REMARK  17 active torsions:
REMARK  status: ('A' for Active; 'I' for Inactive)
REMARK    1  A    between atoms: C1_1  and  C2_2
REMARK    2  A    between atoms: C2_2  and  C3_3
REMARK    3  A    between atoms: C4_4  and  C23_31
REMARK    4  A    between atoms: C5_5  and  C20_28
REMARK    5  A    between atoms: C6_6  and  C14_21
REMARK    6  A    between atoms: N1_7  and  C7_8
REMARK    7  A    between atoms: C7_8  and  C8_9
REMARK    8  A    between atoms: C8_9  and  C9_10
REMARK    9  A    between atoms: C9_10  and  C10_12
REMARK   10  A    between atoms: C9_10  and  O4_20
REMARK   11  A    between atoms: C10_12  and  C11_13
REMARK   12  A    between atoms: C11_13  and  C12_15
REMARK   13  A    between atoms: C11_13  and  O3_19
REMARK   14  A    between atoms: C12_15  and  C13_16
REMARK   15  A    between atoms: C20_28  and  C21_29
REMARK   16  A    between atoms: C20_28  and  C22_30
REMARK   17  A    between atoms: N2_33  and  C24_34
REMARK                            x       y       z     vdW  Elec       q    Type
REMARK                         _______ _______ _______ _____ _____    ______ ____
ROOT
ATOM      1  C3  <0> A   1     -22.323  -1.465  51.952  0.00  0.00    +0.089 C 
ATOM      2  C4  <0> A   1     -22.634  -0.151  52.230  0.00  0.00    -0.221 C 
ATOM      3  C5  <0> A   1     -21.627   0.337  53.102  0.00  0.00    -0.086 C 
ATOM      4  C6  <0> A   1     -20.757  -0.684  53.317  0.00  0.00    +0.043 C 
ATOM      5  N1  <0> A   1     -21.193  -1.781  52.615  0.00  0.00    -0.413 N 
ENDROOT
BRANCH   4   6
ATOM      6  C14 <0> A   1     -19.548  -0.626  54.167  0.00  0.00    -0.023 A 
ATOM      7  C15 <0> A   1     -18.311  -0.310  53.603  0.00  0.00    +0.065 A 
ATOM      8  C16 <0> A   1     -17.187  -0.257  54.400  0.00  0.00    -0.009 A 
ATOM      9  C17 <0> A   1     -17.283  -0.517  55.758  0.00  0.00    +0.102 A 
ATOM     10  C18 <0> A   1     -18.509  -0.833  56.322  0.00  0.00    -0.006 A 
ATOM     11  C19 <0> A   1     -19.641  -0.882  55.536  0.00  0.00    +0.046 A 
ATOM     12  F1  <0> A   1     -16.179  -0.464  56.534  0.00  0.00    -0.138 F 
ENDBRANCH   4   6
BRANCH   2  13
ATOM     13  C23 <0> A   1     -23.791   0.603  51.719  0.00  0.00    +0.606 C 
ATOM     14  O5  <0> A   1     -23.668   1.319  50.743  0.00  0.00    -0.512 OA
ATOM     15  N2  <0> A   1     -24.986   0.500  52.332  0.00  0.00    -0.671 N 
ATOM     16  H29 <0> A   1     -25.105  -0.128  53.063  0.00  0.00    +0.411 HD
BRANCH  15  17
ATOM     17  C24 <0> A   1     -26.057   1.299  51.917  0.00  0.00    +0.151 A 
ATOM     18  C25 <0> A   1     -26.995   0.797  51.024  0.00  0.00    -0.024 A 
ATOM     19  C26 <0> A   1     -28.051   1.589  50.617  0.00  0.00    +0.024 A 
ATOM     20  C27 <0> A   1     -28.174   2.880  51.096  0.00  0.00    -0.018 A 
ATOM     21  C28 <0> A   1     -27.242   3.383  51.986  0.00  0.00    +0.024 A 
ATOM     22  C29 <0> A   1     -26.188   2.594  52.402  0.00  0.00    +0.011 A 
ENDBRANCH  15  17
ENDBRANCH   2  13
BRANCH   3  23
ATOM     23  C20 <0> A   1     -21.538   1.724  53.682  0.00  0.00    +0.048 C 
ATOM     24  C21 <0> A   1     -21.337   2.737  52.552  0.00  0.00    +0.021 C 
ATOM     25  C22 <0> A   1     -22.832   2.048  54.432  0.00  0.00    +0.024 C 
ENDBRANCH   3  23
BRANCH   1  27
ATOM     26  C1  <0> A   1     -24.229  -3.050  51.880  0.00  0.00    +0.035 C 
ATOM     27  C2  <0> A   1     -23.115  -2.390  51.064  0.00  0.00    +0.099 C 
ENDBRANCH   1  27
BRANCH   5  28
ATOM     28  C7  <0> A   1     -20.531  -3.088  52.589  0.00  0.00    +0.293 C 
BRANCH  28  29
ATOM     29  C8  <0> A   1     -21.060  -3.950  53.736  0.00  0.00    -0.014 C 
BRANCH  29  30
ATOM     30  C9  <0> A   1     -19.885  -4.486  54.556  0.00  0.00    +0.217 C 
BRANCH  30  31
ATOM     31  O4  <0> A   1     -19.935  -5.914  54.585  0.00  0.00    -0.541 OA
ATOM     32  H17 <0> A   1     -20.814  -6.280  54.416  0.00  0.00    +0.366 HD
ENDBRANCH  30  31
BRANCH  30  33
ATOM     33  C10 <0> A   1     -18.569  -4.035  53.918  0.00  0.00    -0.048 C 
BRANCH  33  34
ATOM     34  C11 <0> A   1     -17.411  -4.830  54.522  0.00  0.00    +0.231 C 
BRANCH  34  35
ATOM     35  O3  <0> A   1     -17.096  -5.935  53.673  0.00  0.00    -0.528 OA
ATOM     36  H16 <0> A   1     -17.254  -6.799  54.077  0.00  0.00    +0.350 HD
ENDBRANCH  34  35
BRANCH  34  37
ATOM     37  C12 <0> A   1     -16.184  -3.923  54.653  0.00  0.00    -0.102 C 
BRANCH  37  38
ATOM     38  C13 <0> A   1     -14.987  -4.752  55.041  0.00  0.00    +0.490 C 
ATOM     39  O1  <0> A   1     -14.475  -5.503  54.228  0.00  0.00    -0.681 OA
ATOM     40  O2  <0> A   1     -14.529  -4.670  56.168  0.00  0.00    -0.712 OA
ENDBRANCH  37  38
ENDBRANCH  34  37
ENDBRANCH  33  34
ENDBRANCH  30  33
ENDBRANCH  29  30
ENDBRANCH  28  29
ENDBRANCH   5  28
TORSDOF 14
ENDMDL
MODEL 8
REMARK VINA RESULT:      -7.4     16.756     21.390
REMARK  Name = CHEMBL471744
REMARK  17 active torsions:
REMARK  status: ('A' for Active; 'I' for Inactive)
REMARK    1  A    between atoms: C1_1  and  C2_2
REMARK    2  A    between atoms: C2_2  and  C3_3
REMARK    3  A    between atoms: C4_4  and  C23_31
REMARK    4  A    between atoms: C5_5  and  C20_28
REMARK    5  A    between atoms: C6_6  and  C14_21
REMARK    6  A    between atoms: N1_7  and  C7_8
REMARK    7  A    between atoms: C7_8  and  C8_9
REMARK    8  A    between atoms: C8_9  and  C9_10
REMARK    9  A    between atoms: C9_10  and  C10_12
REMARK   10  A    between atoms: C9_10  and  O4_20
REMARK   11  A    between atoms: C10_12  and  C11_13
REMARK   12  A    between atoms: C11_13  and  C12_15
REMARK   13  A    between atoms: C11_13  and  O3_19
REMARK   14  A    between atoms: C12_15  and  C13_16
REMARK   15  A    between atoms: C20_28  and  C21_29
REMARK   16  A    between atoms: C20_28  and  C22_30
REMARK   17  A    between atoms: N2_33  and  C24_34
REMARK                            x       y       z     vdW  Elec       q    Type
REMARK                         _______ _______ _______ _____ _____    ______ ____
ROOT
ATOM      1  C3  <0> A   1     -28.300  -4.543  52.185  0.00  0.00    +0.089 C 
ATOM      2  C4  <0> A   1     -27.396  -3.535  51.931  0.00  0.00    -0.221 C 
ATOM      3  C5  <0> A   1     -26.206  -4.153  51.466  0.00  0.00    -0.086 C 
ATOM      4  C6  <0> A   1     -26.432  -5.492  51.456  0.00  0.00    +0.043 C 
ATOM      5  N1  <0> A   1     -27.710  -5.722  51.902  0.00  0.00    -0.413 N 
ENDROOT
BRANCH   4   6
ATOM      6  C14 <0> A   1     -25.462  -6.530  51.041  0.00  0.00    -0.023 A 
ATOM      7  C15 <0> A   1     -25.308  -6.842  49.690  0.00  0.00    +0.065 A 
ATOM      8  C16 <0> A   1     -24.402  -7.810  49.308  0.00  0.00    -0.009 A 
ATOM      9  C17 <0> A   1     -23.647  -8.472  50.264  0.00  0.00    +0.102 A 
ATOM     10  C18 <0> A   1     -23.797  -8.165  51.606  0.00  0.00    -0.006 A 
ATOM     11  C19 <0> A   1     -24.695  -7.195  51.999  0.00  0.00    +0.046 A 
ATOM     12  F1  <0> A   1     -22.761  -9.419  49.884  0.00  0.00    -0.138 F 
ENDBRANCH   4   6
BRANCH   2  13
ATOM     13  C23 <0> A   1     -27.620  -2.090  52.108  0.00  0.00    +0.606 C 
ATOM     14  O5  <0> A   1     -27.237  -1.534  53.120  0.00  0.00    -0.512 OA
ATOM     15  N2  <0> A   1     -28.250  -1.384  51.149  0.00  0.00    -0.671 N 
ATOM     16  H29 <0> A   1     -28.488  -1.809  50.310  0.00  0.00    +0.411 HD
BRANCH  15  17
ATOM     17  C24 <0> A   1     -28.563  -0.037  51.363  0.00  0.00    +0.151 A 
ATOM     18  C25 <0> A   1     -27.652   0.953  51.017  0.00  0.00    -0.024 A 
ATOM     19  C26 <0> A   1     -27.963   2.281  51.229  0.00  0.00    +0.024 A 
ATOM     20  C27 <0> A   1     -29.181   2.627  51.787  0.00  0.00    -0.018 A 
ATOM     21  C28 <0> A   1     -30.090   1.643  52.133  0.00  0.00    +0.024 A 
ATOM     22  C29 <0> A   1     -29.787   0.314  51.917  0.00  0.00    +0.011 A 
ENDBRANCH  15  17
ENDBRANCH   2  13
BRANCH   3  23
ATOM     23  C20 <0> A   1     -24.934  -3.457  51.060  0.00  0.00    +0.048 C 
ATOM     24  C21 <0> A   1     -25.272  -2.243  50.191  0.00  0.00    +0.021 C 
ATOM     25  C22 <0> A   1     -24.183  -2.996  52.311  0.00  0.00    +0.024 C 
ENDBRANCH   3  23
BRANCH   1  27
ATOM     26  C1  <0> A   1     -30.659  -4.168  51.518  0.00  0.00    +0.035 C 
ATOM     27  C2  <0> A   1     -29.705  -4.360  52.698  0.00  0.00    +0.099 C 
ENDBRANCH   1  27
BRANCH   5  28
ATOM     28  C7  <0> A   1     -28.335  -7.039  52.043  0.00  0.00    +0.293 C 
BRANCH  28  29
ATOM     29  C8  <0> A   1     -28.823  -7.521  50.676  0.00  0.00    -0.014 C 
BRANCH  29  30
ATOM     30  C9  <0> A   1     -29.146  -9.015  50.748  0.00  0.00    +0.217 C 
BRANCH  30  31
ATOM     31  O4  <0> A   1     -27.931  -9.764  50.804  0.00  0.00    -0.541 OA
ATOM     32  H17 <0> A   1     -27.251  -9.369  51.368  0.00  0.00    +0.366 HD
ENDBRANCH  30  31
BRANCH  30  33
ATOM     33  C10 <0> A   1     -29.978  -9.298  52.000  0.00  0.00    -0.048 C 
BRANCH  33  34
ATOM     34  C11 <0> A   1     -30.742 -10.612  51.818  0.00  0.00    +0.231 C 
BRANCH  34  35
ATOM     35  O3  <0> A   1     -30.405 -11.188  50.555  0.00  0.00    -0.528 OA
ATOM     36  H16 <0> A   1     -29.464 -11.132  50.335  0.00  0.00    +0.350 HD
ENDBRANCH  34  35
BRANCH  34  37
ATOM     37  C12 <0> A   1     -30.360 -11.582  52.939  0.00  0.00    -0.102 C 
BRANCH  37  38
ATOM     38  C13 <0> A   1     -29.535 -12.707  52.370  0.00  0.00    +0.490 C 
ATOM     39  O1  <0> A   1     -30.042 -13.799  52.177  0.00  0.00    -0.681 OA
ATOM     40  O2  <0> A   1     -28.360 -12.525  52.101  0.00  0.00    -0.712 OA
ENDBRANCH  37  38
ENDBRANCH  34  37
ENDBRANCH  33  34
ENDBRANCH  30  33
ENDBRANCH  29  30
ENDBRANCH  28  29
ENDBRANCH   5  28
TORSDOF 14
ENDMDL
MODEL 9
REMARK VINA RESULT:      -7.4     15.797     20.318
REMARK  Name = CHEMBL471744
REMARK  17 active torsions:
REMARK  status: ('A' for Active; 'I' for Inactive)
REMARK    1  A    between atoms: C1_1  and  C2_2
REMARK    2  A    between atoms: C2_2  and  C3_3
REMARK    3  A    between atoms: C4_4  and  C23_31
REMARK    4  A    between atoms: C5_5  and  C20_28
REMARK    5  A    between atoms: C6_6  and  C14_21
REMARK    6  A    between atoms: N1_7  and  C7_8
REMARK    7  A    between atoms: C7_8  and  C8_9
REMARK    8  A    between atoms: C8_9  and  C9_10
REMARK    9  A    between atoms: C9_10  and  C10_12
REMARK   10  A    between atoms: C9_10  and  O4_20
REMARK   11  A    between atoms: C10_12  and  C11_13
REMARK   12  A    between atoms: C11_13  and  C12_15
REMARK   13  A    between atoms: C11_13  and  O3_19
REMARK   14  A    between atoms: C12_15  and  C13_16
REMARK   15  A    between atoms: C20_28  and  C21_29
REMARK   16  A    between atoms: C20_28  and  C22_30
REMARK   17  A    between atoms: N2_33  and  C24_34
REMARK                            x       y       z     vdW  Elec       q    Type
REMARK                         _______ _______ _______ _____ _____    ______ ____
ROOT
ATOM      1  C3  <0> A   1     -25.267  -4.013  51.799  0.00  0.00    +0.089 C 
ATOM      2  C4  <0> A   1     -26.394  -3.228  51.918  0.00  0.00    -0.221 C 
ATOM      3  C5  <0> A   1     -27.511  -4.072  51.683  0.00  0.00    -0.086 C 
ATOM      4  C6  <0> A   1     -27.026  -5.315  51.434  0.00  0.00    +0.043 C 
ATOM      5  N1  <0> A   1     -25.655  -5.269  51.502  0.00  0.00    -0.413 N 
ENDROOT
BRANCH   4   6
ATOM      6  C14 <0> A   1     -27.837  -6.516  51.135  0.00  0.00    -0.023 A 
ATOM      7  C15 <0> A   1     -28.326  -7.307  52.176  0.00  0.00    +0.065 A 
ATOM      8  C16 <0> A   1     -29.081  -8.425  51.891  0.00  0.00    -0.009 A 
ATOM      9  C17 <0> A   1     -29.355  -8.764  50.576  0.00  0.00    +0.102 A 
ATOM     10  C18 <0> A   1     -28.870  -7.983  49.539  0.00  0.00    -0.006 A 
ATOM     11  C19 <0> A   1     -28.119  -6.859  49.812  0.00  0.00    +0.046 A 
ATOM     12  F1  <0> A   1     -30.095  -9.861  50.303  0.00  0.00    -0.138 F 
ENDBRANCH   4   6
BRANCH   2  13
ATOM     13  C23 <0> A   1     -26.432  -1.790  52.229  0.00  0.00    +0.606 C 
ATOM     14  O5  <0> A   1     -26.658  -1.419  53.366  0.00  0.00    -0.512 OA
ATOM     15  N2  <0> A   1     -26.216  -0.884  51.256  0.00  0.00    -0.671 N 
ATOM     16  H29 <0> A   1     -25.960  -1.178  50.367  0.00  0.00    +0.411 HD
BRANCH  15  17
ATOM     17  C24 <0> A   1     -26.360   0.481  51.525  0.00  0.00    +0.151 A 
ATOM     18  C25 <0> A   1     -27.566   1.119  51.265  0.00  0.00    -0.024 A 
ATOM     19  C26 <0> A   1     -27.705   2.467  51.532  0.00  0.00    +0.024 A 
ATOM     20  C27 <0> A   1     -26.645   3.182  52.056  0.00  0.00    -0.018 A 
ATOM     21  C28 <0> A   1     -25.442   2.550  52.316  0.00  0.00    +0.024 A 
ATOM     22  C29 <0> A   1     -25.298   1.202  52.058  0.00  0.00    +0.011 A 
ENDBRANCH  15  17
ENDBRANCH   2  13
BRANCH   3  23
ATOM     23  C20 <0> A   1     -28.961  -3.665  51.704  0.00  0.00    +0.048 C 
ATOM     24  C21 <0> A   1     -29.414  -3.466  53.153  0.00  0.00    +0.021 C 
ATOM     25  C22 <0> A   1     -29.135  -2.355  50.932  0.00  0.00    +0.024 C 
ENDBRANCH   3  23
BRANCH   1  27
ATOM     26  C1  <0> A   1     -23.331  -2.985  50.638  0.00  0.00    +0.035 C 
ATOM     27  C2  <0> A   1     -23.844  -3.545  51.966  0.00  0.00    +0.099 C 
ENDBRANCH   1  27
BRANCH   5  28
ATOM     28  C7  <0> A   1     -24.757  -6.407  51.288  0.00  0.00    +0.293 C 
BRANCH  28  29
ATOM     29  C8  <0> A   1     -24.621  -6.674  49.789  0.00  0.00    -0.014 C 
BRANCH  29  30
ATOM     30  C9  <0> A   1     -24.682  -8.181  49.531  0.00  0.00    +0.217 C 
BRANCH  30  31
ATOM     31  O4  <0> A   1     -23.423  -8.631  49.028  0.00  0.00    -0.541 OA
ATOM     32  H17 <0> A   1     -23.492  -9.321  48.355  0.00  0.00    +0.366 HD
ENDBRANCH  30  31
BRANCH  30  33
ATOM     33  C10 <0> A   1     -24.999  -8.910  50.838  0.00  0.00    -0.048 C 
BRANCH  33  34
ATOM     34  C11 <0> A   1     -25.795 -10.180  50.533  0.00  0.00    +0.231 C 
BRANCH  34  35
ATOM     35  O3  <0> A   1     -26.061 -10.251  49.131  0.00  0.00    -0.528 OA
ATOM     36  H16 <0> A   1     -25.584 -10.958  48.675  0.00  0.00    +0.350 HD
ENDBRANCH  34  35
BRANCH  34  37
ATOM     37  C12 <0> A   1     -24.983 -11.406  50.960  0.00  0.00    -0.102 C 
BRANCH  37  38
ATOM     38  C13 <0> A   1     -24.498 -12.137  49.735  0.00  0.00    +0.490 C 
ATOM     39  O1  <0> A   1     -25.032 -13.179  49.395  0.00  0.00    -0.681 OA
ATOM     40  O2  <0> A   1     -23.571 -11.687  49.084  0.00  0.00    -0.712 OA
ENDBRANCH  37  38
ENDBRANCH  34  37
ENDBRANCH  33  34
ENDBRANCH  30  33
ENDBRANCH  29  30
ENDBRANCH  28  29
ENDBRANCH   5  28
TORSDOF 14
ENDMDL
MODEL 10
REMARK VINA RESULT:      -7.4     13.736     19.664
REMARK  Name = CHEMBL471744
REMARK  17 active torsions:
REMARK  status: ('A' for Active; 'I' for Inactive)
REMARK    1  A    between atoms: C1_1  and  C2_2
REMARK    2  A    between atoms: C2_2  and  C3_3
REMARK    3  A    between atoms: C4_4  and  C23_31
REMARK    4  A    between atoms: C5_5  and  C20_28
REMARK    5  A    between atoms: C6_6  and  C14_21
REMARK    6  A    between atoms: N1_7  and  C7_8
REMARK    7  A    between atoms: C7_8  and  C8_9
REMARK    8  A    between atoms: C8_9  and  C9_10
REMARK    9  A    between atoms: C9_10  and  C10_12
REMARK   10  A    between atoms: C9_10  and  O4_20
REMARK   11  A    between atoms: C10_12  and  C11_13
REMARK   12  A    between atoms: C11_13  and  C12_15
REMARK   13  A    between atoms: C11_13  and  O3_19
REMARK   14  A    between atoms: C12_15  and  C13_16
REMARK   15  A    between atoms: C20_28  and  C21_29
REMARK   16  A    between atoms: C20_28  and  C22_30
REMARK   17  A    between atoms: N2_33  and  C24_34
REMARK                            x       y       z     vdW  Elec       q    Type
REMARK                         _______ _______ _______ _____ _____    ______ ____
ROOT
ATOM      1  C3  <0> A   1     -24.539  -3.719  51.205  0.00  0.00    +0.089 C 
ATOM      2  C4  <0> A   1     -25.418  -2.677  51.409  0.00  0.00    -0.221 C 
ATOM      3  C5  <0> A   1     -26.681  -3.254  51.704  0.00  0.00    -0.086 C 
ATOM      4  C6  <0> A   1     -26.522  -4.601  51.666  0.00  0.00    +0.043 C 
ATOM      5  N1  <0> A   1     -25.213  -4.877  51.356  0.00  0.00    -0.413 N 
ENDROOT
BRANCH   4   6
ATOM      6  C14 <0> A   1     -27.581  -5.604  51.913  0.00  0.00    -0.023 A 
ATOM      7  C15 <0> A   1     -28.297  -6.144  50.843  0.00  0.00    +0.065 A 
ATOM      8  C16 <0> A   1     -29.283  -7.079  51.079  0.00  0.00    -0.009 A 
ATOM      9  C17 <0> A   1     -29.565  -7.482  52.374  0.00  0.00    +0.102 A 
ATOM     10  C18 <0> A   1     -28.858  -6.948  53.440  0.00  0.00    -0.006 A 
ATOM     11  C19 <0> A   1     -27.865  -6.017  53.216  0.00  0.00    +0.046 A 
ATOM     12  F1  <0> A   1     -30.532  -8.398  52.599  0.00  0.00    -0.138 F 
ENDBRANCH   4   6
BRANCH   2  13
ATOM     13  C23 <0> A   1     -25.106  -1.240  51.337  0.00  0.00    +0.606 C 
ATOM     14  O5  <0> A   1     -25.340  -0.617  50.318  0.00  0.00    -0.512 OA
ATOM     15  N2  <0> A   1     -24.563  -0.614  52.399  0.00  0.00    -0.671 N 
ATOM     16  H29 <0> A   1     -24.446  -1.091  53.236  0.00  0.00    +0.411 HD
BRANCH  15  17
ATOM     17  C24 <0> A   1     -24.164   0.723  52.295  0.00  0.00    +0.151 A 
ATOM     18  C25 <0> A   1     -22.917   1.040  51.772  0.00  0.00    -0.024 A 
ATOM     19  C26 <0> A   1     -22.527   2.361  51.672  0.00  0.00    +0.024 A 
ATOM     20  C27 <0> A   1     -23.377   3.368  52.093  0.00  0.00    -0.018 A 
ATOM     21  C28 <0> A   1     -24.619   3.056  52.614  0.00  0.00    +0.024 A 
ATOM     22  C29 <0> A   1     -25.018   1.737  52.711  0.00  0.00    +0.011 A 
ENDBRANCH  15  17
ENDBRANCH   2  13
BRANCH   3  23
ATOM     23  C20 <0> A   1     -27.958  -2.511  52.000  0.00  0.00    +0.048 C 
ATOM     24  C21 <0> A   1     -27.735  -1.567  53.185  0.00  0.00    +0.021 C 
ATOM     25  C22 <0> A   1     -28.373  -1.699  50.772  0.00  0.00    +0.024 C 
ENDBRANCH   3  23
BRANCH   1  27
ATOM     26  C1  <0> A   1     -22.264  -3.437  52.152  0.00  0.00    +0.035 C 
ATOM     27  C2  <0> A   1     -23.077  -3.586  50.864  0.00  0.00    +0.099 C 
ENDBRANCH   1  27
BRANCH   5  28
ATOM     28  C7  <0> A   1     -24.639  -6.218  51.215  0.00  0.00    +0.293 C 
BRANCH  28  29
ATOM     29  C8  <0> A   1     -24.777  -6.681  49.764  0.00  0.00    -0.014 C 
BRANCH  29  30
ATOM     30  C9  <0> A   1     -25.020  -8.191  49.732  0.00  0.00    +0.217 C 
BRANCH  30  31
ATOM     31  O4  <0> A   1     -25.611  -8.552  48.482  0.00  0.00    -0.541 OA
ATOM     32  H17 <0> A   1     -25.396  -9.449  48.190  0.00  0.00    +0.366 HD
ENDBRANCH  30  31
BRANCH  30  33
ATOM     33  C10 <0> A   1     -23.689  -8.927  49.898  0.00  0.00    -0.048 C 
BRANCH  33  34
ATOM     34  C11 <0> A   1     -23.952 -10.360  50.361  0.00  0.00    +0.231 C 
BRANCH  34  35
ATOM     35  O3  <0> A   1     -25.345 -10.523  50.639  0.00  0.00    -0.528 OA
ATOM     36  H16 <0> A   1     -25.789 -11.162  50.064  0.00  0.00    +0.350 HD
ENDBRANCH  34  35
BRANCH  34  37
ATOM     37  C12 <0> A   1     -23.536 -11.337  49.258  0.00  0.00    -0.102 C 
BRANCH  37  38
ATOM     38  C13 <0> A   1     -24.755 -12.054  48.736  0.00  0.00    +0.490 C 
ATOM     39  O1  <0> A   1     -25.065 -13.141  49.192  0.00  0.00    -0.681 OA
ATOM     40  O2  <0> A   1     -25.430 -11.545  47.858  0.00  0.00    -0.712 OA
ENDBRANCH  37  38
ENDBRANCH  34  37
ENDBRANCH  33  34
ENDBRANCH  30  33
ENDBRANCH  29  30
ENDBRANCH  28  29
ENDBRANCH   5  28
TORSDOF 14
ENDMDL
