REMARK VINA RESULT:      -7.5     12.486     16.675
REMARK  Name = CHEMBL398551
REMARK  19 active torsions:
REMARK  status: ('A' for Active; 'I' for Inactive)
REMARK    1  A    between atoms: C1_1  and  C2_2
REMARK    2  A    between atoms: C4_4  and  C6_8
REMARK    3  A    between atoms: N2_6  and  C5_7
REMARK    4  A    between atoms: C6_8  and  N3_9
REMARK    5  A    between atoms: C7_10  and  C8_12
REMARK    6  A    between atoms: C9_13  and  C28_40
REMARK    7  A    between atoms: C10_14  and  C22_33
REMARK    8  A    between atoms: C11_15  and  C15_20
REMARK    9  A    between atoms: N4_16  and  C12_17
REMARK   10  A    between atoms: C12_17  and  C13_18
REMARK   11  A    between atoms: C12_17  and  C14_19
REMARK   12  A    between atoms: C15_20  and  C16_21
REMARK   13  A    between atoms: C16_21  and  C17_22
REMARK   14  A    between atoms: C17_22  and  C18_24
REMARK   15  A    between atoms: C17_22  and  O5_32
REMARK   16  A    between atoms: C18_24  and  C19_25
REMARK   17  A    between atoms: C19_25  and  C20_27
REMARK   18  A    between atoms: C19_25  and  O4_31
REMARK   19  A    between atoms: C20_27  and  C21_28
REMARK                            x       y       z     vdW  Elec       q    Type
REMARK                         _______ _______ _______ _____ _____    ______ ____
ROOT
ATOM      1  C8  <0> A   1     -26.225  -0.339  51.337  0.00  0.00    -0.029 C 
ATOM      2  C9  <0> A   1     -24.898  -0.276  51.745  0.00  0.00    -0.059 C 
ATOM      3  C10 <0> A   1     -24.492  -1.607  52.018  0.00  0.00    -0.123 C 
ATOM      4  C11 <0> A   1     -25.559  -2.418  51.772  0.00  0.00    +0.072 C 
ATOM      5  N4  <0> A   1     -26.606  -1.661  51.367  0.00  0.00    -0.403 N 
ENDROOT
BRANCH   3   6
ATOM      6  C22 <0> A   1     -23.152  -2.037  52.485  0.00  0.00    -0.009 A 
ATOM      7  C23 <0> A   1     -22.238  -2.581  51.584  0.00  0.00    +0.053 A 
ATOM      8  C24 <0> A   1     -20.992  -2.980  52.023  0.00  0.00    -0.013 A 
ATOM      9  C25 <0> A   1     -20.648  -2.840  53.358  0.00  0.00    +0.094 A 
ATOM     10  C26 <0> A   1     -21.552  -2.299  54.258  0.00  0.00    -0.020 A 
ATOM     11  C27 <0> A   1     -22.799  -1.892  53.826  0.00  0.00    +0.054 A 
ATOM     12  F1  <0> A   1     -19.428  -3.232  53.783  0.00  0.00    -0.142 F 
ENDBRANCH   3   6
BRANCH   2  13
ATOM     13  C28 <0> A   1     -24.070   0.945  51.872  0.00  0.00    -0.009 A 
ATOM     14  C29 <0> A   1     -24.134   1.717  53.032  0.00  0.00    +0.027 A 
ATOM     15  C30 <0> A   1     -23.359   2.853  53.145  0.00  0.00    +0.003 A 
ATOM     16  C31 <0> A   1     -22.521   3.227  52.111  0.00  0.00    -0.003 A 
ATOM     17  C32 <0> A   1     -22.452   2.466  50.958  0.00  0.00    -0.001 A 
ATOM     18  C33 <0> A   1     -23.217   1.325  50.836  0.00  0.00    +0.009 A 
ENDBRANCH   2  13
BRANCH   1  20
ATOM     19  N3  <0> A   1     -27.569   1.614  51.893  0.00  0.00    -0.715 N 
ATOM     20  C7  <0> A   1     -27.066   0.795  50.949  0.00  0.00    +0.605 C 
ATOM     21  O1  <0> A   1     -27.309   0.998  49.774  0.00  0.00    -0.517 OA
ATOM     22  H12 <0> A   1     -27.433   1.413  52.832  0.00  0.00    +0.404 HD
BRANCH  19  23
ATOM     23  C6  <0> A   1     -28.322   2.807  51.501  0.00  0.00    +0.381 C 
BRANCH  23  27
ATOM     24  C1  <0> A   1     -32.989   0.810  51.913  0.00  0.00    +0.146 C 
ATOM     25  C2  <0> A   1     -31.809   1.738  52.033  0.00  0.00    +0.083 C 
ATOM     26  C3  <0> A   1     -30.570   1.523  51.531  0.00  0.00    -0.107 C 
ATOM     27  C4  <0> A   1     -29.775   2.626  51.861  0.00  0.00    +0.055 C 
ATOM     28  N1  <0> A   1     -30.510   3.472  52.536  0.00  0.00    -0.276 NA
ATOM     29  N2  <0> A   1     -31.799   2.937  52.653  0.00  0.00    -0.368 N 
ATOM     30  C5  <0> A   1     -32.935   3.565  53.331  0.00  0.00    +0.354 C 
ENDBRANCH  23  27
ENDBRANCH  19  23
ENDBRANCH   1  20
BRANCH   5  31
ATOM     31  C12 <0> A   1     -27.935  -2.169  51.015  0.00  0.00    +0.229 C 
ATOM     32  C13 <0> A   1     -27.862  -2.898  49.671  0.00  0.00    +0.042 C 
ATOM     33  C14 <0> A   1     -28.415  -3.138  52.096  0.00  0.00    +0.046 C 
ENDBRANCH   5  31
BRANCH   4  34
ATOM     34  C15 <0> A   1     -25.573  -3.916  51.932  0.00  0.00    +0.118 C 
BRANCH  34  35
ATOM     35  C16 <0> A   1     -24.865  -4.563  50.738  0.00  0.00    -0.009 C 
BRANCH  35  36
ATOM     36  C17 <0> A   1     -25.445  -5.959  50.496  0.00  0.00    +0.212 C 
BRANCH  36  37
ATOM     37  O5  <0> A   1     -25.885  -6.063  49.140  0.00  0.00    -0.542 OA
ATOM     38  H29 <0> A   1     -26.013  -6.972  48.837  0.00  0.00    +0.363 HD
ENDBRANCH  36  37
BRANCH  36  39
ATOM     39  C18 <0> A   1     -24.368  -7.011  50.765  0.00  0.00    -0.051 C 
BRANCH  39  40
ATOM     40  C19 <0> A   1     -24.310  -7.992  49.592  0.00  0.00    +0.230 C 
BRANCH  40  41
ATOM     41  O4  <0> A   1     -23.431  -7.482  48.588  0.00  0.00    -0.528 OA
ATOM     42  H28 <0> A   1     -23.792  -7.520  47.691  0.00  0.00    +0.349 HD
ENDBRANCH  40  41
BRANCH  40  43
ATOM     43  C20 <0> A   1     -23.791  -9.345  50.084  0.00  0.00    -0.103 C 
BRANCH  43  44
ATOM     44  C21 <0> A   1     -24.136 -10.412  49.076  0.00  0.00    +0.490 C 
ATOM     45  O2  <0> A   1     -24.871 -10.150  48.139  0.00  0.00    -0.681 OA
ATOM     46  O3  <0> A   1     -23.680 -11.536  49.198  0.00  0.00    -0.713 OA
ENDBRANCH  43  44
ENDBRANCH  40  43
ENDBRANCH  39  40
ENDBRANCH  36  39
ENDBRANCH  35  36
ENDBRANCH  34  35
ENDBRANCH   4  34
TORSDOF 15
