REMARK VINA RESULT:      -6.8     18.031     21.936
REMARK  Name = CHEMBL342975
REMARK  15 active torsions:
REMARK  status: ('A' for Active; 'I' for Inactive)
REMARK    1  A    between atoms: C1_1  and  C2_2
REMARK    2  A    between atoms: C5_5  and  C8_8
REMARK    3  A    between atoms: C11_11  and  C26_33
REMARK    4  A    between atoms: C12_12  and  O1_21
REMARK    5  A    between atoms: C13_13  and  C14_14
REMARK    6  A    between atoms: O1_21  and  C20_22
REMARK    7  A    between atoms: C20_22  and  C21_23
REMARK    8  A    between atoms: C21_23  and  C22_24
REMARK    9  A    between atoms: C21_23  and  O5_32
REMARK   10  A    between atoms: C22_24  and  C23_25
REMARK   11  A    between atoms: C23_25  and  C24_27
REMARK   12  A    between atoms: C23_25  and  O4_31
REMARK   13  A    between atoms: C24_27  and  C25_28
REMARK   14  A    between atoms: C26_33  and  C27_34
REMARK   15  A    between atoms: C26_33  and  C28_35
REMARK                            x       y       z     vdW  Elec       q    Type
REMARK                         _______ _______ _______ _____ _____    ______ ____
ROOT
ATOM      1  C8  <0> A   1     -24.716  -5.041  51.471  0.00  0.00    -0.027 A 
ATOM      2  C9  <0> A   1     -23.657  -4.137  51.494  0.00  0.00    +0.016 A 
ATOM      3  C10 <0> A   1     -23.870  -2.831  51.887  0.00  0.00    +0.029 A 
ATOM      4  C11 <0> A   1     -25.133  -2.409  52.263  0.00  0.00    -0.086 A 
ATOM      5  C12 <0> A   1     -26.199  -3.293  52.247  0.00  0.00    +0.116 A 
ATOM      6  C13 <0> A   1     -26.000  -4.616  51.846  0.00  0.00    -0.056 A 
ENDROOT
BRANCH   1  11
ATOM      7  C1  <0> A   1     -23.833 -10.489  49.830  0.00  0.00    +0.086 C 
ATOM      8  C2  <0> A   1     -24.064  -9.063  50.259  0.00  0.00    -0.083 A 
ATOM      9  C3  <0> A   1     -24.430  -8.112  49.323  0.00  0.00    +0.001 A 
ATOM     10  C4  <0> A   1     -24.643  -6.805  49.711  0.00  0.00    +0.020 A 
ATOM     11  C5  <0> A   1     -24.489  -6.444  51.048  0.00  0.00    -0.048 A 
ATOM     12  C6  <0> A   1     -24.121  -7.407  51.987  0.00  0.00    +0.031 A 
ATOM     13  C7  <0> A   1     -23.916  -8.712  51.589  0.00  0.00    +0.003 A 
ENDBRANCH   1  11
BRANCH   6  14
ATOM     14  C14 <0> A   1     -27.137  -5.567  51.820  0.00  0.00    -0.049 A 
ATOM     15  C15 <0> A   1     -27.526  -6.223  52.988  0.00  0.00    +0.069 A 
ATOM     16  C16 <0> A   1     -28.584  -7.107  52.960  0.00  0.00    -0.014 A 
ATOM     17  C17 <0> A   1     -29.260  -7.344  51.773  0.00  0.00    +0.104 A 
ATOM     18  C18 <0> A   1     -28.878  -6.694  50.611  0.00  0.00    -0.017 A 
ATOM     19  C19 <0> A   1     -27.824  -5.804  50.631  0.00  0.00    +0.055 A 
ATOM     20  F1  <0> A   1     -30.297  -8.210  51.751  0.00  0.00    -0.139 F 
ENDBRANCH   6  14
BRANCH   4  21
ATOM     21  C26 <0> A   1     -25.349  -0.981  52.691  0.00  0.00    +0.031 C 
ATOM     22  C27 <0> A   1     -24.830  -0.791  54.117  0.00  0.00    +0.029 C 
ATOM     23  C28 <0> A   1     -24.595  -0.044  51.745  0.00  0.00    +0.024 C 
ENDBRANCH   4  21
BRANCH   5  24
ATOM     24  O1  <0> A   1     -27.437  -2.873  52.616  0.00  0.00    -0.314 OA
BRANCH  24  25
ATOM     25  C20 <0> A   1     -28.242  -2.258  51.608  0.00  0.00    +0.150 C 
BRANCH  25  26
ATOM     26  C21 <0> A   1     -29.709  -2.629  51.829  0.00  0.00    +0.225 C 
BRANCH  26  27
ATOM     27  O5  <0> A   1     -30.170  -3.422  50.733  0.00  0.00    -0.531 OA
ATOM     28  H23 <0> A   1     -31.008  -3.875  50.899  0.00  0.00    +0.363 HD
ENDBRANCH  26  27
BRANCH  26  29
ATOM     29  C22 <0> A   1     -29.843  -3.429  53.127  0.00  0.00    -0.043 C 
BRANCH  29  30
ATOM     30  C23 <0> A   1     -31.321  -3.545  53.505  0.00  0.00    +0.235 C 
BRANCH  30  31
ATOM     31  O4  <0> A   1     -32.106  -2.769  52.597  0.00  0.00    -0.526 OA
ATOM     32  H22 <0> A   1     -33.032  -2.676  52.859  0.00  0.00    +0.350 HD
ENDBRANCH  30  31
BRANCH  30  33
ATOM     33  C24 <0> A   1     -31.753  -5.010  53.430  0.00  0.00    -0.101 C 
BRANCH  33  34
ATOM     34  C25 <0> A   1     -32.670  -5.204  52.250  0.00  0.00    +0.491 C 
ATOM     35  O2  <0> A   1     -33.875  -5.089  52.389  0.00  0.00    -0.680 OA
ATOM     36  O3  <0> A   1     -32.205  -5.475  51.156  0.00  0.00    -0.713 OA
ENDBRANCH  33  34
ENDBRANCH  30  33
ENDBRANCH  29  30
ENDBRANCH  26  29
ENDBRANCH  25  26
ENDBRANCH  24  25
ENDBRANCH   5  24
TORSDOF 12
