REMARK  Name = CHEMBL332812
REMARK  11 active torsions:
REMARK  status: ('A' for Active; 'I' for Inactive)
REMARK    1  A    between atoms: C6_6  and  C11_11
REMARK    2  A    between atoms: C11_11  and  C12_12
REMARK    3  A    between atoms: N2_19  and  C26_34
REMARK    4  A    between atoms: C18_20  and  C19_21
REMARK    5  A    between atoms: C20_22  and  C21_23
REMARK    6  A    between atoms: C21_23  and  C22_25
REMARK    7  A    between atoms: C21_23  and  O4_33
REMARK    8  A    between atoms: C22_25  and  C23_26
REMARK    9  A    between atoms: C23_26  and  C24_28
REMARK   10  A    between atoms: C23_26  and  O3_32
REMARK   11  A    between atoms: C24_28  and  C25_29
REMARK                            x       y       z     vdW  Elec       q    Type
REMARK                         _______ _______ _______ _____ _____    ______ ____
ROOT
ATOM      1  C12 <0> A   1       5.470  -2.953   1.377  0.00  0.00    +0.092 C 
ATOM      2  C13 <0> A   1       6.857  -3.605   1.367  0.00  0.00    +0.030 C 
ATOM      3  C14 <0> A   1       7.218  -4.075   2.778  0.00  0.00    +0.016 C 
ATOM      4  C15 <0> A   1       6.366  -5.295   3.150  0.00  0.00    +0.104 C 
ATOM      5  C16 <0> A   1       4.921  -4.964   2.869  0.00  0.00    -0.211 C 
ATOM      6  C17 <0> A   1       4.509  -3.896   2.062  0.00  0.00    +0.089 C 
ATOM      7  N1  <0> A   1       3.206  -3.881   2.024  0.00  0.00    -0.263 NA
ATOM      8  N2  <0> A   1       2.720  -4.940   2.804  0.00  0.00    -0.330 N 
ATOM      9  C18 <0> A   1       3.798  -5.606   3.323  0.00  0.00    +0.124 C 
ENDROOT
BRANCH   8  10
ATOM     10  C26 <0> A   1       1.372  -5.260   3.014  0.00  0.00    +0.149 A 
ATOM     11  C27 <0> A   1       0.984  -6.588   3.141  0.00  0.00    +0.048 A 
ATOM     12  C28 <0> A   1      -0.344  -6.901   3.349  0.00  0.00    +0.017 A 
ATOM     13  C29 <0> A   1      -1.290  -5.892   3.430  0.00  0.00    +0.097 A 
ATOM     14  C30 <0> A   1      -0.905  -4.568   3.303  0.00  0.00    +0.007 A 
ATOM     15  C31 <0> A   1       0.423  -4.250   3.101  0.00  0.00    +0.056 A 
ATOM     16  F1  <0> A   1      -2.590  -6.201   3.633  0.00  0.00    -0.135 F 
ENDBRANCH   8  10
BRANCH   9  17
ATOM     17  C19 <0> A   1       3.759  -6.787   4.202  0.00  0.00    +0.027 C 
ATOM     18  C20 <0> A   1       2.986  -6.786   5.283  0.00  0.00    -0.028 C 
BRANCH  18  19
ATOM     19  C21 <0> A   1       2.946  -7.994   6.182  0.00  0.00    +0.254 C 
BRANCH  19  20
ATOM     20  O4  <0> A   1       3.902  -8.956   5.731  0.00  0.00    -0.536 OA
ATOM     21  H26 <0> A   1       4.814  -8.632   5.728  0.00  0.00    +0.368 HD
ENDBRANCH  19  20
BRANCH  19  22
ATOM     22  C22 <0> A   1       3.281  -7.575   7.615  0.00  0.00    -0.040 C 
BRANCH  22  23
ATOM     23  C23 <0> A   1       3.119  -8.776   8.549  0.00  0.00    +0.232 C 
BRANCH  23  24
ATOM     24  O3  <0> A   1       4.084  -9.775   8.212  0.00  0.00    -0.528 OA
ATOM     25  H25 <0> A   1       5.001  -9.478   8.286  0.00  0.00    +0.351 HD
ENDBRANCH  23  24
BRANCH  23  26
ATOM     26  C24 <0> A   1       3.333  -8.329   9.996  0.00  0.00    -0.102 C 
BRANCH  26  27
ATOM     27  C25 <0> A   1       3.053  -9.483  10.925  0.00  0.00    +0.491 C 
ATOM     28  O1  <0> A   1       2.714 -10.562  10.471  0.00  0.00    -0.681 OA
ATOM     29  O2  <0> A   1       3.165  -9.336  12.130  0.00  0.00    -0.713 OA
ENDBRANCH  26  27
ENDBRANCH  23  26
ENDBRANCH  22  23
ENDBRANCH  19  22
ENDBRANCH  18  19
ENDBRANCH   9  17
BRANCH   1  30
ATOM     30  C11 <0> A   1       5.008  -2.700  -0.060  0.00  0.00    +0.081 C 
BRANCH  30  36
ATOM     31  C1  <0> A   1      -0.016   1.357   0.009  0.00  0.00    -0.002 A 
ATOM     32  C2  <0> A   1       1.169   2.091   0.002  0.00  0.00    -0.004 A 
ATOM     33  C3  <0> A   1       2.378   1.468  -0.013  0.00  0.00    +0.017 A 
ATOM     34  C4  <0> A   1       2.438   0.063  -0.021  0.00  0.00    -0.055 A 
ATOM     35  C5  <0> A   1       3.668  -0.615  -0.036  0.00  0.00    +0.015 A 
ATOM     36  C6  <0> A   1       3.687  -1.976  -0.043  0.00  0.00    -0.073 A 
ATOM     37  C7  <0> A   1       2.502  -2.710  -0.036  0.00  0.00    +0.066 A 
ATOM     38  C8  <0> A   1       1.292  -2.087  -0.021  0.00  0.00    +0.001 A 
ATOM     39  C9  <0> A   1       1.233  -0.683  -0.013  0.00  0.00    -0.047 A 
ATOM     40  C10 <0> A   1       0.002  -0.004   0.002  0.00  0.00    +0.015 A 
ENDBRANCH  30  36
ENDBRANCH   1  30
TORSDOF 11
