REMARK VINA RESULT:      -7.6     15.243     18.958
REMARK  Name = CHEMBL468632
REMARK  15 active torsions:
REMARK  status: ('A' for Active; 'I' for Inactive)
REMARK    1  A    between atoms: C1_1  and  C2_2
REMARK    2  A    between atoms: C2_2  and  C3_3
REMARK    3  A    between atoms: C2_2  and  C4_4
REMARK    4  A    between atoms: C5_5  and  C19_27
REMARK    5  A    between atoms: C6_6  and  C13_20
REMARK    6  A    between atoms: N3_10  and  C8_11
REMARK    7  A    between atoms: C10_13  and  C12_17
REMARK    8  A    between atoms: N5_15  and  C11_16
REMARK    9  A    between atoms: C20_28  and  C21_29
REMARK   10  A    between atoms: C21_29  and  C22_31
REMARK   11  A    between atoms: C21_29  and  O6_39
REMARK   12  A    between atoms: C22_31  and  C23_32
REMARK   13  A    between atoms: C23_32  and  C24_34
REMARK   14  A    between atoms: C23_32  and  O5_38
REMARK   15  A    between atoms: C24_34  and  C25_35
REMARK                            x       y       z     vdW  Elec       q    Type
REMARK                         _______ _______ _______ _____ _____    ______ ____
ROOT
ATOM      1  C4  <0> A   1     -26.877  -3.164  52.090  0.00  0.00    +0.234 A 
ATOM      2  C5  <0> A   1     -25.972  -4.130  51.638  0.00  0.00    -0.198 A 
ATOM      3  C6  <0> A   1     -26.379  -5.480  51.651  0.00  0.00    +0.272 A 
ATOM      4  N1  <0> A   1     -27.599  -5.777  52.089  0.00  0.00    -0.532 NA
ATOM      5  C7  <0> A   1     -28.419  -4.826  52.507  0.00  0.00    +0.573 A 
ATOM      6  N2  <0> A   1     -28.068  -3.548  52.513  0.00  0.00    -0.561 NA
ATOM      7  N3  <0> A   1     -29.681  -5.177  52.955  0.00  0.00    -0.606 N 
ATOM      8  H10 <0> A   1     -30.294  -4.492  53.265  0.00  0.00    +0.415 HD
ENDROOT
BRANCH   3   9
ATOM      9  C13 <0> A   1     -25.465  -6.548  51.185  0.00  0.00    -0.078 A 
ATOM     10  C14 <0> A   1     -25.420  -6.888  49.832  0.00  0.00    +0.090 A 
ATOM     11  C15 <0> A   1     -24.567  -7.883  49.402  0.00  0.00    -0.026 A 
ATOM     12  C16 <0> A   1     -23.756  -8.545  50.311  0.00  0.00    +0.117 A 
ATOM     13  C17 <0> A   1     -23.798  -8.210  51.655  0.00  0.00    -0.009 A 
ATOM     14  C18 <0> A   1     -24.643  -7.213  52.094  0.00  0.00    +0.112 A 
ATOM     15  F1  <0> A   1     -22.922  -9.519  49.885  0.00  0.00    -0.139 F 
ENDBRANCH   3   9
BRANCH   7  16
ATOM     16  C8  <0> A   1     -30.071  -6.515  52.962  0.00  0.00    +0.211 C 
ATOM     17  C9  <0> A   1     -29.977  -7.381  54.010  0.00  0.00    -0.010 C 
ATOM     18  C10 <0> A   1     -30.495  -8.608  53.532  0.00  0.00    +0.004 C 
ATOM     19  N4  <0> A   1     -30.856  -8.417  52.278  0.00  0.00    -0.268 NA
ATOM     20  N5  <0> A   1     -30.622  -7.203  51.928  0.00  0.00    -0.328 N 
ATOM     21  C11 <0> A   1     -30.904  -6.644  50.603  0.00  0.00    +0.335 C 
BRANCH  18  22
ATOM     22  C12 <0> A   1     -30.612  -9.865  54.294  0.00  0.00    +0.562 C 
ATOM     23  O1  <0> A   1     -29.927 -10.039  55.293  0.00  0.00    -0.676 OA
ATOM     24  O2  <0> A   1     -31.392 -10.732  53.928  0.00  0.00    -0.681 OA
ENDBRANCH  18  22
ENDBRANCH   7  16
BRANCH   1  26
ATOM     25  C1  <0> A   1     -27.490  -0.913  51.249  0.00  0.00    +0.039 C 
ATOM     26  C2  <0> A   1     -26.495  -1.706  52.098  0.00  0.00    +0.051 C 
ATOM     27  C3  <0> A   1     -26.520  -1.181  53.535  0.00  0.00    +0.040 C 
ENDBRANCH   1  26
BRANCH   2  28
ATOM     28  C19 <0> A   1     -24.629  -3.747  51.161  0.00  0.00    +0.018 C 
ATOM     29  C20 <0> A   1     -23.649  -3.545  52.031  0.00  0.00    -0.043 C 
BRANCH  29  30
ATOM     30  C21 <0> A   1     -22.276  -3.154  51.544  0.00  0.00    +0.253 C 
BRANCH  30  31
ATOM     31  O6  <0> A   1     -22.341  -2.824  50.155  0.00  0.00    -0.539 OA
ATOM     32  H26 <0> A   1     -22.290  -3.590  49.566  0.00  0.00    +0.364 HD
ENDBRANCH  30  31
BRANCH  30  33
ATOM     33  C22 <0> A   1     -21.781  -1.941  52.334  0.00  0.00    -0.041 C 
BRANCH  33  34
ATOM     34  C23 <0> A   1     -22.941  -0.971  52.559  0.00  0.00    +0.231 C 
BRANCH  34  35
ATOM     35  O5  <0> A   1     -22.962  -0.563  53.928  0.00  0.00    -0.528 OA
ATOM     36  H25 <0> A   1     -22.467  -1.146  54.520  0.00  0.00    +0.349 HD
ENDBRANCH  34  35
BRANCH  34  37
ATOM     37  C24 <0> A   1     -22.760   0.257  51.664  0.00  0.00    -0.102 C 
BRANCH  37  38
ATOM     38  C25 <0> A   1     -23.965   0.412  50.773  0.00  0.00    +0.491 C 
ATOM     39  O3  <0> A   1     -24.755   1.320  50.968  0.00  0.00    -0.681 OA
ATOM     40  O4  <0> A   1     -24.152  -0.371  49.857  0.00  0.00    -0.716 OA
ENDBRANCH  37  38
ENDBRANCH  34  37
ENDBRANCH  33  34
ENDBRANCH  30  33
ENDBRANCH  29  30
ENDBRANCH   2  28
TORSDOF 12
