REMARK VINA RESULT:      -6.9      2.457      4.389
REMARK  Name = CHEMBL348798
REMARK  16 active torsions:
REMARK  status: ('A' for Active; 'I' for Inactive)
REMARK    1  A    between atoms: C1_1  and  C2_2
REMARK    2  A    between atoms: C2_2  and  C3_3
REMARK    3  A    between atoms: C2_2  and  C4_4
REMARK    4  A    between atoms: C5_5  and  C17_19
REMARK    5  A    between atoms: C6_6  and  C11_12
REMARK    6  A    between atoms: N1_8  and  C8_9
REMARK    7  A    between atoms: C8_9  and  C9_10
REMARK    8  A    between atoms: C8_9  and  C10_11
REMARK    9  A    between atoms: C17_19  and  C18_20
REMARK   10  A    between atoms: C18_20  and  C19_21
REMARK   11  A    between atoms: C19_21  and  C20_23
REMARK   12  A    between atoms: C19_21  and  O4_31
REMARK   13  A    between atoms: C20_23  and  C21_24
REMARK   14  A    between atoms: C21_24  and  C22_26
REMARK   15  A    between atoms: C21_24  and  O3_30
REMARK   16  A    between atoms: C22_26  and  C23_27
REMARK                            x       y       z     vdW  Elec       q    Type
REMARK                         _______ _______ _______ _____ _____    ______ ____
ROOT
ATOM      1  C4  <0> A   1     -15.319   9.160  47.833  0.00  0.00    +0.029 C 
ATOM      2  C5  <0> A   1     -14.398   9.350  46.868  0.00  0.00    -0.135 C 
ATOM      3  C6  <0> A   1     -14.406   8.195  46.045  0.00  0.00    -0.131 C 
ATOM      4  C7  <0> A   1     -15.342   7.348  46.552  0.00  0.00    +0.165 C 
ATOM      5  N1  <0> A   1     -15.894   7.937  47.648  0.00  0.00    -0.431 N 
ENDROOT
BRANCH   3   6
ATOM      6  C11 <0> A   1     -13.553   7.957  44.853  0.00  0.00    -0.005 A 
ATOM      7  C12 <0> A   1     -12.169   8.080  44.949  0.00  0.00    +0.052 A 
ATOM      8  C13 <0> A   1     -11.380   7.857  43.839  0.00  0.00    -0.014 A 
ATOM      9  C14 <0> A   1     -11.962   7.514  42.630  0.00  0.00    +0.088 A 
ATOM     10  C15 <0> A   1     -13.339   7.393  42.530  0.00  0.00    -0.019 A 
ATOM     11  C16 <0> A   1     -14.135   7.607  43.637  0.00  0.00    +0.040 A 
ATOM     12  F1  <0> A   1     -11.187   7.298  41.546  0.00  0.00    -0.143 F 
ENDBRANCH   3   6
BRANCH   1  14
ATOM     13  C1  <0> A   1     -14.360  10.714  49.512  0.00  0.00    +0.021 C 
ATOM     14  C2  <0> A   1     -15.653  10.134  48.934  0.00  0.00    +0.068 C 
ATOM     15  C3  <0> A   1     -16.513  11.266  48.369  0.00  0.00    +0.021 C 
ENDBRANCH   1  14
BRANCH   5  16
ATOM     16  C8  <0> A   1     -16.941   7.354  48.491  0.00  0.00    +0.225 C 
ATOM     17  C9  <0> A   1     -18.092   6.866  47.610  0.00  0.00    +0.037 C 
ATOM     18  C10 <0> A   1     -16.365   6.175  49.277  0.00  0.00    +0.038 C 
ENDBRANCH   5  16
BRANCH   2  19
ATOM     19  C17 <0> A   1     -13.523  10.565  46.697  0.00  0.00    +0.094 C 
BRANCH  19  20
ATOM     20  C18 <0> A   1     -14.252  11.600  45.837  0.00  0.00    -0.014 C 
BRANCH  20  21
ATOM     21  C19 <0> A   1     -13.435  11.878  44.573  0.00  0.00    +0.207 C 
BRANCH  21  22
ATOM     22  O4  <0> A   1     -12.094  11.419  44.761  0.00  0.00    -0.542 OA
ATOM     23  H31 <0> A   1     -12.032  10.511  45.087  0.00  0.00    +0.362 HD
ENDBRANCH  21  22
BRANCH  21  24
ATOM     24  C20 <0> A   1     -14.064  11.144  43.388  0.00  0.00    -0.054 C 
BRANCH  24  25
ATOM     25  C21 <0> A   1     -13.469  11.678  42.083  0.00  0.00    +0.229 C 
BRANCH  25  26
ATOM     26  O3  <0> A   1     -12.243  10.996  41.804  0.00  0.00    -0.528 OA
ATOM     27  H30 <0> A   1     -11.901  10.483  42.549  0.00  0.00    +0.349 HD
ENDBRANCH  25  26
BRANCH  25  28
ATOM     28  C22 <0> A   1     -14.455  11.443  40.938  0.00  0.00    -0.103 C 
BRANCH  28  29
ATOM     29  C23 <0> A   1     -13.703  11.002  39.709  0.00  0.00    +0.491 C 
ATOM     30  O1  <0> A   1     -13.392  11.819  38.859  0.00  0.00    -0.681 OA
ATOM     31  O2  <0> A   1     -13.403   9.829  39.565  0.00  0.00    -0.714 OA
ENDBRANCH  28  29
ENDBRANCH  25  28
ENDBRANCH  24  25
ENDBRANCH  21  24
ENDBRANCH  20  21
ENDBRANCH  19  20
ENDBRANCH   2  19
TORSDOF 12
