REMARK VINA RESULT:      -7.9     15.006     18.385
REMARK  Name = CHEMBL155610
REMARK  8 active torsions:
REMARK  status: ('A' for Active; 'I' for Inactive)
REMARK    1  A    between atoms: C1_1  and  C2_2
REMARK    2  A    between atoms: C2_2  and  C3_3
REMARK    3  A    between atoms: C2_2  and  C4_4
REMARK    4  A    between atoms: C5_5  and  C20_24
REMARK    5  A    between atoms: C6_6  and  C14_17
REMARK    6  A    between atoms: C7_8  and  C8_10
REMARK    7  A    between atoms: C21_25  and  C22_26
REMARK    8  A    between atoms: C24_28  and  O3_34
REMARK                            x       y       z     vdW  Elec       q    Type
REMARK                         _______ _______ _______ _____ _____    ______ ____
ROOT
ATOM      1  C4  <0> A   1     -15.622  10.706  47.832  0.00  0.00    +0.211 A 
ATOM      2  C5  <0> A   1     -15.396   9.519  47.125  0.00  0.00    -0.164 A 
ATOM      3  C6  <0> A   1     -15.956   8.327  47.629  0.00  0.00    +0.245 A 
ATOM      4  N1  <0> A   1     -16.673   8.378  48.748  0.00  0.00    -0.507 NA
ATOM      5  C7  <0> A   1     -16.858   9.527  49.381  0.00  0.00    +0.375 A 
ATOM      6  N2  <0> A   1     -16.340  10.667  48.938  0.00  0.00    -0.507 NA
ENDROOT
BRANCH   5   7
ATOM      7  C8  <0> A   1     -17.662   9.539  50.626  0.00  0.00    -0.063 A 
ATOM      8  C9  <0> A   1     -17.048   9.792  51.853  0.00  0.00    +0.109 A 
ATOM      9  C10 <0> A   1     -17.801   9.802  53.009  0.00  0.00    -0.022 A 
ATOM     10  C11 <0> A   1     -19.164   9.561  52.952  0.00  0.00    +0.123 A 
ATOM     11  C12 <0> A   1     -19.778   9.309  51.736  0.00  0.00    -0.022 A 
ATOM     12  C13 <0> A   1     -19.035   9.303  50.574  0.00  0.00    +0.108 A 
ATOM     13  F1  <0> A   1     -19.896   9.572  54.087  0.00  0.00    -0.134 F 
ENDBRANCH   5   7
BRANCH   3  14
ATOM     14  C14 <0> A   1     -15.752   7.041  46.923  0.00  0.00    -0.079 A 
ATOM     15  C15 <0> A   1     -16.602   6.672  45.881  0.00  0.00    +0.089 A 
ATOM     16  C16 <0> A   1     -16.408   5.474  45.226  0.00  0.00    -0.001 A 
ATOM     17  C17 <0> A   1     -15.369   4.638  45.602  0.00  0.00    +0.121 A 
ATOM     18  C18 <0> A   1     -14.521   5.000  46.638  0.00  0.00    -0.021 A 
ATOM     19  C19 <0> A   1     -14.704   6.198  47.295  0.00  0.00    +0.094 A 
ATOM     20  F2  <0> A   1     -15.182   3.464  44.959  0.00  0.00    -0.135 F 
ENDBRANCH   3  14
BRANCH   1  22
ATOM     21  C1  <0> A   1     -16.048  13.137  47.596  0.00  0.00    +0.046 C 
ATOM     22  C2  <0> A   1     -15.047  12.009  47.340  0.00  0.00    +0.045 C 
ATOM     23  C3  <0> A   1     -13.744  12.304  48.085  0.00  0.00    +0.047 C 
ENDBRANCH   1  22
BRANCH   2  24
ATOM     24  C20 <0> A   1     -14.595   9.515  45.886  0.00  0.00    +0.048 C 
ATOM     25  C21 <0> A   1     -13.336   9.093  45.911  0.00  0.00    +0.002 C 
BRANCH  25  26
ATOM     26  C22 <0> A   1     -12.518   9.090  44.646  0.00  0.00    +0.230 C 
ATOM     27  C23 <0> A   1     -12.470   7.672  44.072  0.00  0.00    +0.043 C 
ATOM     28  C24 <0> A   1     -11.672   7.680  42.764  0.00  0.00    +0.179 C 
ATOM     29  C25 <0> A   1     -12.353   8.632  41.772  0.00  0.00    +0.021 C 
ATOM     30  C26 <0> A   1     -12.557   9.966  42.459  0.00  0.00    +0.492 C 
ATOM     31  O1  <0> A   1     -12.228  10.997  41.923  0.00  0.00    -0.444 OA
ATOM     32  O2  <0> A   1     -13.115   9.969  43.687  0.00  0.00    -0.358 OA
BRANCH  28  33
ATOM     33  O3  <0> A   1     -11.636   6.360  42.216  0.00  0.00    -0.555 OA
ATOM     34  H24 <0> A   1     -11.481   6.334  41.262  0.00  0.00    +0.387 HD
ENDBRANCH  28  33
ENDBRANCH  25  26
ENDBRANCH   2  24
TORSDOF 6
