REMARK VINA RESULT:      -7.4     16.756     21.390
REMARK  Name = CHEMBL471744
REMARK  17 active torsions:
REMARK  status: ('A' for Active; 'I' for Inactive)
REMARK    1  A    between atoms: C1_1  and  C2_2
REMARK    2  A    between atoms: C2_2  and  C3_3
REMARK    3  A    between atoms: C4_4  and  C23_31
REMARK    4  A    between atoms: C5_5  and  C20_28
REMARK    5  A    between atoms: C6_6  and  C14_21
REMARK    6  A    between atoms: N1_7  and  C7_8
REMARK    7  A    between atoms: C7_8  and  C8_9
REMARK    8  A    between atoms: C8_9  and  C9_10
REMARK    9  A    between atoms: C9_10  and  C10_12
REMARK   10  A    between atoms: C9_10  and  O4_20
REMARK   11  A    between atoms: C10_12  and  C11_13
REMARK   12  A    between atoms: C11_13  and  C12_15
REMARK   13  A    between atoms: C11_13  and  O3_19
REMARK   14  A    between atoms: C12_15  and  C13_16
REMARK   15  A    between atoms: C20_28  and  C21_29
REMARK   16  A    between atoms: C20_28  and  C22_30
REMARK   17  A    between atoms: N2_33  and  C24_34
REMARK                            x       y       z     vdW  Elec       q    Type
REMARK                         _______ _______ _______ _____ _____    ______ ____
ROOT
ATOM      1  C3  <0> A   1     -28.300  -4.543  52.185  0.00  0.00    +0.089 C 
ATOM      2  C4  <0> A   1     -27.396  -3.535  51.931  0.00  0.00    -0.221 C 
ATOM      3  C5  <0> A   1     -26.206  -4.153  51.466  0.00  0.00    -0.086 C 
ATOM      4  C6  <0> A   1     -26.432  -5.492  51.456  0.00  0.00    +0.043 C 
ATOM      5  N1  <0> A   1     -27.710  -5.722  51.902  0.00  0.00    -0.413 N 
ENDROOT
BRANCH   4   6
ATOM      6  C14 <0> A   1     -25.462  -6.530  51.041  0.00  0.00    -0.023 A 
ATOM      7  C15 <0> A   1     -25.308  -6.842  49.690  0.00  0.00    +0.065 A 
ATOM      8  C16 <0> A   1     -24.402  -7.810  49.308  0.00  0.00    -0.009 A 
ATOM      9  C17 <0> A   1     -23.647  -8.472  50.264  0.00  0.00    +0.102 A 
ATOM     10  C18 <0> A   1     -23.797  -8.165  51.606  0.00  0.00    -0.006 A 
ATOM     11  C19 <0> A   1     -24.695  -7.195  51.999  0.00  0.00    +0.046 A 
ATOM     12  F1  <0> A   1     -22.761  -9.419  49.884  0.00  0.00    -0.138 F 
ENDBRANCH   4   6
BRANCH   2  13
ATOM     13  C23 <0> A   1     -27.620  -2.090  52.108  0.00  0.00    +0.606 C 
ATOM     14  O5  <0> A   1     -27.237  -1.534  53.120  0.00  0.00    -0.512 OA
ATOM     15  N2  <0> A   1     -28.250  -1.384  51.149  0.00  0.00    -0.671 N 
ATOM     16  H29 <0> A   1     -28.488  -1.809  50.310  0.00  0.00    +0.411 HD
BRANCH  15  17
ATOM     17  C24 <0> A   1     -28.563  -0.037  51.363  0.00  0.00    +0.151 A 
ATOM     18  C25 <0> A   1     -27.652   0.953  51.017  0.00  0.00    -0.024 A 
ATOM     19  C26 <0> A   1     -27.963   2.281  51.229  0.00  0.00    +0.024 A 
ATOM     20  C27 <0> A   1     -29.181   2.627  51.787  0.00  0.00    -0.018 A 
ATOM     21  C28 <0> A   1     -30.090   1.643  52.133  0.00  0.00    +0.024 A 
ATOM     22  C29 <0> A   1     -29.787   0.314  51.917  0.00  0.00    +0.011 A 
ENDBRANCH  15  17
ENDBRANCH   2  13
BRANCH   3  23
ATOM     23  C20 <0> A   1     -24.934  -3.457  51.060  0.00  0.00    +0.048 C 
ATOM     24  C21 <0> A   1     -25.272  -2.243  50.191  0.00  0.00    +0.021 C 
ATOM     25  C22 <0> A   1     -24.183  -2.996  52.311  0.00  0.00    +0.024 C 
ENDBRANCH   3  23
BRANCH   1  27
ATOM     26  C1  <0> A   1     -30.659  -4.168  51.518  0.00  0.00    +0.035 C 
ATOM     27  C2  <0> A   1     -29.705  -4.360  52.698  0.00  0.00    +0.099 C 
ENDBRANCH   1  27
BRANCH   5  28
ATOM     28  C7  <0> A   1     -28.335  -7.039  52.043  0.00  0.00    +0.293 C 
BRANCH  28  29
ATOM     29  C8  <0> A   1     -28.823  -7.521  50.676  0.00  0.00    -0.014 C 
BRANCH  29  30
ATOM     30  C9  <0> A   1     -29.146  -9.015  50.748  0.00  0.00    +0.217 C 
BRANCH  30  31
ATOM     31  O4  <0> A   1     -27.931  -9.764  50.804  0.00  0.00    -0.541 OA
ATOM     32  H17 <0> A   1     -27.251  -9.369  51.368  0.00  0.00    +0.366 HD
ENDBRANCH  30  31
BRANCH  30  33
ATOM     33  C10 <0> A   1     -29.978  -9.298  52.000  0.00  0.00    -0.048 C 
BRANCH  33  34
ATOM     34  C11 <0> A   1     -30.742 -10.612  51.818  0.00  0.00    +0.231 C 
BRANCH  34  35
ATOM     35  O3  <0> A   1     -30.405 -11.188  50.555  0.00  0.00    -0.528 OA
ATOM     36  H16 <0> A   1     -29.464 -11.132  50.335  0.00  0.00    +0.350 HD
ENDBRANCH  34  35
BRANCH  34  37
ATOM     37  C12 <0> A   1     -30.360 -11.582  52.939  0.00  0.00    -0.102 C 
BRANCH  37  38
ATOM     38  C13 <0> A   1     -29.535 -12.707  52.370  0.00  0.00    +0.490 C 
ATOM     39  O1  <0> A   1     -30.042 -13.799  52.177  0.00  0.00    -0.681 OA
ATOM     40  O2  <0> A   1     -28.360 -12.525  52.101  0.00  0.00    -0.712 OA
ENDBRANCH  37  38
ENDBRANCH  34  37
ENDBRANCH  33  34
ENDBRANCH  30  33
ENDBRANCH  29  30
ENDBRANCH  28  29
ENDBRANCH   5  28
TORSDOF 14
