REMARK VINA RESULT:      -8.4      0.000      0.000
REMARK  Name = CHEMBL318707
REMARK  11 active torsions:
REMARK  status: ('A' for Active; 'I' for Inactive)
REMARK    1  A    between atoms: C1_1  and  C2_2
REMARK    2  A    between atoms: C2_2  and  C3_3
REMARK    3  A    between atoms: C2_2  and  C4_4
REMARK    4  A    between atoms: C6_6  and  C19_24
REMARK    5  A    between atoms: C7_7  and  O1_13
REMARK    6  A    between atoms: C8_8  and  C10_10
REMARK    7  A    between atoms: C10_10  and  C11_11
REMARK    8  A    between atoms: C10_10  and  C12_12
REMARK    9  A    between atoms: O1_13  and  C13_14
REMARK   10  A    between atoms: C13_14  and  C14_15
REMARK   11  A    between atoms: C16_17  and  O4_23
REMARK                            x       y       z     vdW  Elec       q    Type
REMARK                         _______ _______ _______ _____ _____    ______ ____
ROOT
ATOM      1  C4  <0> A   1      -2.765   3.375  44.974  0.00  0.00    -0.073 A 
ATOM      2  C5  <0> A   1      -2.416   4.367  45.869  0.00  0.00    +0.034 A 
ATOM      3  C6  <0> A   1      -3.380   4.905  46.718  0.00  0.00    -0.061 A 
ATOM      4  C7  <0> A   1      -4.696   4.436  46.659  0.00  0.00    +0.102 A 
ATOM      5  C8  <0> A   1      -5.032   3.442  45.755  0.00  0.00    -0.080 A 
ATOM      6  C9  <0> A   1      -4.068   2.918  44.912  0.00  0.00    +0.029 A 
ENDROOT
BRANCH   3   7
ATOM      7  C19 <0> A   1      -3.012   5.970  47.684  0.00  0.00    -0.057 A 
ATOM      8  C20 <0> A   1      -3.213   7.310  47.356  0.00  0.00    +0.077 A 
ATOM      9  C21 <0> A   1      -2.869   8.298  48.256  0.00  0.00    -0.016 A 
ATOM     10  C22 <0> A   1      -2.324   7.958  49.484  0.00  0.00    +0.102 A 
ATOM     11  C23 <0> A   1      -2.122   6.628  49.813  0.00  0.00    -0.018 A 
ATOM     12  C24 <0> A   1      -2.468   5.634  48.922  0.00  0.00    +0.053 A 
ATOM     13  F1  <0> A   1      -1.986   8.928  50.362  0.00  0.00    -0.139 F 
ENDBRANCH   3   7
BRANCH   1  15
ATOM     14  C1  <0> A   1      -1.981   3.266  42.623  0.00  0.00    +0.028 C 
ATOM     15  C2  <0> A   1      -1.721   2.794  44.056  0.00  0.00    +0.022 C 
ATOM     16  C3  <0> A   1      -0.333   3.259  44.502  0.00  0.00    +0.027 C 
ENDBRANCH   1  15
BRANCH   5  17
ATOM     17  C10 <0> A   1      -6.448   2.933  45.687  0.00  0.00    +0.031 C 
ATOM     18  C11 <0> A   1      -7.266   3.824  44.750  0.00  0.00    +0.029 C 
ATOM     19  C12 <0> A   1      -6.450   1.499  45.155  0.00  0.00    +0.025 C 
ENDBRANCH   5  17
BRANCH   4  20
ATOM     20  O1  <0> A   1      -5.643   4.956  47.483  0.00  0.00    -0.317 OA
BRANCH  20  21
ATOM     21  C13 <0> A   1      -6.333   4.039  48.335  0.00  0.00    +0.217 C 
BRANCH  21  22
ATOM     22  C14 <0> A   1      -5.556   3.874  49.643  0.00  0.00    +0.210 C 
ATOM     23  C15 <0> A   1      -6.063   2.637  50.388  0.00  0.00    +0.048 C 
ATOM     24  C16 <0> A   1      -5.311   2.498  51.715  0.00  0.00    +0.190 C 
ATOM     25  C17 <0> A   1      -5.554   3.760  52.555  0.00  0.00    +0.023 C 
ATOM     26  C18 <0> A   1      -5.224   4.967  51.704  0.00  0.00    +0.495 C 
ATOM     27  O2  <0> A   1      -4.511   5.848  52.124  0.00  0.00    -0.449 OA
ATOM     28  O3  <0> A   1      -5.750   5.032  50.463  0.00  0.00    -0.361 OA
BRANCH  24  29
ATOM     29  O4  <0> A   1      -3.913   2.352  51.461  0.00  0.00    -0.563 OA
ATOM     30  H25 <0> A   1      -3.352   2.533  52.228  0.00  0.00    +0.388 HD
ENDBRANCH  24  29
ENDBRANCH  21  22
ENDBRANCH  20  21
ENDBRANCH   4  20
TORSDOF 7
