REMARK  Name = CHEMBL60053
REMARK  8 active torsions:
REMARK  status: ('A' for Active; 'I' for Inactive)
REMARK    1  A    between atoms: C4_4  and  C7_7
REMARK    2  A    between atoms: C7_7  and  C8_8
REMARK    3  A    between atoms: C8_8  and  C9_9
REMARK    4  A    between atoms: C9_9  and  C10_11
REMARK    5  A    between atoms: C10_11  and  C11_12
REMARK    6  A    between atoms: C11_12  and  C12_14
REMARK    7  A    between atoms: C11_12  and  O4_18
REMARK    8  A    between atoms: C12_14  and  C13_15
REMARK                            x       y       z     vdW  Elec       q    Type
REMARK                         _______ _______ _______ _____ _____    ______ ____
ROOT
ATOM      1  C9  <0> A   1       5.487  -1.699   1.381  0.00  0.00    +0.349 C 
ATOM      2  O1  <0> A   1       6.003  -1.988   0.329  0.00  0.00    -0.429 OA
ENDROOT
BRANCH   1   3
ATOM      3  C8  <0> A   1       4.171  -0.963   1.399  0.00  0.00    +0.026 C 
BRANCH   3   4
ATOM      4  C7  <0> A   1       3.711  -0.707  -0.038  0.00  0.00    +0.083 C 
BRANCH   4   8
ATOM      5  C1  <0> A   1      -0.017   1.378   0.010  0.00  0.00    -0.010 A 
ATOM      6  C2  <0> A   1       1.171   2.086   0.002  0.00  0.00    +0.001 A 
ATOM      7  C3  <0> A   1       2.377   1.411  -0.013  0.00  0.00    +0.004 A 
ATOM      8  C4  <0> A   1       2.396   0.029  -0.020  0.00  0.00    -0.077 A 
ATOM      9  C5  <0> A   1       1.208  -0.679  -0.012  0.00  0.00    +0.004 A 
ATOM     10  C6  <0> A   1       0.002  -0.004   0.002  0.00  0.00    +0.001 A 
ENDBRANCH   4   8
ENDBRANCH   3   4
ENDBRANCH   1   3
BRANCH   1  11
ATOM     11  C10 <0> A   1       6.158  -2.073   2.678  0.00  0.00    -0.015 C 
BRANCH  11  12
ATOM     12  C11 <0> A   1       7.468  -2.806   2.381  0.00  0.00    +0.240 C 
BRANCH  12  13
ATOM     13  O4  <0> A   1       8.375  -1.915   1.729  0.00  0.00    -0.532 OA
ATOM     14  H15 <0> A   1       8.598  -1.131   2.249  0.00  0.00    +0.351 HD
ENDBRANCH  12  13
BRANCH  12  15
ATOM     15  C12 <0> A   1       8.087  -3.295   3.692  0.00  0.00    -0.096 C 
BRANCH  15  16
ATOM     16  C13 <0> A   1       9.311  -4.122   3.391  0.00  0.00    +0.490 C 
ATOM     17  O2  <0> A   1       9.656  -4.303   2.236  0.00  0.00    -0.679 OA
ATOM     18  O3  <0> A   1       9.956  -4.609   4.304  0.00  0.00    -0.712 OA
ENDBRANCH  15  16
ENDBRANCH  12  15
ENDBRANCH  11  12
ENDBRANCH   1  11
TORSDOF 8
