MODEL 1
REMARK VINA RESULT:      -7.4      0.000      0.000
REMARK  Name = CHEMBL101806
REMARK  11 active torsions:
REMARK  status: ('A' for Active; 'I' for Inactive)
REMARK    1  A    between atoms: C5_5  and  O2_15
REMARK    2  A    between atoms: C6_6  and  C7_7
REMARK    3  A    between atoms: C7_7  and  C8_9
REMARK    4  A    between atoms: O2_15  and  C14_16
REMARK    5  A    between atoms: C14_16  and  C15_17
REMARK    6  A    between atoms: C15_17  and  C16_18
REMARK    7  A    between atoms: C15_17  and  O6_26
REMARK    8  A    between atoms: C16_18  and  C17_19
REMARK    9  A    between atoms: C17_19  and  C18_21
REMARK   10  A    between atoms: C17_19  and  O5_25
REMARK   11  A    between atoms: C18_21  and  C19_22
REMARK                            x       y       z     vdW  Elec       q    Type
REMARK                         _______ _______ _______ _____ _____    ______ ____
ROOT
ATOM      1  C1  <0> A   1     -14.797   7.970  46.989  0.00  0.00    +0.103 A 
ATOM      2  C2  <0> A   1     -16.068   7.448  47.094  0.00  0.00    -0.048 A 
ATOM      3  C3  <0> A   1     -16.524   6.525  46.164  0.00  0.00    +0.091 A 
ATOM      4  C4  <0> A   1     -15.711   6.118  45.125  0.00  0.00    -0.063 A 
ATOM      5  C5  <0> A   1     -14.429   6.632  45.003  0.00  0.00    +0.174 A 
ATOM      6  C6  <0> A   1     -13.961   7.567  45.940  0.00  0.00    -0.168 A 
ATOM      7 Cl1  <0> A   1     -16.295   4.961  43.969  0.00  0.00    -0.030 Cl
ATOM      8 Cl2  <0> A   1     -17.103   7.949  48.394  0.00  0.00    -0.049 Cl
ENDROOT
BRANCH   6   9
ATOM      9  C7  <0> A   1     -12.607   8.119  45.821  0.00  0.00    +0.394 C 
ATOM     10  O1  <0> A   1     -11.645   7.433  46.100  0.00  0.00    -0.410 OA
BRANCH   9  11
ATOM     11  C8  <0> A   1     -12.410   9.538  45.354  0.00  0.00    -0.031 C 
ATOM     12  C9  <0> A   1     -12.231  10.455  46.566  0.00  0.00    +0.029 C 
ATOM     13  C10 <0> A   1     -12.032  11.895  46.091  0.00  0.00    +0.015 C 
ATOM     14  C11 <0> A   1     -13.256  12.343  45.291  0.00  0.00    +0.004 C 
ATOM     15  C12 <0> A   1     -13.435  11.426  44.078  0.00  0.00    +0.010 C 
ATOM     16  C13 <0> A   1     -13.635   9.986  44.553  0.00  0.00    +0.034 C 
ENDBRANCH   9  11
ENDBRANCH   6   9
BRANCH   5  17
ATOM     17  O2  <0> A   1     -13.628   6.232  43.981  0.00  0.00    -0.298 OA
BRANCH  17  18
ATOM     18  C14 <0> A   1     -13.785   6.908  42.732  0.00  0.00    +0.164 C 
BRANCH  18  19
ATOM     19  C15 <0> A   1     -12.413   7.338  42.210  0.00  0.00    +0.233 C 
BRANCH  19  20
ATOM     20  O6  <0> A   1     -11.552   6.201  42.138  0.00  0.00    -0.530 OA
ATOM     21  H23 <0> A   1     -10.660   6.402  41.823  0.00  0.00    +0.362 HD
ENDBRANCH  19  20
BRANCH  19  22
ATOM     22  C16 <0> A   1     -12.567   7.950  40.816  0.00  0.00    -0.042 C 
BRANCH  22  23
ATOM     23  C17 <0> A   1     -12.988   9.415  40.945  0.00  0.00    +0.236 C 
BRANCH  23  24
ATOM     24  O5  <0> A   1     -11.824  10.237  41.052  0.00  0.00    -0.526 OA
ATOM     25  H22 <0> A   1     -11.047   9.882  40.596  0.00  0.00    +0.350 HD
ENDBRANCH  23  24
BRANCH  23  26
ATOM     26  C18 <0> A   1     -13.789   9.825  39.708  0.00  0.00    -0.101 C 
BRANCH  26  27
ATOM     27  C19 <0> A   1     -13.877  11.329  39.644  0.00  0.00    +0.491 C 
ATOM     28  O3  <0> A   1     -14.512  11.939  40.486  0.00  0.00    -0.680 OA
ATOM     29  O4  <0> A   1     -13.313  11.935  38.749  0.00  0.00    -0.713 OA
ENDBRANCH  26  27
ENDBRANCH  23  26
ENDBRANCH  22  23
ENDBRANCH  19  22
ENDBRANCH  18  19
ENDBRANCH  17  18
ENDBRANCH   5  17
TORSDOF 11
ENDMDL
MODEL 2
REMARK VINA RESULT:      -7.2     22.957     24.593
REMARK  Name = CHEMBL101806
REMARK  11 active torsions:
REMARK  status: ('A' for Active; 'I' for Inactive)
REMARK    1  A    between atoms: C5_5  and  O2_15
REMARK    2  A    between atoms: C6_6  and  C7_7
REMARK    3  A    between atoms: C7_7  and  C8_9
REMARK    4  A    between atoms: O2_15  and  C14_16
REMARK    5  A    between atoms: C14_16  and  C15_17
REMARK    6  A    between atoms: C15_17  and  C16_18
REMARK    7  A    between atoms: C15_17  and  O6_26
REMARK    8  A    between atoms: C16_18  and  C17_19
REMARK    9  A    between atoms: C17_19  and  C18_21
REMARK   10  A    between atoms: C17_19  and  O5_25
REMARK   11  A    between atoms: C18_21  and  C19_22
REMARK                            x       y       z     vdW  Elec       q    Type
REMARK                         _______ _______ _______ _____ _____    ______ ____
ROOT
ATOM      1  C1  <0> A   1       2.971  21.910  34.931  0.00  0.00    +0.103 A 
ATOM      2  C2  <0> A   1       2.554  23.013  34.218  0.00  0.00    -0.048 A 
ATOM      3  C3  <0> A   1       3.062  23.262  32.952  0.00  0.00    +0.091 A 
ATOM      4  C4  <0> A   1       3.992  22.407  32.391  0.00  0.00    -0.063 A 
ATOM      5  C5  <0> A   1       4.424  21.292  33.092  0.00  0.00    +0.174 A 
ATOM      6  C6  <0> A   1       3.913  21.036  34.375  0.00  0.00    -0.168 A 
ATOM      7 Cl1  <0> A   1       4.619  22.730  30.804  0.00  0.00    -0.030 Cl
ATOM      8 Cl2  <0> A   1       1.387  24.097  34.908  0.00  0.00    -0.049 Cl
ENDROOT
BRANCH   6   9
ATOM      9  C7  <0> A   1       4.363  19.859  35.128  0.00  0.00    +0.394 C 
ATOM     10  O1  <0> A   1       3.684  18.854  35.146  0.00  0.00    -0.410 OA
BRANCH   9  11
ATOM     11  C8  <0> A   1       5.669  19.900  35.880  0.00  0.00    -0.031 C 
ATOM     12  C9  <0> A   1       5.548  19.069  37.158  0.00  0.00    +0.029 C 
ATOM     13  C10 <0> A   1       6.873  19.112  37.921  0.00  0.00    +0.015 C 
ATOM     14  C11 <0> A   1       7.207  20.559  38.285  0.00  0.00    +0.004 C 
ATOM     15  C12 <0> A   1       7.328  21.391  37.006  0.00  0.00    +0.010 C 
ATOM     16  C13 <0> A   1       6.002  21.349  36.243  0.00  0.00    +0.034 C 
ENDBRANCH   9  11
ENDBRANCH   6   9
BRANCH   5  17
ATOM     17  O2  <0> A   1       5.337  20.452  32.542  0.00  0.00    -0.298 OA
BRANCH  17  18
ATOM     18  C14 <0> A   1       4.854  19.506  31.585  0.00  0.00    +0.164 C 
BRANCH  18  19
ATOM     19  C15 <0> A   1       5.297  18.099  31.992  0.00  0.00    +0.233 C 
BRANCH  19  20
ATOM     20  O6  <0> A   1       4.163  17.355  32.443  0.00  0.00    -0.530 OA
ATOM     21  H23 <0> A   1       3.369  17.486  31.909  0.00  0.00    +0.362 HD
ENDBRANCH  19  20
BRANCH  19  22
ATOM     22  C16 <0> A   1       5.924  17.393  30.789  0.00  0.00    -0.042 C 
BRANCH  22  23
ATOM     23  C17 <0> A   1       4.859  17.181  29.710  0.00  0.00    +0.236 C 
BRANCH  23  24
ATOM     24  O5  <0> A   1       5.079  18.101  28.638  0.00  0.00    -0.526 OA
ATOM     25  H22 <0> A   1       5.039  17.699  27.759  0.00  0.00    +0.350 HD
ENDBRANCH  23  24
BRANCH  23  26
ATOM     26  C18 <0> A   1       4.950  15.749  29.179  0.00  0.00    -0.101 C 
BRANCH  26  27
ATOM     27  C19 <0> A   1       5.480  15.770  27.768  0.00  0.00    +0.491 C 
ATOM     28  O3  <0> A   1       4.708  15.854  26.829  0.00  0.00    -0.680 OA
ATOM     29  O4  <0> A   1       6.681  15.703  27.566  0.00  0.00    -0.713 OA
ENDBRANCH  26  27
ENDBRANCH  23  26
ENDBRANCH  22  23
ENDBRANCH  19  22
ENDBRANCH  18  19
ENDBRANCH  17  18
ENDBRANCH   5  17
TORSDOF 11
ENDMDL
MODEL 3
REMARK VINA RESULT:      -7.2     17.643     21.163
REMARK  Name = CHEMBL101806
REMARK  11 active torsions:
REMARK  status: ('A' for Active; 'I' for Inactive)
REMARK    1  A    between atoms: C5_5  and  O2_15
REMARK    2  A    between atoms: C6_6  and  C7_7
REMARK    3  A    between atoms: C7_7  and  C8_9
REMARK    4  A    between atoms: O2_15  and  C14_16
REMARK    5  A    between atoms: C14_16  and  C15_17
REMARK    6  A    between atoms: C15_17  and  C16_18
REMARK    7  A    between atoms: C15_17  and  O6_26
REMARK    8  A    between atoms: C16_18  and  C17_19
REMARK    9  A    between atoms: C17_19  and  C18_21
REMARK   10  A    between atoms: C17_19  and  O5_25
REMARK   11  A    between atoms: C18_21  and  C19_22
REMARK                            x       y       z     vdW  Elec       q    Type
REMARK                         _______ _______ _______ _____ _____    ______ ____
ROOT
ATOM      1  C1  <0> A   1     -26.606  -5.848  52.565  0.00  0.00    +0.103 A 
ATOM      2  C2  <0> A   1     -27.853  -6.434  52.548  0.00  0.00    -0.048 A 
ATOM      3  C3  <0> A   1     -28.307  -7.079  51.408  0.00  0.00    +0.091 A 
ATOM      4  C4  <0> A   1     -27.516  -7.143  50.277  0.00  0.00    -0.063 A 
ATOM      5  C5  <0> A   1     -26.258  -6.559  50.275  0.00  0.00    +0.174 A 
ATOM      6  C6  <0> A   1     -25.793  -5.904  51.427  0.00  0.00    -0.168 A 
ATOM      7 Cl1  <0> A   1     -28.097  -7.955  48.857  0.00  0.00    -0.030 Cl
ATOM      8 Cl2  <0> A   1     -28.860  -6.363  53.960  0.00  0.00    -0.049 Cl
ENDROOT
BRANCH   6   9
ATOM      9  C7  <0> A   1     -24.464  -5.282  51.437  0.00  0.00    +0.394 C 
ATOM     10  O1  <0> A   1     -23.542  -5.829  52.005  0.00  0.00    -0.410 OA
BRANCH   9  11
ATOM     11  C8  <0> A   1     -24.245  -3.962  50.743  0.00  0.00    -0.031 C 
ATOM     12  C9  <0> A   1     -23.043  -3.250  51.367  0.00  0.00    +0.029 C 
ATOM     13  C10 <0> A   1     -22.822  -1.910  50.663  0.00  0.00    +0.015 C 
ATOM     14  C11 <0> A   1     -24.068  -1.038  50.820  0.00  0.00    +0.004 C 
ATOM     15  C12 <0> A   1     -25.270  -1.750  50.195  0.00  0.00    +0.010 C 
ATOM     16  C13 <0> A   1     -25.492  -3.090  50.900  0.00  0.00    +0.034 C 
ENDBRANCH   9  11
ENDBRANCH   6   9
BRANCH   5  17
ATOM     17  O2  <0> A   1     -25.479  -6.621  49.165  0.00  0.00    -0.298 OA
BRANCH  17  18
ATOM     18  C14 <0> A   1     -24.636  -7.766  49.027  0.00  0.00    +0.164 C 
BRANCH  18  19
ATOM     19  C15 <0> A   1     -24.934  -8.461  47.696  0.00  0.00    +0.233 C 
BRANCH  19  20
ATOM     20  O6  <0> A   1     -23.901  -8.156  46.757  0.00  0.00    -0.530 OA
ATOM     21  H23 <0> A   1     -24.074  -7.368  46.224  0.00  0.00    +0.362 HD
ENDBRANCH  19  20
BRANCH  19  22
ATOM     22  C16 <0> A   1     -24.996  -9.974  47.913  0.00  0.00    -0.042 C 
BRANCH  22  23
ATOM     23  C17 <0> A   1     -24.766 -10.287  49.393  0.00  0.00    +0.236 C 
BRANCH  23  24
ATOM     24  O5  <0> A   1     -26.010 -10.635  50.004  0.00  0.00    -0.526 OA
ATOM     25  H22 <0> A   1     -26.624  -9.893  50.099  0.00  0.00    +0.350 HD
ENDBRANCH  23  24
BRANCH  23  26
ATOM     26  C18 <0> A   1     -23.791 -11.459  49.521  0.00  0.00    -0.101 C 
BRANCH  26  27
ATOM     27  C19 <0> A   1     -24.471 -12.602  50.230  0.00  0.00    +0.491 C 
ATOM     28  O3  <0> A   1     -25.144 -13.396  49.598  0.00  0.00    -0.680 OA
ATOM     29  O4  <0> A   1     -24.346 -12.732  51.436  0.00  0.00    -0.713 OA
ENDBRANCH  26  27
ENDBRANCH  23  26
ENDBRANCH  22  23
ENDBRANCH  19  22
ENDBRANCH  18  19
ENDBRANCH  17  18
ENDBRANCH   5  17
TORSDOF 11
ENDMDL
MODEL 4
REMARK VINA RESULT:      -7.1      2.464      4.447
REMARK  Name = CHEMBL101806
REMARK  11 active torsions:
REMARK  status: ('A' for Active; 'I' for Inactive)
REMARK    1  A    between atoms: C5_5  and  O2_15
REMARK    2  A    between atoms: C6_6  and  C7_7
REMARK    3  A    between atoms: C7_7  and  C8_9
REMARK    4  A    between atoms: O2_15  and  C14_16
REMARK    5  A    between atoms: C14_16  and  C15_17
REMARK    6  A    between atoms: C15_17  and  C16_18
REMARK    7  A    between atoms: C15_17  and  O6_26
REMARK    8  A    between atoms: C16_18  and  C17_19
REMARK    9  A    between atoms: C17_19  and  C18_21
REMARK   10  A    between atoms: C17_19  and  O5_25
REMARK   11  A    between atoms: C18_21  and  C19_22
REMARK                            x       y       z     vdW  Elec       q    Type
REMARK                         _______ _______ _______ _____ _____    ______ ____
ROOT
ATOM      1  C1  <0> A   1     -15.586   8.364  48.527  0.00  0.00    +0.103 A 
ATOM      2  C2  <0> A   1     -16.405   9.083  49.371  0.00  0.00    -0.048 A 
ATOM      3  C3  <0> A   1     -16.763  10.386  49.056  0.00  0.00    +0.091 A 
ATOM      4  C4  <0> A   1     -16.304  10.977  47.895  0.00  0.00    -0.063 A 
ATOM      5  C5  <0> A   1     -15.479  10.269  47.033  0.00  0.00    +0.174 A 
ATOM      6  C6  <0> A   1     -15.113   8.950  47.347  0.00  0.00    -0.168 A 
ATOM      7 Cl1  <0> A   1     -16.760  12.607  47.514  0.00  0.00    -0.030 Cl
ATOM      8 Cl2  <0> A   1     -16.990   8.355  50.833  0.00  0.00    -0.049 Cl
ENDROOT
BRANCH   6   9
ATOM      9  C7  <0> A   1     -14.240   8.191  46.444  0.00  0.00    +0.394 C 
ATOM     10  O1  <0> A   1     -13.051   8.430  46.406  0.00  0.00    -0.410 OA
BRANCH   9  11
ATOM     11  C8  <0> A   1     -14.821   7.115  45.563  0.00  0.00    -0.031 C 
ATOM     12  C9  <0> A   1     -14.515   5.742  46.164  0.00  0.00    +0.029 C 
ATOM     13  C10 <0> A   1     -15.103   4.650  45.269  0.00  0.00    +0.015 C 
ATOM     14  C11 <0> A   1     -14.485   4.744  43.874  0.00  0.00    +0.004 C 
ATOM     15  C12 <0> A   1     -14.792   6.117  43.272  0.00  0.00    +0.010 C 
ATOM     16  C13 <0> A   1     -14.202   7.210  44.166  0.00  0.00    +0.034 C 
ENDBRANCH   9  11
ENDBRANCH   6   9
BRANCH   5  17
ATOM     17  O2  <0> A   1     -15.028  10.848  45.892  0.00  0.00    -0.298 OA
BRANCH  17  18
ATOM     18  C14 <0> A   1     -13.915  11.737  46.012  0.00  0.00    +0.164 C 
BRANCH  18  19
ATOM     19  C15 <0> A   1     -13.076  11.677  44.734  0.00  0.00    +0.233 C 
BRANCH  19  20
ATOM     20  O6  <0> A   1     -11.921  10.866  44.960  0.00  0.00    -0.530 OA
ATOM     21  H23 <0> A   1     -11.684  10.303  44.211  0.00  0.00    +0.362 HD
ENDBRANCH  19  20
BRANCH  19  22
ATOM     22  C16 <0> A   1     -13.910  11.073  43.603  0.00  0.00    -0.042 C 
BRANCH  22  23
ATOM     23  C17 <0> A   1     -13.458  11.662  42.265  0.00  0.00    +0.236 C 
BRANCH  23  24
ATOM     24  O5  <0> A   1     -12.259  11.011  41.839  0.00  0.00    -0.526 OA
ATOM     25  H22 <0> A   1     -12.032  11.169  40.913  0.00  0.00    +0.350 HD
ENDBRANCH  23  24
BRANCH  23  26
ATOM     26  C18 <0> A   1     -14.554  11.446  41.219  0.00  0.00    -0.101 C 
BRANCH  26  27
ATOM     27  C19 <0> A   1     -13.931  10.962  39.934  0.00  0.00    +0.491 C 
ATOM     28  O3  <0> A   1     -13.649  11.758  39.056  0.00  0.00    -0.680 OA
ATOM     29  O4  <0> A   1     -13.710   9.773  39.774  0.00  0.00    -0.713 OA
ENDBRANCH  26  27
ENDBRANCH  23  26
ENDBRANCH  22  23
ENDBRANCH  19  22
ENDBRANCH  18  19
ENDBRANCH  17  18
ENDBRANCH   5  17
TORSDOF 11
ENDMDL
MODEL 5
REMARK VINA RESULT:      -7.1     22.077     23.598
REMARK  Name = CHEMBL101806
REMARK  11 active torsions:
REMARK  status: ('A' for Active; 'I' for Inactive)
REMARK    1  A    between atoms: C5_5  and  O2_15
REMARK    2  A    between atoms: C6_6  and  C7_7
REMARK    3  A    between atoms: C7_7  and  C8_9
REMARK    4  A    between atoms: O2_15  and  C14_16
REMARK    5  A    between atoms: C14_16  and  C15_17
REMARK    6  A    between atoms: C15_17  and  C16_18
REMARK    7  A    between atoms: C15_17  and  O6_26
REMARK    8  A    between atoms: C16_18  and  C17_19
REMARK    9  A    between atoms: C17_19  and  C18_21
REMARK   10  A    between atoms: C17_19  and  O5_25
REMARK   11  A    between atoms: C18_21  and  C19_22
REMARK                            x       y       z     vdW  Elec       q    Type
REMARK                         _______ _______ _______ _____ _____    ______ ____
ROOT
ATOM      1  C1  <0> A   1     -29.914  23.189  37.564  0.00  0.00    +0.103 A 
ATOM      2  C2  <0> A   1     -30.439  22.397  38.561  0.00  0.00    -0.048 A 
ATOM      3  C3  <0> A   1     -31.441  21.481  38.274  0.00  0.00    +0.091 A 
ATOM      4  C4  <0> A   1     -31.921  21.352  36.985  0.00  0.00    -0.063 A 
ATOM      5  C5  <0> A   1     -31.404  22.139  35.967  0.00  0.00    +0.174 A 
ATOM      6  C6  <0> A   1     -30.391  23.069  36.253  0.00  0.00    -0.168 A 
ATOM      7 Cl1  <0> A   1     -33.173  20.200  36.639  0.00  0.00    -0.030 Cl
ATOM      8 Cl2  <0> A   1     -29.847  22.548  40.185  0.00  0.00    -0.049 Cl
ENDROOT
BRANCH   6   9
ATOM      9  C7  <0> A   1     -29.837  23.909  35.185  0.00  0.00    +0.394 C 
ATOM     10  O1  <0> A   1     -30.431  24.903  34.824  0.00  0.00    -0.410 OA
BRANCH   9  11
ATOM     11  C8  <0> A   1     -28.529  23.535  34.535  0.00  0.00    -0.031 C 
ATOM     12  C9  <0> A   1     -27.412  24.418  35.093  0.00  0.00    +0.029 C 
ATOM     13  C10 <0> A   1     -26.085  24.040  34.432  0.00  0.00    +0.015 C 
ATOM     14  C11 <0> A   1     -26.189  24.245  32.920  0.00  0.00    +0.004 C 
ATOM     15  C12 <0> A   1     -27.307  23.362  32.362  0.00  0.00    +0.010 C 
ATOM     16  C13 <0> A   1     -28.635  23.741  33.022  0.00  0.00    +0.034 C 
ENDBRANCH   9  11
ENDBRANCH   6   9
BRANCH   5  17
ATOM     17  O2  <0> A   1     -31.875  22.012  34.701  0.00  0.00    -0.298 OA
BRANCH  17  18
ATOM     18  C14 <0> A   1     -31.325  20.960  33.906  0.00  0.00    +0.164 C 
BRANCH  18  19
ATOM     19  C15 <0> A   1     -32.445  20.278  33.117  0.00  0.00    +0.233 C 
BRANCH  19  20
ATOM     20  O6  <0> A   1     -32.476  20.799  31.787  0.00  0.00    -0.530 OA
ATOM     21  H23 <0> A   1     -33.030  20.290  31.178  0.00  0.00    +0.362 HD
ENDBRANCH  19  20
BRANCH  19  22
ATOM     22  C16 <0> A   1     -32.190  18.771  33.069  0.00  0.00    -0.042 C 
BRANCH  22  23
ATOM     23  C17 <0> A   1     -31.570  18.401  31.719  0.00  0.00    +0.236 C 
BRANCH  23  24
ATOM     24  O5  <0> A   1     -30.490  17.489  31.927  0.00  0.00    -0.526 OA
ATOM     25  H22 <0> A   1     -30.699  16.759  32.526  0.00  0.00    +0.350 HD
ENDBRANCH  23  24
BRANCH  23  26
ATOM     26  C18 <0> A   1     -32.630  17.742  30.835  0.00  0.00    -0.101 C 
BRANCH  26  27
ATOM     27  C19 <0> A   1     -32.148  17.720  29.407  0.00  0.00    +0.491 C 
ATOM     28  O3  <0> A   1     -31.589  16.730  28.968  0.00  0.00    -0.680 OA
ATOM     29  O4  <0> A   1     -32.318  18.692  28.690  0.00  0.00    -0.713 OA
ENDBRANCH  26  27
ENDBRANCH  23  26
ENDBRANCH  22  23
ENDBRANCH  19  22
ENDBRANCH  18  19
ENDBRANCH  17  18
ENDBRANCH   5  17
TORSDOF 11
ENDMDL
MODEL 6
REMARK VINA RESULT:      -7.1      0.802      1.383
REMARK  Name = CHEMBL101806
REMARK  11 active torsions:
REMARK  status: ('A' for Active; 'I' for Inactive)
REMARK    1  A    between atoms: C5_5  and  O2_15
REMARK    2  A    between atoms: C6_6  and  C7_7
REMARK    3  A    between atoms: C7_7  and  C8_9
REMARK    4  A    between atoms: O2_15  and  C14_16
REMARK    5  A    between atoms: C14_16  and  C15_17
REMARK    6  A    between atoms: C15_17  and  C16_18
REMARK    7  A    between atoms: C15_17  and  O6_26
REMARK    8  A    between atoms: C16_18  and  C17_19
REMARK    9  A    between atoms: C17_19  and  C18_21
REMARK   10  A    between atoms: C17_19  and  O5_25
REMARK   11  A    between atoms: C18_21  and  C19_22
REMARK                            x       y       z     vdW  Elec       q    Type
REMARK                         _______ _______ _______ _____ _____    ______ ____
ROOT
ATOM      1  C1  <0> A   1     -15.469   7.826  47.066  0.00  0.00    +0.103 A 
ATOM      2  C2  <0> A   1     -16.548   7.002  46.832  0.00  0.00    -0.048 A 
ATOM      3  C3  <0> A   1     -16.537   6.123  45.759  0.00  0.00    +0.091 A 
ATOM      4  C4  <0> A   1     -15.446   6.063  44.914  0.00  0.00    -0.063 A 
ATOM      5  C5  <0> A   1     -14.350   6.885  45.134  0.00  0.00    +0.174 A 
ATOM      6  C6  <0> A   1     -14.356   7.777  46.218  0.00  0.00    -0.168 A 
ATOM      7 Cl1  <0> A   1     -15.445   4.958  43.576  0.00  0.00    -0.030 Cl
ATOM      8 Cl2  <0> A   1     -17.926   7.063  47.884  0.00  0.00    -0.049 Cl
ENDROOT
BRANCH   6   9
ATOM      9  C7  <0> A   1     -13.203   8.653  46.461  0.00  0.00    +0.394 C 
ATOM     10  O1  <0> A   1     -12.110   8.172  46.671  0.00  0.00    -0.410 OA
BRANCH   9  11
ATOM     11  C8  <0> A   1     -13.379  10.150  46.449  0.00  0.00    -0.031 C 
ATOM     12  C9  <0> A   1     -12.846  10.716  45.132  0.00  0.00    +0.029 C 
ATOM     13  C10 <0> A   1     -13.023  12.235  45.121  0.00  0.00    +0.015 C 
ATOM     14  C11 <0> A   1     -12.250  12.849  46.289  0.00  0.00    +0.004 C 
ATOM     15  C12 <0> A   1     -12.784  12.282  47.607  0.00  0.00    +0.010 C 
ATOM     16  C13 <0> A   1     -12.606  10.763  47.618  0.00  0.00    +0.034 C 
ENDBRANCH   9  11
ENDBRANCH   6   9
BRANCH   5  17
ATOM     17  O2  <0> A   1     -13.277   6.827  44.304  0.00  0.00    -0.298 OA
BRANCH  17  18
ATOM     18  C14 <0> A   1     -13.314   7.652  43.138  0.00  0.00    +0.164 C 
BRANCH  18  19
ATOM     19  C15 <0> A   1     -12.045   7.426  42.314  0.00  0.00    +0.233 C 
BRANCH  19  20
ATOM     20  O6  <0> A   1     -11.791   6.024  42.204  0.00  0.00    -0.530 OA
ATOM     21  H23 <0> A   1     -11.813   5.691  41.297  0.00  0.00    +0.362 HD
ENDBRANCH  19  20
BRANCH  19  22
ATOM     22  C16 <0> A   1     -12.230   8.022  40.918  0.00  0.00    -0.042 C 
BRANCH  22  23
ATOM     23  C17 <0> A   1     -12.849   9.416  41.035  0.00  0.00    +0.236 C 
BRANCH  23  24
ATOM     24  O5  <0> A   1     -11.813  10.380  41.236  0.00  0.00    -0.526 OA
ATOM     25  H22 <0> A   1     -11.713  11.009  40.508  0.00  0.00    +0.350 HD
ENDBRANCH  23  24
BRANCH  23  26
ATOM     26  C18 <0> A   1     -13.609   9.746  39.750  0.00  0.00    -0.101 C 
BRANCH  26  27
ATOM     27  C19 <0> A   1     -13.621  11.239  39.543  0.00  0.00    +0.491 C 
ATOM     28  O3  <0> A   1     -12.845  11.751  38.755  0.00  0.00    -0.680 OA
ATOM     29  O4  <0> A   1     -14.406  11.935  40.164  0.00  0.00    -0.713 OA
ENDBRANCH  26  27
ENDBRANCH  23  26
ENDBRANCH  22  23
ENDBRANCH  19  22
ENDBRANCH  18  19
ENDBRANCH  17  18
ENDBRANCH   5  17
TORSDOF 11
ENDMDL
MODEL 7
REMARK VINA RESULT:      -7.1      9.744     12.005
REMARK  Name = CHEMBL101806
REMARK  11 active torsions:
REMARK  status: ('A' for Active; 'I' for Inactive)
REMARK    1  A    between atoms: C5_5  and  O2_15
REMARK    2  A    between atoms: C6_6  and  C7_7
REMARK    3  A    between atoms: C7_7  and  C8_9
REMARK    4  A    between atoms: O2_15  and  C14_16
REMARK    5  A    between atoms: C14_16  and  C15_17
REMARK    6  A    between atoms: C15_17  and  C16_18
REMARK    7  A    between atoms: C15_17  and  O6_26
REMARK    8  A    between atoms: C16_18  and  C17_19
REMARK    9  A    between atoms: C17_19  and  C18_21
REMARK   10  A    between atoms: C17_19  and  O5_25
REMARK   11  A    between atoms: C18_21  and  C19_22
REMARK                            x       y       z     vdW  Elec       q    Type
REMARK                         _______ _______ _______ _____ _____    ______ ____
ROOT
ATOM      1  C1  <0> A   1      -3.196   6.912  47.643  0.00  0.00    +0.103 A 
ATOM      2  C2  <0> A   1      -2.963   7.547  48.844  0.00  0.00    -0.048 A 
ATOM      3  C3  <0> A   1      -3.372   6.964  50.034  0.00  0.00    +0.091 A 
ATOM      4  C4  <0> A   1      -4.015   5.742  50.030  0.00  0.00    -0.063 A 
ATOM      5  C5  <0> A   1      -4.258   5.087  48.832  0.00  0.00    +0.174 A 
ATOM      6  C6  <0> A   1      -3.847   5.673  47.624  0.00  0.00    -0.168 A 
ATOM      7 Cl1  <0> A   1      -4.520   5.024  51.528  0.00  0.00    -0.030 Cl
ATOM      8 Cl2  <0> A   1      -2.155   9.083  48.866  0.00  0.00    -0.049 Cl
ENDROOT
BRANCH   6   9
ATOM      9  C7  <0> A   1      -4.100   4.991  46.349  0.00  0.00    +0.394 C 
ATOM     10  O1  <0> A   1      -5.088   5.264  45.700  0.00  0.00    -0.410 OA
BRANCH   9  11
ATOM     11  C8  <0> A   1      -3.132   3.951  45.847  0.00  0.00    -0.031 C 
ATOM     12  C9  <0> A   1      -1.722   4.543  45.805  0.00  0.00    +0.029 C 
ATOM     13  C10 <0> A   1      -0.740   3.487  45.294  0.00  0.00    +0.015 C 
ATOM     14  C11 <0> A   1      -1.149   3.046  43.888  0.00  0.00    +0.004 C 
ATOM     15  C12 <0> A   1      -2.560   2.453  43.930  0.00  0.00    +0.010 C 
ATOM     16  C13 <0> A   1      -3.542   3.509  44.440  0.00  0.00    +0.034 C 
ENDBRANCH   9  11
ENDBRANCH   6   9
BRANCH   5  17
ATOM     17  O2  <0> A   1      -4.891   3.886  48.827  0.00  0.00    -0.298 OA
BRANCH  17  18
ATOM     18  C14 <0> A   1      -6.319   3.905  48.844  0.00  0.00    +0.164 C 
BRANCH  18  19
ATOM     19  C15 <0> A   1      -6.854   2.771  47.968  0.00  0.00    +0.233 C 
BRANCH  19  20
ATOM     20  O6  <0> A   1      -7.622   1.871  48.769  0.00  0.00    -0.530 OA
ATOM     21  H23 <0> A   1      -8.284   1.370  48.274  0.00  0.00    +0.362 HD
ENDBRANCH  19  20
BRANCH  19  22
ATOM     22  C16 <0> A   1      -7.740   3.353  46.865  0.00  0.00    -0.042 C 
BRANCH  22  23
ATOM     23  C17 <0> A   1      -7.362   2.725  45.522  0.00  0.00    +0.236 C 
BRANCH  23  24
ATOM     24  O5  <0> A   1      -7.119   3.758  44.565  0.00  0.00    -0.526 OA
ATOM     25  H22 <0> A   1      -7.576   3.631  43.722  0.00  0.00    +0.350 HD
ENDBRANCH  23  24
BRANCH  23  26
ATOM     26  C18 <0> A   1      -6.098   1.881  45.692  0.00  0.00    -0.101 C 
BRANCH  26  27
ATOM     27  C19 <0> A   1      -5.994   0.898  44.554  0.00  0.00    +0.491 C 
ATOM     28  O3  <0> A   1      -6.768   0.968  43.615  0.00  0.00    -0.680 OA
ATOM     29  O4  <0> A   1      -5.134   0.033  44.572  0.00  0.00    -0.713 OA
ENDBRANCH  26  27
ENDBRANCH  23  26
ENDBRANCH  22  23
ENDBRANCH  19  22
ENDBRANCH  18  19
ENDBRANCH  17  18
ENDBRANCH   5  17
TORSDOF 11
ENDMDL
MODEL 8
REMARK VINA RESULT:      -7.0      2.219      4.148
REMARK  Name = CHEMBL101806
REMARK  11 active torsions:
REMARK  status: ('A' for Active; 'I' for Inactive)
REMARK    1  A    between atoms: C5_5  and  O2_15
REMARK    2  A    between atoms: C6_6  and  C7_7
REMARK    3  A    between atoms: C7_7  and  C8_9
REMARK    4  A    between atoms: O2_15  and  C14_16
REMARK    5  A    between atoms: C14_16  and  C15_17
REMARK    6  A    between atoms: C15_17  and  C16_18
REMARK    7  A    between atoms: C15_17  and  O6_26
REMARK    8  A    between atoms: C16_18  and  C17_19
REMARK    9  A    between atoms: C17_19  and  C18_21
REMARK   10  A    between atoms: C17_19  and  O5_25
REMARK   11  A    between atoms: C18_21  and  C19_22
REMARK                            x       y       z     vdW  Elec       q    Type
REMARK                         _______ _______ _______ _____ _____    ______ ____
ROOT
ATOM      1  C1  <0> A   1     -13.850   9.939  46.899  0.00  0.00    +0.103 A 
ATOM      2  C2  <0> A   1     -13.935  11.301  46.710  0.00  0.00    -0.048 A 
ATOM      3  C3  <0> A   1     -13.760  11.844  45.446  0.00  0.00    +0.091 A 
ATOM      4  C4  <0> A   1     -13.498  11.027  44.363  0.00  0.00    -0.063 A 
ATOM      5  C5  <0> A   1     -13.409   9.654  44.533  0.00  0.00    +0.174 A 
ATOM      6  C6  <0> A   1     -13.585   9.098  45.811  0.00  0.00    -0.168 A 
ATOM      7 Cl1  <0> A   1     -13.282  11.721  42.787  0.00  0.00    -0.030 Cl
ATOM      8 Cl2  <0> A   1     -14.263  12.341  48.060  0.00  0.00    -0.049 Cl
ENDROOT
BRANCH   6   9
ATOM      9  C7  <0> A   1     -13.492   7.646  46.005  0.00  0.00    +0.394 C 
ATOM     10  O1  <0> A   1     -12.462   7.154  46.417  0.00  0.00    -0.410 OA
BRANCH   9  11
ATOM     11  C8  <0> A   1     -14.674   6.767  45.690  0.00  0.00    -0.031 C 
ATOM     12  C9  <0> A   1     -14.869   5.751  46.817  0.00  0.00    +0.029 C 
ATOM     13  C10 <0> A   1     -16.069   4.858  46.497  0.00  0.00    +0.015 C 
ATOM     14  C11 <0> A   1     -15.820   4.118  45.182  0.00  0.00    +0.004 C 
ATOM     15  C12 <0> A   1     -15.625   5.134  44.054  0.00  0.00    +0.010 C 
ATOM     16  C13 <0> A   1     -14.424   6.027  44.374  0.00  0.00    +0.034 C 
ENDBRANCH   9  11
ENDBRANCH   6   9
BRANCH   5  17
ATOM     17  O2  <0> A   1     -13.152   8.850  43.470  0.00  0.00    -0.298 OA
BRANCH  17  18
ATOM     18  C14 <0> A   1     -11.813   8.372  43.327  0.00  0.00    +0.164 C 
BRANCH  18  19
ATOM     19  C15 <0> A   1     -11.671   7.647  41.987  0.00  0.00    +0.233 C 
BRANCH  19  20
ATOM     20  O6  <0> A   1     -11.538   6.243  42.216  0.00  0.00    -0.530 OA
ATOM     21  H23 <0> A   1     -11.329   5.733  41.422  0.00  0.00    +0.362 HD
ENDBRANCH  19  20
BRANCH  19  22
ATOM     22  C16 <0> A   1     -12.913   7.908  41.132  0.00  0.00    -0.042 C 
BRANCH  22  23
ATOM     23  C17 <0> A   1     -12.573   8.916  40.033  0.00  0.00    +0.236 C 
BRANCH  23  24
ATOM     24  O5  <0> A   1     -12.274   8.218  38.823  0.00  0.00    -0.526 OA
ATOM     25  H22 <0> A   1     -12.389   7.259  38.882  0.00  0.00    +0.350 HD
ENDBRANCH  23  24
BRANCH  23  26
ATOM     26  C18 <0> A   1     -13.770   9.842  39.804  0.00  0.00    -0.101 C 
BRANCH  26  27
ATOM     27  C19 <0> A   1     -13.279  11.191  39.345  0.00  0.00    +0.491 C 
ATOM     28  O3  <0> A   1     -12.125  11.523  39.554  0.00  0.00    -0.680 OA
ATOM     29  O4  <0> A   1     -14.036  11.951  38.764  0.00  0.00    -0.713 OA
ENDBRANCH  26  27
ENDBRANCH  23  26
ENDBRANCH  22  23
ENDBRANCH  19  22
ENDBRANCH  18  19
ENDBRANCH  17  18
ENDBRANCH   5  17
TORSDOF 11
ENDMDL
MODEL 9
REMARK VINA RESULT:      -7.0      9.908     12.581
REMARK  Name = CHEMBL101806
REMARK  11 active torsions:
REMARK  status: ('A' for Active; 'I' for Inactive)
REMARK    1  A    between atoms: C5_5  and  O2_15
REMARK    2  A    between atoms: C6_6  and  C7_7
REMARK    3  A    between atoms: C7_7  and  C8_9
REMARK    4  A    between atoms: O2_15  and  C14_16
REMARK    5  A    between atoms: C14_16  and  C15_17
REMARK    6  A    between atoms: C15_17  and  C16_18
REMARK    7  A    between atoms: C15_17  and  O6_26
REMARK    8  A    between atoms: C16_18  and  C17_19
REMARK    9  A    between atoms: C17_19  and  C18_21
REMARK   10  A    between atoms: C17_19  and  O5_25
REMARK   11  A    between atoms: C18_21  and  C19_22
REMARK                            x       y       z     vdW  Elec       q    Type
REMARK                         _______ _______ _______ _____ _____    ______ ____
ROOT
ATOM      1  C1  <0> A   1      -2.341   4.285  45.717  0.00  0.00    +0.103 A 
ATOM      2  C2  <0> A   1      -1.967   3.190  44.969  0.00  0.00    -0.048 A 
ATOM      3  C3  <0> A   1      -2.927   2.331  44.456  0.00  0.00    +0.091 A 
ATOM      4  C4  <0> A   1      -4.269   2.564  44.687  0.00  0.00    -0.063 A 
ATOM      5  C5  <0> A   1      -4.666   3.661  45.437  0.00  0.00    +0.174 A 
ATOM      6  C6  <0> A   1      -3.698   4.534  45.959  0.00  0.00    -0.168 A 
ATOM      7 Cl1  <0> A   1      -5.461   1.481  44.038  0.00  0.00    -0.030 Cl
ATOM      8 Cl2  <0> A   1      -0.285   2.884  44.669  0.00  0.00    -0.049 Cl
ENDROOT
BRANCH   6   9
ATOM      9  C7  <0> A   1      -4.105   5.698  46.755  0.00  0.00    +0.394 C 
ATOM     10  O1  <0> A   1      -5.222   6.155  46.634  0.00  0.00    -0.410 OA
BRANCH   9  11
ATOM     11  C8  <0> A   1      -3.135   6.326  47.722  0.00  0.00    -0.031 C 
ATOM     12  C9  <0> A   1      -3.302   5.686  49.101  0.00  0.00    +0.029 C 
ATOM     13  C10 <0> A   1      -2.318   6.324  50.083  0.00  0.00    +0.015 C 
ATOM     14  C11 <0> A   1      -2.594   7.825  50.181  0.00  0.00    +0.004 C 
ATOM     15  C12 <0> A   1      -2.426   8.465  48.801  0.00  0.00    +0.010 C 
ATOM     16  C13 <0> A   1      -3.411   7.828  47.819  0.00  0.00    +0.034 C 
ENDBRANCH   9  11
ENDBRANCH   6   9
BRANCH   5  17
ATOM     17  O2  <0> A   1      -5.984   3.891  45.664  0.00  0.00    -0.298 OA
BRANCH  17  18
ATOM     18  C14 <0> A   1      -6.673   2.951  46.492  0.00  0.00    +0.164 C 
BRANCH  18  19
ATOM     19  C15 <0> A   1      -7.299   3.683  47.681  0.00  0.00    +0.233 C 
BRANCH  19  20
ATOM     20  O6  <0> A   1      -8.530   3.049  48.037  0.00  0.00    -0.530 OA
ATOM     21  H23 <0> A   1      -9.176   3.644  48.441  0.00  0.00    +0.362 HD
ENDBRANCH  19  20
BRANCH  19  22
ATOM     22  C16 <0> A   1      -6.340   3.636  48.871  0.00  0.00    -0.042 C 
BRANCH  22  23
ATOM     23  C17 <0> A   1      -6.930   2.748  49.969  0.00  0.00    +0.236 C 
BRANCH  23  24
ATOM     24  O5  <0> A   1      -6.712   1.375  49.638  0.00  0.00    -0.526 OA
ATOM     25  H22 <0> A   1      -7.462   0.798  49.837  0.00  0.00    +0.350 HD
ENDBRANCH  23  24
BRANCH  23  26
ATOM     26  C18 <0> A   1      -6.250   3.065  51.302  0.00  0.00    -0.101 C 
BRANCH  26  27
ATOM     27  C19 <0> A   1      -5.404   1.891  51.725  0.00  0.00    +0.491 C 
ATOM     28  O3  <0> A   1      -5.873   1.033  52.451  0.00  0.00    -0.680 OA
ATOM     29  O4  <0> A   1      -4.251   1.800  51.340  0.00  0.00    -0.713 OA
ENDBRANCH  26  27
ENDBRANCH  23  26
ENDBRANCH  22  23
ENDBRANCH  19  22
ENDBRANCH  18  19
ENDBRANCH  17  18
ENDBRANCH   5  17
TORSDOF 11
ENDMDL
MODEL 10
REMARK VINA RESULT:      -6.9     21.934     24.878
REMARK  Name = CHEMBL101806
REMARK  11 active torsions:
REMARK  status: ('A' for Active; 'I' for Inactive)
REMARK    1  A    between atoms: C5_5  and  O2_15
REMARK    2  A    between atoms: C6_6  and  C7_7
REMARK    3  A    between atoms: C7_7  and  C8_9
REMARK    4  A    between atoms: O2_15  and  C14_16
REMARK    5  A    between atoms: C14_16  and  C15_17
REMARK    6  A    between atoms: C15_17  and  C16_18
REMARK    7  A    between atoms: C15_17  and  O6_26
REMARK    8  A    between atoms: C16_18  and  C17_19
REMARK    9  A    between atoms: C17_19  and  C18_21
REMARK   10  A    between atoms: C17_19  and  O5_25
REMARK   11  A    between atoms: C18_21  and  C19_22
REMARK                            x       y       z     vdW  Elec       q    Type
REMARK                         _______ _______ _______ _____ _____    ______ ____
ROOT
ATOM      1  C1  <0> A   1       5.753  22.671  31.269  0.00  0.00    +0.103 A 
ATOM      2  C2  <0> A   1       6.519  23.620  31.910  0.00  0.00    -0.048 A 
ATOM      3  C3  <0> A   1       6.588  23.646  33.295  0.00  0.00    +0.091 A 
ATOM      4  C4  <0> A   1       5.891  22.720  34.047  0.00  0.00    -0.063 A 
ATOM      5  C5  <0> A   1       5.116  21.757  33.421  0.00  0.00    +0.174 A 
ATOM      6  C6  <0> A   1       5.041  21.726  32.019  0.00  0.00    -0.168 A 
ATOM      7 Cl1  <0> A   1       5.988  22.763  35.780  0.00  0.00    -0.030 Cl
ATOM      8 Cl2  <0> A   1       7.401  24.790  30.979  0.00  0.00    -0.049 Cl
ENDROOT
BRANCH   6   9
ATOM      9  C7  <0> A   1       4.223  20.712  31.344  0.00  0.00    +0.394 C 
ATOM     10  O1  <0> A   1       3.018  20.843  31.290  0.00  0.00    -0.410 OA
BRANCH   9  11
ATOM     11  C8  <0> A   1       4.879  19.508  30.719  0.00  0.00    -0.031 C 
ATOM     12  C9  <0> A   1       3.919  18.866  29.717  0.00  0.00    +0.029 C 
ATOM     13  C10 <0> A   1       4.585  17.643  29.084  0.00  0.00    +0.015 C 
ATOM     14  C11 <0> A   1       4.934  16.630  30.174  0.00  0.00    +0.004 C 
ATOM     15  C12 <0> A   1       5.895  17.272  31.178  0.00  0.00    +0.010 C 
ATOM     16  C13 <0> A   1       5.229  18.495  31.811  0.00  0.00    +0.034 C 
ENDBRANCH   9  11
ENDBRANCH   6   9
BRANCH   5  17
ATOM     17  O2  <0> A   1       4.430  20.847  34.159  0.00  0.00    -0.298 OA
BRANCH  17  18
ATOM     18  C14 <0> A   1       3.436  21.352  35.052  0.00  0.00    +0.164 C 
BRANCH  18  19
ATOM     19  C15 <0> A   1       2.388  22.134  34.258  0.00  0.00    +0.233 C 
BRANCH  19  20
ATOM     20  O6  <0> A   1       1.327  21.255  33.875  0.00  0.00    -0.530 OA
ATOM     21  H23 <0> A   1       0.661  21.120  34.562  0.00  0.00    +0.362 HD
ENDBRANCH  19  20
BRANCH  19  22
ATOM     22  C16 <0> A   1       1.827  23.261  35.126  0.00  0.00    -0.042 C 
BRANCH  22  23
ATOM     23  C17 <0> A   1       1.041  22.663  36.295  0.00  0.00    +0.236 C 
BRANCH  23  24
ATOM     24  O5  <0> A   1       1.635  23.076  37.527  0.00  0.00    -0.526 OA
ATOM     25  H22 <0> A   1       1.715  24.035  37.625  0.00  0.00    +0.350 HD
ENDBRANCH  23  24
BRANCH  23  26
ATOM     26  C18 <0> A   1      -0.407  23.153  36.238  0.00  0.00    -0.101 C 
BRANCH  26  27
ATOM     27  C19 <0> A   1      -1.318  21.989  35.938  0.00  0.00    +0.491 C 
ATOM     28  O3  <0> A   1      -1.581  21.704  34.783  0.00  0.00    -0.680 OA
ATOM     29  O4  <0> A   1      -1.791  21.334  36.851  0.00  0.00    -0.713 OA
ENDBRANCH  26  27
ENDBRANCH  23  26
ENDBRANCH  22  23
ENDBRANCH  19  22
ENDBRANCH  18  19
ENDBRANCH  17  18
ENDBRANCH   5  17
TORSDOF 11
ENDMDL
