REMARK VINA RESULT:      -7.4      2.823      5.458
REMARK  Name = CHEMBL398551
REMARK  19 active torsions:
REMARK  status: ('A' for Active; 'I' for Inactive)
REMARK    1  A    between atoms: C1_1  and  C2_2
REMARK    2  A    between atoms: C4_4  and  C6_8
REMARK    3  A    between atoms: N2_6  and  C5_7
REMARK    4  A    between atoms: C6_8  and  N3_9
REMARK    5  A    between atoms: C7_10  and  C8_12
REMARK    6  A    between atoms: C9_13  and  C28_40
REMARK    7  A    between atoms: C10_14  and  C22_33
REMARK    8  A    between atoms: C11_15  and  C15_20
REMARK    9  A    between atoms: N4_16  and  C12_17
REMARK   10  A    between atoms: C12_17  and  C13_18
REMARK   11  A    between atoms: C12_17  and  C14_19
REMARK   12  A    between atoms: C15_20  and  C16_21
REMARK   13  A    between atoms: C16_21  and  C17_22
REMARK   14  A    between atoms: C17_22  and  C18_24
REMARK   15  A    between atoms: C17_22  and  O5_32
REMARK   16  A    between atoms: C18_24  and  C19_25
REMARK   17  A    between atoms: C19_25  and  C20_27
REMARK   18  A    between atoms: C19_25  and  O4_31
REMARK   19  A    between atoms: C20_27  and  C21_28
REMARK                            x       y       z     vdW  Elec       q    Type
REMARK                         _______ _______ _______ _____ _____    ______ ____
ROOT
ATOM      1  C8  <0> A   1     -16.921   8.254  49.938  0.00  0.00    -0.029 C 
ATOM      2  C9  <0> A   1     -17.174   7.180  49.092  0.00  0.00    -0.059 C 
ATOM      3  C10 <0> A   1     -16.245   7.277  48.024  0.00  0.00    -0.123 C 
ATOM      4  C11 <0> A   1     -15.476   8.380  48.249  0.00  0.00    +0.072 C 
ATOM      5  N4  <0> A   1     -15.881   8.975  49.396  0.00  0.00    -0.403 N 
ENDROOT
BRANCH   3   6
ATOM      6  C22 <0> A   1     -16.132   6.348  46.874  0.00  0.00    -0.009 A 
ATOM      7  C23 <0> A   1     -15.300   5.233  46.955  0.00  0.00    +0.053 A 
ATOM      8  C24 <0> A   1     -15.198   4.371  45.882  0.00  0.00    -0.013 A 
ATOM      9  C25 <0> A   1     -15.922   4.612  44.725  0.00  0.00    +0.094 A 
ATOM     10  C26 <0> A   1     -16.751   5.720  44.640  0.00  0.00    -0.020 A 
ATOM     11  C27 <0> A   1     -16.863   6.584  45.710  0.00  0.00    +0.054 A 
ATOM     12  F1  <0> A   1     -15.818   3.767  43.677  0.00  0.00    -0.142 F 
ENDBRANCH   3   6
BRANCH   2  13
ATOM     13  C28 <0> A   1     -18.211   6.139  49.271  0.00  0.00    -0.009 A 
ATOM     14  C29 <0> A   1     -19.499   6.342  48.777  0.00  0.00    +0.027 A 
ATOM     15  C30 <0> A   1     -20.461   5.368  48.946  0.00  0.00    +0.003 A 
ATOM     16  C31 <0> A   1     -20.151   4.192  49.605  0.00  0.00    -0.003 A 
ATOM     17  C32 <0> A   1     -18.875   3.985  50.098  0.00  0.00    -0.001 A 
ATOM     18  C33 <0> A   1     -17.903   4.949  49.930  0.00  0.00    +0.009 A 
ENDBRANCH   2  13
BRANCH   1  20
ATOM     19  N3  <0> A   1     -18.801   9.241  51.132  0.00  0.00    -0.715 N 
ATOM     20  C7  <0> A   1     -17.635   8.565  51.178  0.00  0.00    +0.605 C 
ATOM     21  O1  <0> A   1     -17.177   8.214  52.248  0.00  0.00    -0.517 OA
ATOM     22  H12 <0> A   1     -19.131   9.582  50.286  0.00  0.00    +0.404 HD
BRANCH  19  23
ATOM     23  C6  <0> A   1     -19.567   9.461  52.361  0.00  0.00    +0.381 C 
BRANCH  23  27
ATOM     24  C1  <0> A   1     -23.728  10.920  49.811  0.00  0.00    +0.146 C 
ATOM     25  C2  <0> A   1     -22.696  10.743  50.894  0.00  0.00    +0.083 C 
ATOM     26  C3  <0> A   1     -21.557  10.017  50.800  0.00  0.00    -0.107 C 
ATOM     27  C4  <0> A   1     -20.883  10.115  52.022  0.00  0.00    +0.055 C 
ATOM     28  N1  <0> A   1     -21.590  10.874  52.820  0.00  0.00    -0.276 NA
ATOM     29  N2  <0> A   1     -22.736  11.287  52.129  0.00  0.00    -0.368 N 
ATOM     30  C5  <0> A   1     -23.794  12.153  52.654  0.00  0.00    +0.354 C 
ENDBRANCH  23  27
ENDBRANCH  19  23
ENDBRANCH   1  20
BRANCH   5  31
ATOM     31  C12 <0> A   1     -15.303  10.192  49.971  0.00  0.00    +0.229 C 
ATOM     32  C13 <0> A   1     -13.953   9.862  50.611  0.00  0.00    +0.042 C 
ATOM     33  C14 <0> A   1     -15.104  11.233  48.868  0.00  0.00    +0.046 C 
ENDBRANCH   5  31
BRANCH   4  34
ATOM     34  C15 <0> A   1     -14.359   8.862  47.361  0.00  0.00    +0.118 C 
BRANCH  34  35
ATOM     35  C16 <0> A   1     -13.088   8.062  47.661  0.00  0.00    -0.009 C 
BRANCH  35  36
ATOM     36  C17 <0> A   1     -12.385   7.710  46.347  0.00  0.00    +0.212 C 
BRANCH  36  37
ATOM     37  O5  <0> A   1     -12.002   6.333  46.368  0.00  0.00    -0.542 OA
ATOM     38  H29 <0> A   1     -11.243   6.144  46.936  0.00  0.00    +0.363 HD
ENDBRANCH  36  37
BRANCH  36  39
ATOM     39  C18 <0> A   1     -13.338   7.957  45.177  0.00  0.00    -0.051 C 
BRANCH  39  40
ATOM     40  C19 <0> A   1     -12.527   8.233  43.909  0.00  0.00    +0.230 C 
BRANCH  40  41
ATOM     41  O4  <0> A   1     -11.733   7.088  43.593  0.00  0.00    -0.528 OA
ATOM     42  H28 <0> A   1     -12.245   6.322  43.301  0.00  0.00    +0.349 HD
ENDBRANCH  40  41
BRANCH  40  43
ATOM     43  C20 <0> A   1     -13.480   8.529  42.749  0.00  0.00    -0.103 C 
BRANCH  43  44
ATOM     44  C21 <0> A   1     -13.557   7.325  41.844  0.00  0.00    +0.490 C 
ATOM     45  O2  <0> A   1     -12.852   7.264  40.851  0.00  0.00    -0.681 OA
ATOM     46  O3  <0> A   1     -14.324   6.414  42.105  0.00  0.00    -0.713 OA
ENDBRANCH  43  44
ENDBRANCH  40  43
ENDBRANCH  39  40
ENDBRANCH  36  39
ENDBRANCH  35  36
ENDBRANCH  34  35
ENDBRANCH   4  34
TORSDOF 15
