REMARK VINA RESULT:      -7.4      2.916      5.109
REMARK  Name = CHEMBL429487
REMARK  16 active torsions:
REMARK  status: ('A' for Active; 'I' for Inactive)
REMARK    1  A    between atoms: C1_1  and  C2_2
REMARK    2  A    between atoms: C2_2  and  C3_3
REMARK    3  A    between atoms: C2_2  and  C4_4
REMARK    4  A    between atoms: C5_5  and  S1_35
REMARK    5  A    between atoms: C6_6  and  C21_29
REMARK    6  A    between atoms: C7_7  and  C15_22
REMARK    7  A    between atoms: N1_8  and  C8_9
REMARK    8  A    between atoms: C8_9  and  C9_10
REMARK    9  A    between atoms: C9_10  and  C10_11
REMARK   10  A    between atoms: C10_11  and  C11_13
REMARK   11  A    between atoms: C10_11  and  O4_21
REMARK   12  A    between atoms: C11_13  and  C12_14
REMARK   13  A    between atoms: C12_14  and  C13_16
REMARK   14  A    between atoms: C12_14  and  O3_20
REMARK   15  A    between atoms: C13_16  and  C14_17
REMARK   16  A    between atoms: S1_35  and  N2_38
REMARK                            x       y       z     vdW  Elec       q    Type
REMARK                         _______ _______ _______ _____ _____    ______ ____
ROOT
ATOM      1  C4  <0> A   1     -12.832   9.682  46.769  0.00  0.00    +0.174 C 
ATOM      2  C5  <0> A   1     -13.654   9.662  47.835  0.00  0.00    -0.735 C 
ATOM      3  C6  <0> A   1     -14.484   8.522  47.716  0.00  0.00    -0.022 C 
ATOM      4  C7  <0> A   1     -14.118   7.881  46.545  0.00  0.00    +0.059 C 
ATOM      5  N1  <0> A   1     -13.108   8.609  45.974  0.00  0.00    -0.412 N 
ENDROOT
BRANCH   4   6
ATOM      6  C15 <0> A   1     -14.712   6.641  46.007  0.00  0.00    -0.027 A 
ATOM      7  C16 <0> A   1     -15.958   6.677  45.377  0.00  0.00    +0.045 A 
ATOM      8  C17 <0> A   1     -16.508   5.515  44.876  0.00  0.00    -0.008 A 
ATOM      9  C18 <0> A   1     -15.828   4.314  44.998  0.00  0.00    +0.105 A 
ATOM     10  C19 <0> A   1     -14.591   4.272  45.624  0.00  0.00    -0.008 A 
ATOM     11  C20 <0> A   1     -14.028   5.429  46.122  0.00  0.00    +0.075 A 
ATOM     12  F1  <0> A   1     -16.372   3.179  44.508  0.00  0.00    -0.137 F 
ENDBRANCH   4   6
BRANCH   3  13
ATOM     13  C21 <0> A   1     -15.542   8.097  48.662  0.00  0.00    -0.034 A 
ATOM     14  C22 <0> A   1     -16.776   8.747  48.672  0.00  0.00    +0.061 A 
ATOM     15  C23 <0> A   1     -17.757   8.347  49.556  0.00  0.00    -0.000 A 
ATOM     16  C24 <0> A   1     -17.518   7.303  50.432  0.00  0.00    +0.003 A 
ATOM     17  C25 <0> A   1     -16.296   6.655  50.428  0.00  0.00    -0.009 A 
ATOM     18  C26 <0> A   1     -15.310   7.043  49.545  0.00  0.00    +0.018 A 
ENDBRANCH   3  13
BRANCH   1  20
ATOM     19  C1  <0> A   1     -10.525  10.053  45.937  0.00  0.00    +0.040 C 
ATOM     20  C2  <0> A   1     -11.781  10.727  46.495  0.00  0.00    +0.059 C 
ATOM     21  C3  <0> A   1     -12.316  11.733  45.473  0.00  0.00    +0.039 C 
ENDBRANCH   1  20
BRANCH   2  22
ATOM     22  S1  <0> A   1     -13.689  10.842  49.144  0.00  0.00    +2.727 S 
ATOM     23  O5  <0> A   1     -12.435  11.509  49.122  0.00  0.00    -0.947 OA
ATOM     24  O6  <0> A   1     -14.924  11.537  49.030  0.00  0.00    -0.962 OA
BRANCH  22  25
ATOM     25  N2  <0> A   1     -13.751   9.997  50.565  0.00  0.00    -1.011 NA
ATOM     26  C27 <0> A   1     -14.816  10.094  51.575  0.00  0.00    +0.254 C 
ATOM     27  C28 <0> A   1     -14.437   9.147  52.733  0.00  0.00    +0.028 C 
ATOM     28  C29 <0> A   1     -12.901   8.996  52.571  0.00  0.00    +0.029 C 
ATOM     29  C30 <0> A   1     -12.750   9.016  51.027  0.00  0.00    +0.268 C 
ENDBRANCH  22  25
ENDBRANCH   2  22
BRANCH   5  30
ATOM     30  C8  <0> A   1     -12.430   8.285  44.716  0.00  0.00    +0.294 C 
BRANCH  30  31
ATOM     31  C9  <0> A   1     -13.417   8.426  43.555  0.00  0.00    -0.015 C 
BRANCH  31  32
ATOM     32  C10 <0> A   1     -13.089   7.390  42.478  0.00  0.00    +0.218 C 
BRANCH  32  33
ATOM     33  O4  <0> A   1     -14.283   6.705  42.094  0.00  0.00    -0.540 OA
ATOM     34  H19 <0> A   1     -14.173   6.121  41.332  0.00  0.00    +0.366 HD
ENDBRANCH  32  33
BRANCH  32  35
ATOM     35  C11 <0> A   1     -12.491   8.094  41.258  0.00  0.00    -0.047 C 
BRANCH  35  36
ATOM     36  C12 <0> A   1     -12.952   9.553  41.233  0.00  0.00    +0.232 C 
BRANCH  36  37
ATOM     37  O3  <0> A   1     -11.813  10.413  41.186  0.00  0.00    -0.528 OA
ATOM     38  H18 <0> A   1     -11.423  10.597  42.051  0.00  0.00    +0.350 HD
ENDBRANCH  36  37
BRANCH  36  39
ATOM     39  C13 <0> A   1     -13.823   9.791  39.997  0.00  0.00    -0.102 C 
BRANCH  39  40
ATOM     40  C14 <0> A   1     -13.950  11.272  39.750  0.00  0.00    +0.491 C 
ATOM     41  O1  <0> A   1     -14.640  11.956  40.487  0.00  0.00    -0.681 OA
ATOM     42  O2  <0> A   1     -13.364  11.786  38.813  0.00  0.00    -0.712 OA
ENDBRANCH  39  40
ENDBRANCH  36  39
ENDBRANCH  35  36
ENDBRANCH  32  35
ENDBRANCH  31  32
ENDBRANCH  30  31
ENDBRANCH   5  30
TORSDOF 14
