REMARK VINA RESULT:      -8.8     15.949     21.091
REMARK  Name = CHEMBL503128
REMARK  17 active torsions:
REMARK  status: ('A' for Active; 'I' for Inactive)
REMARK    1  A    between atoms: C1_1  and  C2_2
REMARK    2  A    between atoms: C2_2  and  C3_3
REMARK    3  A    between atoms: C2_2  and  C4_4
REMARK    4  A    between atoms: C5_5  and  C20_29
REMARK    5  A    between atoms: C6_7  and  C14_22
REMARK    6  A    between atoms: N2_8  and  C7_9
REMARK    7  A    between atoms: C7_9  and  C8_10
REMARK    8  A    between atoms: C8_10  and  C9_11
REMARK    9  A    between atoms: C9_11  and  C10_13
REMARK   10  A    between atoms: C9_11  and  O4_21
REMARK   11  A    between atoms: C10_13  and  C11_14
REMARK   12  A    between atoms: C11_14  and  C12_16
REMARK   13  A    between atoms: C11_14  and  O3_20
REMARK   14  A    between atoms: C12_16  and  C13_17
REMARK   15  A    between atoms: N3_31  and  C21_32
REMARK   16  A    between atoms: C21_32  and  C22_33
REMARK   17  A    between atoms: C25_36  and  C28_39
REMARK                            x       y       z     vdW  Elec       q    Type
REMARK                         _______ _______ _______ _____ _____    ______ ____
ROOT
ATOM      1  C4  <0> A   1     -26.834  -5.725  51.307  0.00  0.00    +0.092 C 
ATOM      2  C5  <0> A   1     -25.718  -5.156  50.764  0.00  0.00    -0.064 C 
ATOM      3  N1  <0> A   1     -24.998  -6.133  50.175  0.00  0.00    -0.446 NA
ATOM      4  C6  <0> A   1     -25.620  -7.276  50.332  0.00  0.00    +0.246 C 
ATOM      5  N2  <0> A   1     -26.770  -7.057  51.040  0.00  0.00    -0.436 N 
ENDROOT
BRANCH   4   6
ATOM      6  C14 <0> A   1     -25.155  -8.588  49.831  0.00  0.00    -0.023 A 
ATOM      7  C15 <0> A   1     -24.343  -9.394  50.629  0.00  0.00    +0.046 A 
ATOM      8  C16 <0> A   1     -23.911 -10.617  50.157  0.00  0.00    -0.001 A 
ATOM      9  C17 <0> A   1     -24.284 -11.044  48.892  0.00  0.00    +0.109 A 
ATOM     10  C18 <0> A   1     -25.090 -10.247  48.095  0.00  0.00    -0.010 A 
ATOM     11  C19 <0> A   1     -25.531  -9.025  48.560  0.00  0.00    +0.094 A 
ATOM     12  F1  <0> A   1     -23.859 -12.242  48.434  0.00  0.00    -0.136 F 
ENDBRANCH   4   6
BRANCH   2  13
ATOM     13  C20 <0> A   1     -25.363  -3.727  50.812  0.00  0.00    +0.610 C 
ATOM     14  O5  <0> A   1     -24.466  -3.347  51.540  0.00  0.00    -0.540 OA
ATOM     15  N3  <0> A   1     -26.034  -2.839  50.051  0.00  0.00    -0.715 N 
ATOM     16  H24 <0> A   1     -26.750  -3.142  49.472  0.00  0.00    +0.410 HD
BRANCH  15  17
ATOM     17  C21 <0> A   1     -25.681  -1.419  50.100  0.00  0.00    +0.318 C 
BRANCH  17  18
ATOM     18  C22 <0> A   1     -26.884  -0.617  50.525  0.00  0.00    -0.106 A 
ATOM     19  C23 <0> A   1     -27.926  -1.237  51.190  0.00  0.00    +0.032 A 
ATOM     20  C24 <0> A   1     -29.030  -0.506  51.581  0.00  0.00    +0.015 A 
ATOM     21  C25 <0> A   1     -29.094   0.858  51.306  0.00  0.00    -0.038 A 
ATOM     22  C26 <0> A   1     -28.040   1.478  50.635  0.00  0.00    +0.015 A 
ATOM     23  C27 <0> A   1     -26.939   0.739  50.253  0.00  0.00    +0.033 A 
BRANCH  21  24
ATOM     24  C28 <0> A   1     -30.278   1.648  51.724  0.00  0.00    -0.047 A 
ATOM     25  C29 <0> A   1     -30.113   2.912  52.287  0.00  0.00    +0.016 A 
ATOM     26  C30 <0> A   1     -31.218   3.642  52.674  0.00  0.00    +0.006 A 
ATOM     27  C31 <0> A   1     -32.488   3.122  52.504  0.00  0.00    +0.004 A 
ATOM     28  C32 <0> A   1     -32.658   1.868  51.945  0.00  0.00    +0.007 A 
ATOM     29  C33 <0> A   1     -31.560   1.131  51.549  0.00  0.00    +0.016 A 
ENDBRANCH  21  24
ENDBRANCH  17  18
ENDBRANCH  15  17
ENDBRANCH   2  13
BRANCH   1  31
ATOM     30  C1  <0> A   1     -29.114  -4.766  51.132  0.00  0.00    +0.032 C 
ATOM     31  C2  <0> A   1     -27.926  -5.014  52.064  0.00  0.00    +0.086 C 
ATOM     32  C3  <0> A   1     -28.375  -5.879  53.244  0.00  0.00    +0.034 C 
ENDBRANCH   1  31
BRANCH   5  33
ATOM     33  C7  <0> A   1     -27.752  -8.069  51.436  0.00  0.00    +0.304 C 
BRANCH  33  34
ATOM     34  C8  <0> A   1     -28.814  -8.203  50.343  0.00  0.00    -0.015 C 
BRANCH  34  35
ATOM     35  C9  <0> A   1     -29.880  -9.206  50.789  0.00  0.00    +0.219 C 
BRANCH  35  36
ATOM     36  O4  <0> A   1     -29.512 -10.517  50.357  0.00  0.00    -0.538 OA
ATOM     37  H19 <0> A   1     -29.656 -11.204  51.023  0.00  0.00    +0.367 HD
ENDBRANCH  35  36
BRANCH  35  38
ATOM     38  C10 <0> A   1     -29.994  -9.184  52.315  0.00  0.00    -0.046 C 
BRANCH  38  39
ATOM     39  C11 <0> A   1     -31.279  -9.899  52.741  0.00  0.00    +0.232 C 
BRANCH  39  40
ATOM     40  O3  <0> A   1     -31.897 -10.488  51.595  0.00  0.00    -0.527 OA
ATOM     41  H18 <0> A   1     -32.529  -9.909  51.147  0.00  0.00    +0.351 HD
ENDBRANCH  39  40
BRANCH  39  42
ATOM     42  C12 <0> A   1     -30.940 -10.993  53.756  0.00  0.00    -0.102 C 
BRANCH  42  43
ATOM     43  C13 <0> A   1     -30.895 -12.328  53.059  0.00  0.00    +0.490 C 
ATOM     44  O1  <0> A   1     -31.781 -13.144  53.247  0.00  0.00    -0.681 OA
ATOM     45  O2  <0> A   1     -29.971 -12.593  52.309  0.00  0.00    -0.712 OA
ENDBRANCH  42  43
ENDBRANCH  39  42
ENDBRANCH  38  39
ENDBRANCH  35  38
ENDBRANCH  34  35
ENDBRANCH  33  34
ENDBRANCH   5  33
TORSDOF 15
