REMARK VINA RESULT:      -7.9     15.418     18.551
REMARK  Name = CHEMBL340139
REMARK  9 active torsions:
REMARK  status: ('A' for Active; 'I' for Inactive)
REMARK    1  A    between atoms: C1_1  and  C2_2
REMARK    2  A    between atoms: C2_2  and  C3_3
REMARK    3  A    between atoms: C2_2  and  C4_4
REMARK    4  A    between atoms: C5_5  and  C23_26
REMARK    5  A    between atoms: C6_6  and  C17_19
REMARK    6  A    between atoms: N1_7  and  C7_9
REMARK    7  A    between atoms: C23_26  and  C24_27
REMARK    8  A    between atoms: C24_27  and  C25_28
REMARK    9  A    between atoms: C27_31  and  O3_37
REMARK                            x       y       z     vdW  Elec       q    Type
REMARK                         _______ _______ _______ _____ _____    ______ ____
ROOT
ATOM      1  C4  <0> A   1     -27.204  -3.944  51.575  0.00  0.00    +0.094 C 
ATOM      2  C5  <0> A   1     -25.849  -3.624  51.492  0.00  0.00    -0.200 C 
ATOM      3  C6  <0> A   1     -25.667  -2.410  52.093  0.00  0.00    +0.131 C 
ATOM      4  N1  <0> A   1     -26.888  -1.989  52.536  0.00  0.00    -0.319 N 
ATOM      5  N2  <0> A   1     -27.827  -2.970  52.192  0.00  0.00    -0.269 NA
ENDROOT
BRANCH   4   6
ATOM      6  C7  <0> A   1     -27.155  -0.793  53.209  0.00  0.00    +0.160 A 
ATOM      7  C8  <0> A   1     -27.101  -0.743  54.585  0.00  0.00    +0.020 A 
ATOM      8  C9  <0> A   1     -27.365   0.442  55.265  0.00  0.00    +0.031 A 
ATOM      9  C10 <0> A   1     -27.683   1.583  54.593  0.00  0.00    +0.036 A 
ATOM     10  C11 <0> A   1     -27.746   1.574  53.189  0.00  0.00    -0.040 A 
ATOM     11  C12 <0> A   1     -27.475   0.375  52.486  0.00  0.00    -0.044 A 
ATOM     12  C13 <0> A   1     -27.535   0.369  51.084  0.00  0.00    +0.039 A 
ATOM     13  C14 <0> A   1     -27.848   1.516  50.417  0.00  0.00    +0.010 A 
ATOM     14  C15 <0> A   1     -28.109   2.697  51.108  0.00  0.00    +0.018 A 
ATOM     15  C16 <0> A   1     -28.072   2.737  52.468  0.00  0.00    +0.023 A 
ENDBRANCH   4   6
BRANCH   3  16
ATOM     16  C17 <0> A   1     -24.386  -1.685  52.235  0.00  0.00    -0.047 A 
ATOM     17  C18 <0> A   1     -23.945  -0.835  51.219  0.00  0.00    +0.082 A 
ATOM     18  C19 <0> A   1     -22.750  -0.161  51.357  0.00  0.00    -0.006 A 
ATOM     19  C20 <0> A   1     -21.986  -0.327  52.502  0.00  0.00    +0.113 A 
ATOM     20  C21 <0> A   1     -22.418  -1.170  53.513  0.00  0.00    -0.011 A 
ATOM     21  C22 <0> A   1     -23.615  -1.844  53.387  0.00  0.00    +0.065 A 
ATOM     22  F1  <0> A   1     -20.816   0.335  52.631  0.00  0.00    -0.136 F 
ENDBRANCH   3  16
BRANCH   1  24
ATOM     23  C1  <0> A   1     -28.089  -6.177  52.189  0.00  0.00    +0.035 C 
ATOM     24  C2  <0> A   1     -27.846  -5.198  51.039  0.00  0.00    +0.075 C 
ATOM     25  C3  <0> A   1     -29.181  -4.845  50.379  0.00  0.00    +0.035 C 
ENDBRANCH   1  24
BRANCH   2  26
ATOM     26  C23 <0> A   1     -24.776  -4.469  50.856  0.00  0.00    +0.112 C 
BRANCH  26  27
ATOM     27  C24 <0> A   1     -24.165  -5.396  51.908  0.00  0.00    +0.055 C 
BRANCH  27  28
ATOM     28  C25 <0> A   1     -24.477  -6.850  51.551  0.00  0.00    +0.197 C 
ATOM     29  C26 <0> A   1     -24.579  -6.991  50.029  0.00  0.00    +0.040 C 
ATOM     30  C27 <0> A   1     -24.851  -8.456  49.672  0.00  0.00    +0.183 C 
ATOM     31  C28 <0> A   1     -23.701  -9.319  50.209  0.00  0.00    +0.020 C 
ATOM     32  C29 <0> A   1     -23.510  -8.995  51.676  0.00  0.00    +0.496 C 
ATOM     33  O1  <0> A   1     -23.433  -9.874  52.501  0.00  0.00    -0.453 OA
ATOM     34  O2  <0> A   1     -23.429  -7.697  52.035  0.00  0.00    -0.365 OA
BRANCH  30  35
ATOM     35  O3  <0> A   1     -26.083  -8.873  50.266  0.00  0.00    -0.563 OA
ATOM     36  H29 <0> A   1     -26.855  -8.752  49.695  0.00  0.00    +0.386 HD
ENDBRANCH  30  35
ENDBRANCH  27  28
ENDBRANCH  26  27
ENDBRANCH   2  26
TORSDOF 7
