REMARK VINA RESULT:      -7.0      9.451     11.445
REMARK  Name = CHEMBL293944
REMARK  16 active torsions:
REMARK  status: ('A' for Active; 'I' for Inactive)
REMARK    1  A    between atoms: C1_1  and  C2_2
REMARK    2  A    between atoms: C2_2  and  C3_3
REMARK    3  A    between atoms: C3_3  and  C4_5
REMARK    4  A    between atoms: C3_3  and  C5_6
REMARK    5  A    between atoms: C5_6  and  O2_8
REMARK    6  A    between atoms: O2_8  and  C6_9
REMARK    7  A    between atoms: C8_12  and  C24_37
REMARK    8  A    between atoms: C12_18  and  C17_25
REMARK    9  A    between atoms: C13_20  and  C16_24
REMARK   10  A    between atoms: C17_25  and  C18_26
REMARK   11  A    between atoms: C18_26  and  C19_27
REMARK   12  A    between atoms: C19_27  and  C20_29
REMARK   13  A    between atoms: C20_29  and  C21_30
REMARK   14  A    between atoms: C21_30  and  C22_32
REMARK   15  A    between atoms: C21_30  and  O6_36
REMARK   16  A    between atoms: C22_32  and  C23_33
REMARK                            x       y       z     vdW  Elec       q    Type
REMARK                         _______ _______ _______ _____ _____    ______ ____
ROOT
ATOM      1  C6  <0> A   1     -13.219   9.785  47.224  0.00  0.00    +0.187 C 
ATOM      2  C7  <0> A   1     -12.925   9.707  48.729  0.00  0.00    +0.002 C 
ATOM      3  C8  <0> A   1     -12.216  10.983  49.182  0.00  0.00    -0.013 C 
ATOM      4  C9  <0> A   1     -10.898  11.120  48.416  0.00  0.00    +0.028 C 
ATOM      5  C10 <0> A   1     -11.178  11.180  46.921  0.00  0.00    +0.033 C 
ATOM      6  C11 <0> A   1     -11.909   9.912  46.455  0.00  0.00    +0.020 C 
ATOM      7  C12 <0> A   1     -12.109  10.039  44.949  0.00  0.00    -0.008 C 
ATOM      8  C13 <0> A   1     -12.944  11.252  44.571  0.00  0.00    +0.020 C 
ATOM      9  C14 <0> A   1     -12.808  12.381  45.543  0.00  0.00    -0.041 C 
ATOM     10  C15 <0> A   1     -12.025  12.370  46.579  0.00  0.00    -0.047 C 
ATOM     11  C16 <0> A   1     -14.415  10.867  44.408  0.00  0.00    +0.022 C 
ATOM     12  C24 <0> A   1     -11.926  10.903  50.683  0.00  0.00    +0.018 C 
ENDROOT
BRANCH   1  13
ATOM     13  O2  <0> A   1     -13.923   8.597  46.858  0.00  0.00    -0.337 OA
BRANCH  13  14
ATOM     14  C5  <0> A   1     -15.248   8.585  47.074  0.00  0.00    +0.467 C 
ATOM     15  O1  <0> A   1     -15.845   9.623  47.233  0.00  0.00    -0.508 OA
BRANCH  14  16
ATOM     16  C3  <0> A   1     -15.992   7.274  47.118  0.00  0.00    +0.024 C 
ATOM     17  C4  <0> A   1     -17.478   7.522  46.855  0.00  0.00    +0.058 C 
BRANCH  16  19
ATOM     18  C1  <0> A   1     -16.571   5.864  45.139  0.00  0.00    +0.023 C 
ATOM     19  C2  <0> A   1     -15.433   6.336  46.046  0.00  0.00    +0.032 C 
ENDBRANCH  16  19
ENDBRANCH  14  16
ENDBRANCH  13  14
ENDBRANCH   1  13
BRANCH   7  20
ATOM     20  C17 <0> A   1     -12.697   8.768  44.336  0.00  0.00    +0.044 C 
BRANCH  20  21
ATOM     21  C18 <0> A   1     -11.601   8.011  43.583  0.00  0.00    +0.015 C 
BRANCH  21  22
ATOM     22  C19 <0> A   1     -12.084   7.677  42.195  0.00  0.00    +0.351 C 
ATOM     23  O3  <0> A   1     -11.618   6.732  41.605  0.00  0.00    -0.430 OA
BRANCH  22  24
ATOM     24  C20 <0> A   1     -13.149   8.522  41.544  0.00  0.00    -0.020 C 
BRANCH  24  25
ATOM     25  C21 <0> A   1     -12.488   9.628  40.720  0.00  0.00    +0.241 C 
BRANCH  25  26
ATOM     26  O6  <0> A   1     -12.524   9.278  39.335  0.00  0.00    -0.532 OA
ATOM     27  H34 <0> A   1     -11.972   8.517  39.107  0.00  0.00    +0.350 HD
ENDBRANCH  25  26
BRANCH  25  28
ATOM     28  C22 <0> A   1     -13.243  10.942  40.932  0.00  0.00    -0.098 C 
BRANCH  28  29
ATOM     29  C23 <0> A   1     -13.908  11.355  39.645  0.00  0.00    +0.491 C 
ATOM     30  O4  <0> A   1     -13.275  11.966  38.801  0.00  0.00    -0.679 OA
ATOM     31  O5  <0> A   1     -15.078  11.076  39.447  0.00  0.00    -0.713 OA
ENDBRANCH  28  29
ENDBRANCH  25  28
ENDBRANCH  24  25
ENDBRANCH  22  24
ENDBRANCH  21  22
ENDBRANCH  20  21
ENDBRANCH   7  20
TORSDOF 12
