REMARK  Name = CHEMBL392897
REMARK  17 active torsions:
REMARK  status: ('A' for Active; 'I' for Inactive)
REMARK    1  A    between atoms: C1_1  and  C2_2
REMARK    2  A    between atoms: C2_2  and  N1_3
REMARK    3  A    between atoms: C3_4  and  C21_27
REMARK    4  A    between atoms: C4_5  and  C15_20
REMARK    5  A    between atoms: C5_6  and  C14_19
REMARK    6  A    between atoms: C6_7  and  C7_8
REMARK    7  A    between atoms: N2_10  and  C8_11
REMARK    8  A    between atoms: C8_11  and  C9_12
REMARK    9  A    between atoms: C11_15  and  C13_18
REMARK   10  A    between atoms: C21_27  and  C22_28
REMARK   11  A    between atoms: C22_28  and  C23_29
REMARK   12  A    between atoms: C23_29  and  C24_31
REMARK   13  A    between atoms: C23_29  and  O5_39
REMARK   14  A    between atoms: C24_31  and  C25_32
REMARK   15  A    between atoms: C25_32  and  C26_34
REMARK   16  A    between atoms: C25_32  and  O4_38
REMARK   17  A    between atoms: C26_34  and  C27_35
REMARK                            x       y       z     vdW  Elec       q    Type
REMARK                         _______ _______ _______ _____ _____    ______ ____
ROOT
ATOM      1  N1  <0> A   1       0.685  -0.492  -1.195  0.00  0.00    -0.407 N 
ATOM      2  C3  <0> A   1       0.085  -0.834  -2.353  0.00  0.00    +0.078 C 
ATOM      3  C4  <0> A   1       1.047  -1.200  -3.251  0.00  0.00    -0.142 C 
ATOM      4  C5  <0> A   1       2.293  -1.076  -2.608  0.00  0.00    -0.087 C 
ATOM      5  C6  <0> A   1       2.047  -0.631  -1.339  0.00  0.00    -0.052 C 
ATOM      6  C14 <0> A   1       3.644  -1.371  -3.208  0.00  0.00    +0.109 C 
ENDROOT
BRANCH   3   7
ATOM      7  C15 <0> A   1       0.819  -1.649  -4.648  0.00  0.00    -0.008 A 
ATOM      8  C16 <0> A   1       0.132  -2.834  -4.898  0.00  0.00    +0.049 A 
ATOM      9  C17 <0> A   1      -0.077  -3.248  -6.198  0.00  0.00    -0.016 A 
ATOM     10  C18 <0> A   1       0.396  -2.485  -7.254  0.00  0.00    +0.093 A 
ATOM     11  C19 <0> A   1       1.080  -1.305  -7.009  0.00  0.00    -0.017 A 
ATOM     12  C20 <0> A   1       1.288  -0.882  -5.713  0.00  0.00    +0.053 A 
ATOM     13  F1  <0> A   1       0.190  -2.893  -8.525  0.00  0.00    -0.142 F 
ENDBRANCH   3   7
BRANCH   5  14
ATOM     14  C7  <0> A   1       3.057  -0.353  -0.312  0.00  0.00    +0.602 C 
ATOM     15  O1  <0> A   1       3.554   0.755  -0.231  0.00  0.00    -0.518 OA
ATOM     16  N2  <0> A   1       3.434  -1.324   0.543  0.00  0.00    -0.718 N 
ATOM     17  H8  <0> A   1       3.093  -2.226   0.433  0.00  0.00    +0.405 HD
BRANCH  16  18
ATOM     18  C8  <0> A   1       4.357  -1.019   1.639  0.00  0.00    +0.361 C 
BRANCH  18  19
ATOM     19  C9  <0> A   1       4.615  -2.268   2.442  0.00  0.00    +0.046 A 
ATOM     20  C10 <0> A   1       5.726  -3.048   2.170  0.00  0.00    +0.252 A 
ATOM     21  N3  <0> A   1       5.952  -4.143   2.875  0.00  0.00    -0.439 NA
ATOM     22  C11 <0> A   1       5.118  -4.492   3.838  0.00  0.00    +0.088 A 
ATOM     23  C12 <0> A   1       4.008  -3.712   4.109  0.00  0.00    +0.226 A 
ATOM     24  N4  <0> A   1       3.784  -2.615   3.408  0.00  0.00    -0.418 NA
ATOM     25  C13 <0> A   1       5.375  -5.741   4.641  0.00  0.00    +0.146 C 
ENDBRANCH  18  19
ENDBRANCH  16  18
ENDBRANCH   5  14
BRANCH   1  27
ATOM     26  C1  <0> A   1      -0.024   1.488   0.052  0.00  0.00    +0.040 C 
ATOM     27  C2  <0> A   1      -0.000  -0.041   0.019  0.00  0.00    +0.280 C 
ENDBRANCH   1  27
BRANCH   2  28
ATOM     28  C21 <0> A   1      -1.399  -0.815  -2.613  0.00  0.00    +0.116 C 
BRANCH  28  29
ATOM     29  C22 <0> A   1      -1.805   0.557  -3.154  0.00  0.00    -0.007 C 
BRANCH  29  30
ATOM     30  C23 <0> A   1      -3.312   0.577  -3.418  0.00  0.00    +0.212 C 
BRANCH  30  31
ATOM     31  O5  <0> A   1      -4.014   0.436  -2.182  0.00  0.00    -0.542 OA
ATOM     32  H32 <0> A   1      -3.827   1.136  -1.541  0.00  0.00    +0.363 HD
ENDBRANCH  30  31
BRANCH  30  33
ATOM     33  C24 <0> A   1      -3.697   1.904  -4.075  0.00  0.00    -0.051 C 
BRANCH  33  34
ATOM     34  C25 <0> A   1      -5.180   1.874  -4.453  0.00  0.00    +0.230 C 
BRANCH  34  35
ATOM     35  O4  <0> A   1      -5.972   1.796  -3.266  0.00  0.00    -0.528 OA
ATOM     36  H31 <0> A   1      -5.846   2.538  -2.659  0.00  0.00    +0.349 HD
ENDBRANCH  34  35
BRANCH  34  37
ATOM     37  C26 <0> A   1      -5.536   3.149  -5.220  0.00  0.00    -0.103 C 
BRANCH  37  38
ATOM     38  C27 <0> A   1      -6.963   3.065  -5.698  0.00  0.00    +0.491 C 
ATOM     39  O2  <0> A   1      -7.633   2.078  -5.448  0.00  0.00    -0.681 OA
ATOM     40  O3  <0> A   1      -7.447   3.985  -6.335  0.00  0.00    -0.713 OA
ENDBRANCH  37  38
ENDBRANCH  34  37
ENDBRANCH  33  34
ENDBRANCH  30  33
ENDBRANCH  29  30
ENDBRANCH  28  29
ENDBRANCH   2  28
TORSDOF 14
