REMARK VINA RESULT:      -8.4      0.000      0.000
REMARK  Name = CHEMBL154698
REMARK  8 active torsions:
REMARK  status: ('A' for Active; 'I' for Inactive)
REMARK    1  A    between atoms: C1_1  and  C2_2
REMARK    2  A    between atoms: C2_2  and  C3_3
REMARK    3  A    between atoms: C2_2  and  C4_4
REMARK    4  A    between atoms: C6_6  and  C22_28
REMARK    5  A    between atoms: C7_8  and  C16_21
REMARK    6  A    between atoms: C8_9  and  C9_10
REMARK    7  A    between atoms: C10_11  and  C11_12
REMARK    8  A    between atoms: C13_14  and  O3_20
REMARK                            x       y       z     vdW  Elec       q    Type
REMARK                         _______ _______ _______ _____ _____    ______ ____
ROOT
ATOM      1  C4  <0> A   1     -25.131  -2.892  51.659  0.00  0.00    -0.012 A 
ATOM      2  C5  <0> A   1     -25.836  -1.708  51.570  0.00  0.00    -0.017 A 
ATOM      3  C6  <0> A   1     -27.231  -1.742  51.542  0.00  0.00    +0.179 A 
ATOM      4  N1  <0> A   1     -27.887  -2.893  51.599  0.00  0.00    -0.469 NA
ATOM      5  C7  <0> A   1     -27.252  -4.051  51.685  0.00  0.00    +0.188 A 
ATOM      6  C8  <0> A   1     -25.846  -4.093  51.713  0.00  0.00    -0.100 A 
ENDROOT
BRANCH   5   7
ATOM      7  C16 <0> A   1     -28.027  -5.311  51.746  0.00  0.00    -0.062 A 
ATOM      8  C17 <0> A   1     -28.329  -5.889  52.980  0.00  0.00    +0.080 A 
ATOM      9  C18 <0> A   1     -29.051  -7.063  53.033  0.00  0.00    -0.020 A 
ATOM     10  C19 <0> A   1     -29.477  -7.669  51.862  0.00  0.00    +0.114 A 
ATOM     11  C20 <0> A   1     -29.180  -7.099  50.634  0.00  0.00    -0.021 A 
ATOM     12  C21 <0> A   1     -28.463  -5.923  50.571  0.00  0.00    +0.088 A 
ATOM     13  F1  <0> A   1     -30.184  -8.819  51.918  0.00  0.00    -0.137 F 
ENDBRANCH   5   7
BRANCH   3  14
ATOM     14  C22 <0> A   1     -27.990  -0.472  51.447  0.00  0.00    -0.052 A 
ATOM     15  C23 <0> A   1     -27.404   0.652  50.868  0.00  0.00    +0.025 A 
ATOM     16  C24 <0> A   1     -28.115   1.832  50.781  0.00  0.00    +0.003 A 
ATOM     17  C25 <0> A   1     -29.408   1.900  51.270  0.00  0.00    +0.017 A 
ATOM     18  C26 <0> A   1     -29.995   0.788  51.846  0.00  0.00    +0.001 A 
ATOM     19  C27 <0> A   1     -29.296  -0.398  51.932  0.00  0.00    +0.056 A 
ENDBRANCH   3  14
BRANCH   1  21
ATOM     20  C1  <0> A   1     -23.088  -2.197  50.437  0.00  0.00    +0.034 C 
ATOM     21  C2  <0> A   1     -23.624  -2.891  51.690  0.00  0.00    +0.028 C 
ATOM     22  C3  <0> A   1     -23.141  -2.142  52.935  0.00  0.00    +0.035 C 
ENDBRANCH   1  21
BRANCH   6  23
ATOM     23  C9  <0> A   1     -25.137  -5.385  51.802  0.00  0.00    +0.046 C 
ATOM     24  C10 <0> A   1     -24.859  -6.067  50.699  0.00  0.00    -0.008 C 
BRANCH  24  25
ATOM     25  C11 <0> A   1     -24.135  -7.385  50.791  0.00  0.00    +0.243 C 
ATOM     26  C12 <0> A   1     -25.084  -8.518  50.391  0.00  0.00    +0.051 C 
ATOM     27  C13 <0> A   1     -24.357  -9.860  50.525  0.00  0.00    +0.186 C 
ATOM     28  C14 <0> A   1     -23.904 -10.035  51.980  0.00  0.00    +0.024 C 
ATOM     29  C15 <0> A   1     -23.137  -8.798  52.390  0.00  0.00    +0.498 C 
ATOM     30  O1  <0> A   1     -22.061  -8.885  52.932  0.00  0.00    -0.449 OA
ATOM     31  O2  <0> A   1     -23.691  -7.594  52.135  0.00  0.00    -0.370 OA
BRANCH  27  32
ATOM     32  O3  <0> A   1     -23.219  -9.877  49.662  0.00  0.00    -0.563 OA
ATOM     33  H17 <0> A   1     -22.418  -9.510  50.059  0.00  0.00    +0.387 HD
ENDBRANCH  27  32
ENDBRANCH  24  25
ENDBRANCH   6  23
TORSDOF 6
