MODEL 1
REMARK VINA RESULT:      -8.1      0.000      0.000
REMARK  Name = CHEMBL468632
REMARK  15 active torsions:
REMARK  status: ('A' for Active; 'I' for Inactive)
REMARK    1  A    between atoms: C1_1  and  C2_2
REMARK    2  A    between atoms: C2_2  and  C3_3
REMARK    3  A    between atoms: C2_2  and  C4_4
REMARK    4  A    between atoms: C5_5  and  C19_27
REMARK    5  A    between atoms: C6_6  and  C13_20
REMARK    6  A    between atoms: N3_10  and  C8_11
REMARK    7  A    between atoms: C10_13  and  C12_17
REMARK    8  A    between atoms: N5_15  and  C11_16
REMARK    9  A    between atoms: C20_28  and  C21_29
REMARK   10  A    between atoms: C21_29  and  C22_31
REMARK   11  A    between atoms: C21_29  and  O6_39
REMARK   12  A    between atoms: C22_31  and  C23_32
REMARK   13  A    between atoms: C23_32  and  C24_34
REMARK   14  A    between atoms: C23_32  and  O5_38
REMARK   15  A    between atoms: C24_34  and  C25_35
REMARK                            x       y       z     vdW  Elec       q    Type
REMARK                         _______ _______ _______ _____ _____    ______ ____
ROOT
ATOM      1  C4  <0> A   1     -15.581   6.075  45.963  0.00  0.00    +0.234 A 
ATOM      2  C5  <0> A   1     -15.082   7.364  46.172  0.00  0.00    -0.198 A 
ATOM      3  C6  <0> A   1     -15.691   8.160  47.164  0.00  0.00    +0.272 A 
ATOM      4  N1  <0> A   1     -16.707   7.654  47.856  0.00  0.00    -0.532 NA
ATOM      5  C7  <0> A   1     -17.144   6.428  47.621  0.00  0.00    +0.573 A 
ATOM      6  N2  <0> A   1     -16.598   5.653  46.692  0.00  0.00    -0.561 NA
ATOM      7  N3  <0> A   1     -18.204   5.938  48.364  0.00  0.00    -0.606 N 
ATOM      8  H10 <0> A   1     -18.537   5.041  48.204  0.00  0.00    +0.415 HD
ENDROOT
BRANCH   3   9
ATOM      9  C13 <0> A   1     -15.206   9.533  47.431  0.00  0.00    -0.078 A 
ATOM     10  C14 <0> A   1     -14.167   9.744  48.338  0.00  0.00    +0.090 A 
ATOM     11  C15 <0> A   1     -13.719  11.026  48.584  0.00  0.00    -0.026 A 
ATOM     12  C16 <0> A   1     -14.299  12.102  47.931  0.00  0.00    +0.117 A 
ATOM     13  C17 <0> A   1     -15.331  11.897  47.030  0.00  0.00    -0.009 A 
ATOM     14  C18 <0> A   1     -15.782  10.620  46.773  0.00  0.00    +0.112 A 
ATOM     15  F1  <0> A   1     -13.856  13.355  48.175  0.00  0.00    -0.139 F 
ENDBRANCH   3   9
BRANCH   7  16
ATOM     16  C8  <0> A   1     -18.796   6.735  49.342  0.00  0.00    +0.211 C 
ATOM     17  C9  <0> A   1     -19.848   7.583  49.169  0.00  0.00    -0.010 C 
ATOM     18  C10 <0> A   1     -20.081   8.160  50.440  0.00  0.00    +0.004 C 
ATOM     19  N4  <0> A   1     -19.193   7.646  51.269  0.00  0.00    -0.268 NA
ATOM     20  N5  <0> A   1     -18.438   6.810  50.651  0.00  0.00    -0.328 N 
ATOM     21  C11 <0> A   1     -17.346   6.052  51.267  0.00  0.00    +0.335 C 
BRANCH  18  22
ATOM     22  C12 <0> A   1     -21.122   9.148  50.775  0.00  0.00    +0.562 C 
ATOM     23  O1  <0> A   1     -22.036   9.363  49.991  0.00  0.00    -0.676 OA
ATOM     24  O2  <0> A   1     -21.071   9.754  51.837  0.00  0.00    -0.681 OA
ENDBRANCH  18  22
ENDBRANCH   7  16
BRANCH   1  26
ATOM     25  C1  <0> A   1     -14.107   4.114  45.594  0.00  0.00    +0.039 C 
ATOM     26  C2  <0> A   1     -14.970   5.180  44.915  0.00  0.00    +0.051 C 
ATOM     27  C3  <0> A   1     -16.081   4.500  44.113  0.00  0.00    +0.040 C 
ENDBRANCH   1  26
BRANCH   2  28
ATOM     28  C19 <0> A   1     -13.950   7.877  45.376  0.00  0.00    +0.018 C 
ATOM     29  C20 <0> A   1     -14.151   8.304  44.136  0.00  0.00    -0.043 C 
BRANCH  29  30
ATOM     30  C21 <0> A   1     -12.995   8.829  43.322  0.00  0.00    +0.253 C 
BRANCH  30  31
ATOM     31  O6  <0> A   1     -12.022   7.795  43.155  0.00  0.00    -0.539 OA
ATOM     32  H26 <0> A   1     -12.401   6.912  43.046  0.00  0.00    +0.364 HD
ENDBRANCH  30  31
BRANCH  30  33
ATOM     33  C22 <0> A   1     -13.499   9.280  41.951  0.00  0.00    -0.041 C 
BRANCH  33  34
ATOM     34  C23 <0> A   1     -12.940  10.667  41.633  0.00  0.00    +0.231 C 
BRANCH  34  35
ATOM     35  O5  <0> A   1     -11.550  10.561  41.323  0.00  0.00    -0.528 OA
ATOM     36  H25 <0> A   1     -11.188   9.671  41.437  0.00  0.00    +0.349 HD
ENDBRANCH  34  35
BRANCH  34  37
ATOM     37  C24 <0> A   1     -13.686  11.255  40.433  0.00  0.00    -0.102 C 
BRANCH  37  38
ATOM     38  C25 <0> A   1     -12.821  11.150  39.203  0.00  0.00    +0.491 C 
ATOM     39  O3  <0> A   1     -12.341  12.155  38.708  0.00  0.00    -0.681 OA
ATOM     40  O4  <0> A   1     -12.601  10.060  38.703  0.00  0.00    -0.716 OA
ENDBRANCH  37  38
ENDBRANCH  34  37
ENDBRANCH  33  34
ENDBRANCH  30  33
ENDBRANCH  29  30
ENDBRANCH   2  28
TORSDOF 12
ENDMDL
MODEL 2
REMARK VINA RESULT:      -8.1      2.458      4.367
REMARK  Name = CHEMBL468632
REMARK  15 active torsions:
REMARK  status: ('A' for Active; 'I' for Inactive)
REMARK    1  A    between atoms: C1_1  and  C2_2
REMARK    2  A    between atoms: C2_2  and  C3_3
REMARK    3  A    between atoms: C2_2  and  C4_4
REMARK    4  A    between atoms: C5_5  and  C19_27
REMARK    5  A    between atoms: C6_6  and  C13_20
REMARK    6  A    between atoms: N3_10  and  C8_11
REMARK    7  A    between atoms: C10_13  and  C12_17
REMARK    8  A    between atoms: N5_15  and  C11_16
REMARK    9  A    between atoms: C20_28  and  C21_29
REMARK   10  A    between atoms: C21_29  and  C22_31
REMARK   11  A    between atoms: C21_29  and  O6_39
REMARK   12  A    between atoms: C22_31  and  C23_32
REMARK   13  A    between atoms: C23_32  and  C24_34
REMARK   14  A    between atoms: C23_32  and  O5_38
REMARK   15  A    between atoms: C24_34  and  C25_35
REMARK                            x       y       z     vdW  Elec       q    Type
REMARK                         _______ _______ _______ _____ _____    ______ ____
ROOT
ATOM      1  C4  <0> A   1     -15.198  10.238  47.953  0.00  0.00    +0.234 A 
ATOM      2  C5  <0> A   1     -14.817   9.164  47.143  0.00  0.00    -0.198 A 
ATOM      3  C6  <0> A   1     -15.487   7.935  47.311  0.00  0.00    +0.272 A 
ATOM      4  N1  <0> A   1     -16.450   7.849  48.225  0.00  0.00    -0.532 NA
ATOM      5  C7  <0> A   1     -16.773   8.895  48.967  0.00  0.00    +0.573 A 
ATOM      6  N2  <0> A   1     -16.161  10.065  48.840  0.00  0.00    -0.561 NA
ATOM      7  N3  <0> A   1     -17.781   8.765  49.907  0.00  0.00    -0.606 N 
ATOM      8  H10 <0> A   1     -18.031   9.523  50.460  0.00  0.00    +0.415 HD
ENDROOT
BRANCH   3   9
ATOM      9  C13 <0> A   1     -15.128   6.761  46.482  0.00  0.00    -0.078 A 
ATOM     10  C14 <0> A   1     -14.018   5.984  46.814  0.00  0.00    +0.090 A 
ATOM     11  C15 <0> A   1     -13.686   4.893  46.039  0.00  0.00    -0.026 A 
ATOM     12  C16 <0> A   1     -14.455   4.567  44.932  0.00  0.00    +0.117 A 
ATOM     13  C17 <0> A   1     -15.558   5.336  44.599  0.00  0.00    -0.009 A 
ATOM     14  C18 <0> A   1     -15.901   6.426  45.371  0.00  0.00    +0.112 A 
ATOM     15  F1  <0> A   1     -14.126   3.496  44.177  0.00  0.00    -0.139 F 
ENDBRANCH   3   9
BRANCH   7  16
ATOM     16  C8  <0> A   1     -18.437   7.545  50.062  0.00  0.00    +0.211 C 
ATOM     17  C9  <0> A   1     -19.510   7.105  49.348  0.00  0.00    -0.010 C 
ATOM     18  C10 <0> A   1     -19.810   5.824  49.868  0.00  0.00    +0.004 C 
ATOM     19  N4  <0> A   1     -18.935   5.578  50.826  0.00  0.00    -0.268 NA
ATOM     20  N5  <0> A   1     -18.124   6.566  50.952  0.00  0.00    -0.328 N 
ATOM     21  C11 <0> A   1     -17.024   6.630  51.917  0.00  0.00    +0.335 C 
BRANCH  18  22
ATOM     22  C12 <0> A   1     -20.894   4.930  49.423  0.00  0.00    +0.562 C 
ATOM     23  O1  <0> A   1     -21.256   4.943  48.255  0.00  0.00    -0.676 OA
ATOM     24  O2  <0> A   1     -21.433   4.177  50.222  0.00  0.00    -0.681 OA
ENDBRANCH  18  22
ENDBRANCH   7  16
BRANCH   1  26
ATOM     25  C1  <0> A   1     -15.552  12.693  47.945  0.00  0.00    +0.039 C 
ATOM     26  C2  <0> A   1     -14.515  11.575  47.818  0.00  0.00    +0.051 C 
ATOM     27  C3  <0> A   1     -13.466  11.726  48.921  0.00  0.00    +0.040 C 
ENDBRANCH   1  26
BRANCH   2  28
ATOM     28  C19 <0> A   1     -13.743   9.312  46.142  0.00  0.00    +0.018 C 
ATOM     29  C20 <0> A   1     -14.042   9.636  44.891  0.00  0.00    -0.043 C 
BRANCH  29  30
ATOM     30  C21 <0> A   1     -12.945   9.787  43.868  0.00  0.00    +0.253 C 
BRANCH  30  31
ATOM     31  O6  <0> A   1     -12.056   8.672  43.956  0.00  0.00    -0.539 OA
ATOM     32  H26 <0> A   1     -12.016   8.136  43.152  0.00  0.00    +0.364 HD
ENDBRANCH  30  31
BRANCH  30  33
ATOM     33  C22 <0> A   1     -13.558   9.840  42.467  0.00  0.00    -0.041 C 
BRANCH  33  34
ATOM     34  C23 <0> A   1     -12.905  10.969  41.668  0.00  0.00    +0.231 C 
BRANCH  34  35
ATOM     35  O5  <0> A   1     -11.580  10.584  41.295  0.00  0.00    -0.528 OA
ATOM     36  H25 <0> A   1     -11.070  10.183  42.012  0.00  0.00    +0.349 HD
ENDBRANCH  34  35
BRANCH  34  37
ATOM     37  C24 <0> A   1     -13.729  11.245  40.409  0.00  0.00    -0.102 C 
BRANCH  37  38
ATOM     38  C25 <0> A   1     -12.848  11.114  39.193  0.00  0.00    +0.491 C 
ATOM     39  O3  <0> A   1     -12.642  10.016  38.705  0.00  0.00    -0.681 OA
ATOM     40  O4  <0> A   1     -12.341  12.105  38.697  0.00  0.00    -0.716 OA
ENDBRANCH  37  38
ENDBRANCH  34  37
ENDBRANCH  33  34
ENDBRANCH  30  33
ENDBRANCH  29  30
ENDBRANCH   2  28
TORSDOF 12
ENDMDL
MODEL 3
REMARK VINA RESULT:      -7.9      2.344      2.688
REMARK  Name = CHEMBL468632
REMARK  15 active torsions:
REMARK  status: ('A' for Active; 'I' for Inactive)
REMARK    1  A    between atoms: C1_1  and  C2_2
REMARK    2  A    between atoms: C2_2  and  C3_3
REMARK    3  A    between atoms: C2_2  and  C4_4
REMARK    4  A    between atoms: C5_5  and  C19_27
REMARK    5  A    between atoms: C6_6  and  C13_20
REMARK    6  A    between atoms: N3_10  and  C8_11
REMARK    7  A    between atoms: C10_13  and  C12_17
REMARK    8  A    between atoms: N5_15  and  C11_16
REMARK    9  A    between atoms: C20_28  and  C21_29
REMARK   10  A    between atoms: C21_29  and  C22_31
REMARK   11  A    between atoms: C21_29  and  O6_39
REMARK   12  A    between atoms: C22_31  and  C23_32
REMARK   13  A    between atoms: C23_32  and  C24_34
REMARK   14  A    between atoms: C23_32  and  O5_38
REMARK   15  A    between atoms: C24_34  and  C25_35
REMARK                            x       y       z     vdW  Elec       q    Type
REMARK                         _______ _______ _______ _____ _____    ______ ____
ROOT
ATOM      1  C4  <0> A   1     -14.954   6.339  45.386  0.00  0.00    +0.234 A 
ATOM      2  C5  <0> A   1     -14.318   7.571  45.212  0.00  0.00    -0.198 A 
ATOM      3  C6  <0> A   1     -14.237   8.441  46.320  0.00  0.00    +0.272 A 
ATOM      4  N1  <0> A   1     -14.766   8.054  47.477  0.00  0.00    -0.532 NA
ATOM      5  C7  <0> A   1     -15.359   6.877  47.591  0.00  0.00    +0.573 A 
ATOM      6  N2  <0> A   1     -15.457   6.037  46.569  0.00  0.00    -0.561 NA
ATOM      7  N3  <0> A   1     -15.896   6.511  48.813  0.00  0.00    -0.606 N 
ATOM      8  H10 <0> A   1     -16.335   5.652  48.913  0.00  0.00    +0.415 HD
ENDROOT
BRANCH   3   9
ATOM      9  C13 <0> A   1     -13.575   9.759  46.197  0.00  0.00    -0.078 A 
ATOM     10  C14 <0> A   1     -12.263   9.927  46.641  0.00  0.00    +0.090 A 
ATOM     11  C15 <0> A   1     -11.650  11.157  46.525  0.00  0.00    -0.026 A 
ATOM     12  C16 <0> A   1     -12.335  12.226  45.968  0.00  0.00    +0.117 A 
ATOM     13  C17 <0> A   1     -13.638  12.063  45.525  0.00  0.00    -0.009 A 
ATOM     14  C18 <0> A   1     -14.258  10.836  45.632  0.00  0.00    +0.112 A 
ATOM     15  F1  <0> A   1     -11.730  13.428  45.856  0.00  0.00    -0.139 F 
ENDBRANCH   3   9
BRANCH   7  16
ATOM     16  C8  <0> A   1     -15.810   7.379  49.900  0.00  0.00    +0.211 C 
ATOM     17  C9  <0> A   1     -16.759   8.268  50.305  0.00  0.00    -0.010 C 
ATOM     18  C10 <0> A   1     -16.213   8.912  51.440  0.00  0.00    +0.004 C 
ATOM     19  N4  <0> A   1     -15.016   8.394  51.644  0.00  0.00    -0.268 NA
ATOM     20  N5  <0> A   1     -14.764   7.496  50.761  0.00  0.00    -0.328 N 
ATOM     21  C11 <0> A   1     -13.528   6.714  50.690  0.00  0.00    +0.335 C 
BRANCH  18  22
ATOM     22  C12 <0> A   1     -16.859   9.964  52.246  0.00  0.00    +0.562 C 
ATOM     23  O1  <0> A   1     -16.211  10.932  52.620  0.00  0.00    -0.676 OA
ATOM     24  O2  <0> A   1     -18.042   9.869  52.540  0.00  0.00    -0.681 OA
ENDBRANCH  18  22
ENDBRANCH   7  16
BRANCH   1  26
ATOM     25  C1  <0> A   1     -14.239   4.122  44.536  0.00  0.00    +0.039 C 
ATOM     26  C2  <0> A   1     -15.070   5.371  44.236  0.00  0.00    +0.051 C 
ATOM     27  C3  <0> A   1     -16.536   4.974  44.049  0.00  0.00    +0.040 C 
ENDBRANCH   1  26
BRANCH   2  28
ATOM     28  C19 <0> A   1     -13.746   7.953  43.906  0.00  0.00    +0.018 C 
ATOM     29  C20 <0> A   1     -12.467   7.714  43.647  0.00  0.00    -0.043 C 
BRANCH  29  30
ATOM     30  C21 <0> A   1     -11.882   8.104  42.313  0.00  0.00    +0.253 C 
BRANCH  30  31
ATOM     31  O6  <0> A   1     -10.959   7.099  41.887  0.00  0.00    -0.539 OA
ATOM     32  H26 <0> A   1     -10.167   7.033  42.439  0.00  0.00    +0.364 HD
ENDBRANCH  30  31
BRANCH  30  33
ATOM     33  C22 <0> A   1     -13.005   8.233  41.282  0.00  0.00    -0.041 C 
BRANCH  33  34
ATOM     34  C23 <0> A   1     -12.664   9.350  40.294  0.00  0.00    +0.231 C 
BRANCH  34  35
ATOM     35  O5  <0> A   1     -13.227   9.044  39.017  0.00  0.00    -0.528 OA
ATOM     36  H25 <0> A   1     -13.681   8.190  38.981  0.00  0.00    +0.349 HD
ENDBRANCH  34  35
BRANCH  34  37
ATOM     37  C24 <0> A   1     -13.239  10.673  40.801  0.00  0.00    -0.102 C 
BRANCH  37  38
ATOM     38  C25 <0> A   1     -14.053  11.319  39.709  0.00  0.00    +0.491 C 
ATOM     39  O3  <0> A   1     -13.502  11.992  38.855  0.00  0.00    -0.681 OA
ATOM     40  O4  <0> A   1     -15.263  11.169  39.680  0.00  0.00    -0.716 OA
ENDBRANCH  37  38
ENDBRANCH  34  37
ENDBRANCH  33  34
ENDBRANCH  30  33
ENDBRANCH  29  30
ENDBRANCH   2  28
TORSDOF 12
ENDMDL
MODEL 4
REMARK VINA RESULT:      -7.9      2.678      3.244
REMARK  Name = CHEMBL468632
REMARK  15 active torsions:
REMARK  status: ('A' for Active; 'I' for Inactive)
REMARK    1  A    between atoms: C1_1  and  C2_2
REMARK    2  A    between atoms: C2_2  and  C3_3
REMARK    3  A    between atoms: C2_2  and  C4_4
REMARK    4  A    between atoms: C5_5  and  C19_27
REMARK    5  A    between atoms: C6_6  and  C13_20
REMARK    6  A    between atoms: N3_10  and  C8_11
REMARK    7  A    between atoms: C10_13  and  C12_17
REMARK    8  A    between atoms: N5_15  and  C11_16
REMARK    9  A    between atoms: C20_28  and  C21_29
REMARK   10  A    between atoms: C21_29  and  C22_31
REMARK   11  A    between atoms: C21_29  and  O6_39
REMARK   12  A    between atoms: C22_31  and  C23_32
REMARK   13  A    between atoms: C23_32  and  C24_34
REMARK   14  A    between atoms: C23_32  and  O5_38
REMARK   15  A    between atoms: C24_34  and  C25_35
REMARK                            x       y       z     vdW  Elec       q    Type
REMARK                         _______ _______ _______ _____ _____    ______ ____
ROOT
ATOM      1  C4  <0> A   1     -14.858   6.360  45.393  0.00  0.00    +0.234 A 
ATOM      2  C5  <0> A   1     -14.236   7.602  45.237  0.00  0.00    -0.198 A 
ATOM      3  C6  <0> A   1     -14.157   8.452  46.360  0.00  0.00    +0.272 A 
ATOM      4  N1  <0> A   1     -14.674   8.039  47.514  0.00  0.00    -0.532 NA
ATOM      5  C7  <0> A   1     -15.254   6.854  47.610  0.00  0.00    +0.573 A 
ATOM      6  N2  <0> A   1     -15.350   6.032  46.574  0.00  0.00    -0.561 NA
ATOM      7  N3  <0> A   1     -15.779   6.460  48.829  0.00  0.00    -0.606 N 
ATOM      8  H10 <0> A   1     -16.208   5.595  48.916  0.00  0.00    +0.415 HD
ENDROOT
BRANCH   3   9
ATOM      9  C13 <0> A   1     -13.508   9.779  46.257  0.00  0.00    -0.078 A 
ATOM     10  C14 <0> A   1     -12.147   9.916  46.532  0.00  0.00    +0.090 A 
ATOM     11  C15 <0> A   1     -11.548  11.155  46.435  0.00  0.00    -0.026 A 
ATOM     12  C16 <0> A   1     -12.295  12.262  46.066  0.00  0.00    +0.117 A 
ATOM     13  C17 <0> A   1     -13.647  12.130  45.792  0.00  0.00    -0.009 A 
ATOM     14  C18 <0> A   1     -14.255  10.896  45.881  0.00  0.00    +0.112 A 
ATOM     15  F1  <0> A   1     -11.703  13.473  45.972  0.00  0.00    -0.139 F 
ENDBRANCH   3   9
BRANCH   7  16
ATOM     16  C8  <0> A   1     -15.694   7.309  49.931  0.00  0.00    +0.211 C 
ATOM     17  C9  <0> A   1     -14.652   7.403  50.803  0.00  0.00    -0.010 C 
ATOM     18  C10 <0> A   1     -15.032   8.393  51.740  0.00  0.00    +0.004 C 
ATOM     19  N4  <0> A   1     -16.231   8.819  51.391  0.00  0.00    -0.268 NA
ATOM     20  N5  <0> A   1     -16.632   8.204  50.338  0.00  0.00    -0.328 N 
ATOM     21  C11 <0> A   1     -17.918   8.432  49.673  0.00  0.00    +0.335 C 
BRANCH  18  22
ATOM     22  C12 <0> A   1     -14.237   8.861  52.890  0.00  0.00    +0.562 C 
ATOM     23  O1  <0> A   1     -13.412   8.119  53.405  0.00  0.00    -0.676 OA
ATOM     24  O2  <0> A   1     -14.403   9.990  53.329  0.00  0.00    -0.681 OA
ENDBRANCH  18  22
ENDBRANCH   7  16
BRANCH   1  26
ATOM     25  C1  <0> A   1     -14.292   4.088  44.578  0.00  0.00    +0.039 C 
ATOM     26  C2  <0> A   1     -14.972   5.413  44.227  0.00  0.00    +0.051 C 
ATOM     27  C3  <0> A   1     -16.449   5.160  43.916  0.00  0.00    +0.040 C 
ENDBRANCH   1  26
BRANCH   2  28
ATOM     28  C19 <0> A   1     -13.676   8.013  43.935  0.00  0.00    +0.018 C 
ATOM     29  C20 <0> A   1     -12.451   7.638  43.591  0.00  0.00    -0.043 C 
BRANCH  29  30
ATOM     30  C21 <0> A   1     -11.880   8.058  42.260  0.00  0.00    +0.253 C 
BRANCH  30  31
ATOM     31  O6  <0> A   1     -10.952   7.069  41.808  0.00  0.00    -0.539 OA
ATOM     32  H26 <0> A   1     -10.350   6.751  42.495  0.00  0.00    +0.364 HD
ENDBRANCH  30  31
BRANCH  30  33
ATOM     33  C22 <0> A   1     -13.011   8.199  41.240  0.00  0.00    -0.041 C 
BRANCH  33  34
ATOM     34  C23 <0> A   1     -12.701   9.357  40.291  0.00  0.00    +0.231 C 
BRANCH  34  35
ATOM     35  O5  <0> A   1     -13.212   9.057  38.991  0.00  0.00    -0.528 OA
ATOM     36  H25 <0> A   1     -13.385   8.116  38.843  0.00  0.00    +0.349 HD
ENDBRANCH  34  35
BRANCH  34  37
ATOM     37  C24 <0> A   1     -13.358  10.635  40.814  0.00  0.00    -0.102 C 
BRANCH  37  38
ATOM     38  C25 <0> A   1     -14.132  11.294  39.702  0.00  0.00    +0.491 C 
ATOM     39  O3  <0> A   1     -13.547  11.957  38.862  0.00  0.00    -0.681 OA
ATOM     40  O4  <0> A   1     -15.343  11.165  39.641  0.00  0.00    -0.716 OA
ENDBRANCH  37  38
ENDBRANCH  34  37
ENDBRANCH  33  34
ENDBRANCH  30  33
ENDBRANCH  29  30
ENDBRANCH   2  28
TORSDOF 12
ENDMDL
MODEL 5
REMARK VINA RESULT:      -7.7     15.559     19.230
REMARK  Name = CHEMBL468632
REMARK  15 active torsions:
REMARK  status: ('A' for Active; 'I' for Inactive)
REMARK    1  A    between atoms: C1_1  and  C2_2
REMARK    2  A    between atoms: C2_2  and  C3_3
REMARK    3  A    between atoms: C2_2  and  C4_4
REMARK    4  A    between atoms: C5_5  and  C19_27
REMARK    5  A    between atoms: C6_6  and  C13_20
REMARK    6  A    between atoms: N3_10  and  C8_11
REMARK    7  A    between atoms: C10_13  and  C12_17
REMARK    8  A    between atoms: N5_15  and  C11_16
REMARK    9  A    between atoms: C20_28  and  C21_29
REMARK   10  A    between atoms: C21_29  and  C22_31
REMARK   11  A    between atoms: C21_29  and  O6_39
REMARK   12  A    between atoms: C22_31  and  C23_32
REMARK   13  A    between atoms: C23_32  and  C24_34
REMARK   14  A    between atoms: C23_32  and  O5_38
REMARK   15  A    between atoms: C24_34  and  C25_35
REMARK                            x       y       z     vdW  Elec       q    Type
REMARK                         _______ _______ _______ _____ _____    ______ ____
ROOT
ATOM      1  C4  <0> A   1     -27.191  -2.952  52.072  0.00  0.00    +0.234 A 
ATOM      2  C5  <0> A   1     -26.275  -3.888  51.583  0.00  0.00    -0.198 A 
ATOM      3  C6  <0> A   1     -26.636  -5.251  51.614  0.00  0.00    +0.272 A 
ATOM      4  N1  <0> A   1     -27.826  -5.587  52.102  0.00  0.00    -0.532 NA
ATOM      5  C7  <0> A   1     -28.659  -4.663  52.554  0.00  0.00    +0.573 A 
ATOM      6  N2  <0> A   1     -28.350  -3.373  52.545  0.00  0.00    -0.561 NA
ATOM      7  N3  <0> A   1     -29.889  -5.055  53.054  0.00  0.00    -0.606 N 
ATOM      8  H10 <0> A   1     -30.511  -4.390  53.389  0.00  0.00    +0.415 HD
ENDROOT
BRANCH   3   9
ATOM      9  C13 <0> A   1     -25.707  -6.288  51.109  0.00  0.00    -0.078 A 
ATOM     10  C14 <0> A   1     -24.873  -6.970  51.995  0.00  0.00    +0.090 A 
ATOM     11  C15 <0> A   1     -24.009  -7.935  51.521  0.00  0.00    -0.026 A 
ATOM     12  C16 <0> A   1     -23.969  -8.227  50.166  0.00  0.00    +0.117 A 
ATOM     13  C17 <0> A   1     -24.796  -7.552  49.283  0.00  0.00    -0.009 A 
ATOM     14  C18 <0> A   1     -25.667  -6.590  49.748  0.00  0.00    +0.112 A 
ATOM     15  F1  <0> A   1     -23.121  -9.173  49.707  0.00  0.00    -0.139 F 
ENDBRANCH   3   9
BRANCH   7  16
ATOM     16  C8  <0> A   1     -30.234  -6.405  53.078  0.00  0.00    +0.211 C 
ATOM     17  C9  <0> A   1     -30.087  -7.260  54.128  0.00  0.00    -0.010 C 
ATOM     18  C10 <0> A   1     -30.575  -8.507  53.670  0.00  0.00    +0.004 C 
ATOM     19  N4  <0> A   1     -30.971  -8.336  52.423  0.00  0.00    -0.268 NA
ATOM     20  N5  <0> A   1     -30.785  -7.118  52.060  0.00  0.00    -0.328 N 
ATOM     21  C11 <0> A   1     -31.116  -6.576  50.740  0.00  0.00    +0.335 C 
BRANCH  18  22
ATOM     22  C12 <0> A   1     -30.632  -9.762  54.441  0.00  0.00    +0.562 C 
ATOM     23  O1  <0> A   1     -31.456 -10.619  54.154  0.00  0.00    -0.676 OA
ATOM     24  O2  <0> A   1     -29.856  -9.945  55.369  0.00  0.00    -0.681 OA
ENDBRANCH  18  22
ENDBRANCH   7  16
BRANCH   1  26
ATOM     25  C1  <0> A   1     -27.937  -0.718  51.293  0.00  0.00    +0.039 C 
ATOM     26  C2  <0> A   1     -26.858  -1.482  52.065  0.00  0.00    +0.051 C 
ATOM     27  C3  <0> A   1     -26.798  -0.965  53.503  0.00  0.00    +0.040 C 
ENDBRANCH   1  26
BRANCH   2  28
ATOM     28  C19 <0> A   1     -24.966  -3.462  51.050  0.00  0.00    +0.018 C 
ATOM     29  C20 <0> A   1     -24.007  -3.074  51.880  0.00  0.00    -0.043 C 
BRANCH  29  30
ATOM     30  C21 <0> A   1     -22.670  -2.639  51.336  0.00  0.00    +0.253 C 
BRANCH  30  31
ATOM     31  O6  <0> A   1     -22.839  -1.463  50.541  0.00  0.00    -0.539 OA
ATOM     32  H26 <0> A   1     -22.014  -1.111  50.179  0.00  0.00    +0.364 HD
ENDBRANCH  30  31
BRANCH  30  33
ATOM     33  C22 <0> A   1     -21.720  -2.336  52.497  0.00  0.00    -0.041 C 
BRANCH  33  34
ATOM     34  C23 <0> A   1     -20.651  -3.427  52.579  0.00  0.00    +0.231 C 
BRANCH  34  35
ATOM     35  O5  <0> A   1     -20.080  -3.632  51.286  0.00  0.00    -0.528 OA
ATOM     36  H25 <0> A   1     -19.120  -3.509  51.255  0.00  0.00    +0.349 HD
ENDBRANCH  34  35
BRANCH  34  37
ATOM     37  C24 <0> A   1     -19.557  -2.995  53.557  0.00  0.00    -0.102 C 
BRANCH  37  38
ATOM     38  C25 <0> A   1     -18.788  -4.207  54.017  0.00  0.00    +0.491 C 
ATOM     39  O3  <0> A   1     -18.689  -5.179  53.289  0.00  0.00    -0.681 OA
ATOM     40  O4  <0> A   1     -18.265  -4.216  55.119  0.00  0.00    -0.716 OA
ENDBRANCH  37  38
ENDBRANCH  34  37
ENDBRANCH  33  34
ENDBRANCH  30  33
ENDBRANCH  29  30
ENDBRANCH   2  28
TORSDOF 12
ENDMDL
MODEL 6
REMARK VINA RESULT:      -7.6      2.774      4.705
REMARK  Name = CHEMBL468632
REMARK  15 active torsions:
REMARK  status: ('A' for Active; 'I' for Inactive)
REMARK    1  A    between atoms: C1_1  and  C2_2
REMARK    2  A    between atoms: C2_2  and  C3_3
REMARK    3  A    between atoms: C2_2  and  C4_4
REMARK    4  A    between atoms: C5_5  and  C19_27
REMARK    5  A    between atoms: C6_6  and  C13_20
REMARK    6  A    between atoms: N3_10  and  C8_11
REMARK    7  A    between atoms: C10_13  and  C12_17
REMARK    8  A    between atoms: N5_15  and  C11_16
REMARK    9  A    between atoms: C20_28  and  C21_29
REMARK   10  A    between atoms: C21_29  and  C22_31
REMARK   11  A    between atoms: C21_29  and  O6_39
REMARK   12  A    between atoms: C22_31  and  C23_32
REMARK   13  A    between atoms: C23_32  and  C24_34
REMARK   14  A    between atoms: C23_32  and  O5_38
REMARK   15  A    between atoms: C24_34  and  C25_35
REMARK                            x       y       z     vdW  Elec       q    Type
REMARK                         _______ _______ _______ _____ _____    ______ ____
ROOT
ATOM      1  C4  <0> A   1     -15.585   9.787  47.956  0.00  0.00    +0.234 A 
ATOM      2  C5  <0> A   1     -15.104   8.824  47.063  0.00  0.00    -0.198 A 
ATOM      3  C6  <0> A   1     -15.678   7.536  47.101  0.00  0.00    +0.272 A 
ATOM      4  N1  <0> A   1     -16.648   7.293  47.978  0.00  0.00    -0.532 NA
ATOM      5  C7  <0> A   1     -17.067   8.238  48.803  0.00  0.00    +0.573 A 
ATOM      6  N2  <0> A   1     -16.547   9.458  48.799  0.00  0.00    -0.561 NA
ATOM      7  N3  <0> A   1     -18.080   7.944  49.701  0.00  0.00    -0.606 N 
ATOM      8  H10 <0> A   1     -18.399   8.626  50.314  0.00  0.00    +0.415 HD
ENDROOT
BRANCH   3   9
ATOM      9  C13 <0> A   1     -15.211   6.476  46.179  0.00  0.00    -0.078 A 
ATOM     10  C14 <0> A   1     -14.235   5.569  46.594  0.00  0.00    +0.090 A 
ATOM     11  C15 <0> A   1     -13.802   4.583  45.731  0.00  0.00    -0.026 A 
ATOM     12  C16 <0> A   1     -14.336   4.492  44.455  0.00  0.00    +0.117 A 
ATOM     13  C17 <0> A   1     -15.306   5.391  44.040  0.00  0.00    -0.009 A 
ATOM     14  C18 <0> A   1     -15.749   6.377  44.896  0.00  0.00    +0.112 A 
ATOM     15  F1  <0> A   1     -13.909   3.524  43.615  0.00  0.00    -0.139 F 
ENDBRANCH   3   9
BRANCH   7  16
ATOM     16  C8  <0> A   1     -18.639   6.668  49.728  0.00  0.00    +0.211 C 
ATOM     17  C9  <0> A   1     -18.372   5.685  50.633  0.00  0.00    -0.010 C 
ATOM     18  C10 <0> A   1     -19.176   4.587  50.245  0.00  0.00    +0.004 C 
ATOM     19  N4  <0> A   1     -19.852   4.958  49.175  0.00  0.00    -0.268 NA
ATOM     20  N5  <0> A   1     -19.557   6.168  48.860  0.00  0.00    -0.328 N 
ATOM     21  C11 <0> A   1     -20.125   6.902  47.726  0.00  0.00    +0.335 C 
BRANCH  18  22
ATOM     22  C12 <0> A   1     -19.247   3.275  50.913  0.00  0.00    +0.562 C 
ATOM     23  O1  <0> A   1     -18.341   2.915  51.651  0.00  0.00    -0.676 OA
ATOM     24  O2  <0> A   1     -20.212   2.546  50.728  0.00  0.00    -0.681 OA
ENDBRANCH  18  22
ENDBRANCH   7  16
BRANCH   1  26
ATOM     25  C1  <0> A   1     -16.139  12.200  48.101  0.00  0.00    +0.039 C 
ATOM     26  C2  <0> A   1     -15.008  11.179  47.961  0.00  0.00    +0.051 C 
ATOM     27  C3  <0> A   1     -14.040  11.326  49.137  0.00  0.00    +0.040 C 
ENDBRANCH   1  26
BRANCH   2  28
ATOM     28  C19 <0> A   1     -14.026   9.146  46.108  0.00  0.00    +0.018 C 
ATOM     29  C20 <0> A   1     -14.305   9.807  44.992  0.00  0.00    -0.043 C 
BRANCH  29  30
ATOM     30  C21 <0> A   1     -13.204  10.136  44.016  0.00  0.00    +0.253 C 
BRANCH  30  31
ATOM     31  O6  <0> A   1     -12.125   9.215  44.187  0.00  0.00    -0.539 OA
ATOM     32  H26 <0> A   1     -11.902   8.718  43.387  0.00  0.00    +0.364 HD
ENDBRANCH  30  31
BRANCH  30  33
ATOM     33  C22 <0> A   1     -13.741  10.033  42.587  0.00  0.00    -0.041 C 
BRANCH  33  34
ATOM     34  C23 <0> A   1     -13.034  11.059  41.701  0.00  0.00    +0.231 C 
BRANCH  34  35
ATOM     35  O5  <0> A   1     -11.708  10.608  41.415  0.00  0.00    -0.528 OA
ATOM     36  H25 <0> A   1     -11.015  11.220  41.698  0.00  0.00    +0.349 HD
ENDBRANCH  34  35
BRANCH  34  37
ATOM     37  C24 <0> A   1     -13.809  11.223  40.392  0.00  0.00    -0.102 C 
BRANCH  37  38
ATOM     38  C25 <0> A   1     -12.859  11.107  39.227  0.00  0.00    +0.491 C 
ATOM     39  O3  <0> A   1     -12.574  10.010  38.780  0.00  0.00    -0.681 OA
ATOM     40  O4  <0> A   1     -12.375  12.111  38.733  0.00  0.00    -0.716 OA
ENDBRANCH  37  38
ENDBRANCH  34  37
ENDBRANCH  33  34
ENDBRANCH  30  33
ENDBRANCH  29  30
ENDBRANCH   2  28
TORSDOF 12
ENDMDL
MODEL 7
REMARK VINA RESULT:      -7.6     15.243     18.958
REMARK  Name = CHEMBL468632
REMARK  15 active torsions:
REMARK  status: ('A' for Active; 'I' for Inactive)
REMARK    1  A    between atoms: C1_1  and  C2_2
REMARK    2  A    between atoms: C2_2  and  C3_3
REMARK    3  A    between atoms: C2_2  and  C4_4
REMARK    4  A    between atoms: C5_5  and  C19_27
REMARK    5  A    between atoms: C6_6  and  C13_20
REMARK    6  A    between atoms: N3_10  and  C8_11
REMARK    7  A    between atoms: C10_13  and  C12_17
REMARK    8  A    between atoms: N5_15  and  C11_16
REMARK    9  A    between atoms: C20_28  and  C21_29
REMARK   10  A    between atoms: C21_29  and  C22_31
REMARK   11  A    between atoms: C21_29  and  O6_39
REMARK   12  A    between atoms: C22_31  and  C23_32
REMARK   13  A    between atoms: C23_32  and  C24_34
REMARK   14  A    between atoms: C23_32  and  O5_38
REMARK   15  A    between atoms: C24_34  and  C25_35
REMARK                            x       y       z     vdW  Elec       q    Type
REMARK                         _______ _______ _______ _____ _____    ______ ____
ROOT
ATOM      1  C4  <0> A   1     -26.877  -3.164  52.090  0.00  0.00    +0.234 A 
ATOM      2  C5  <0> A   1     -25.972  -4.130  51.638  0.00  0.00    -0.198 A 
ATOM      3  C6  <0> A   1     -26.379  -5.480  51.651  0.00  0.00    +0.272 A 
ATOM      4  N1  <0> A   1     -27.599  -5.777  52.089  0.00  0.00    -0.532 NA
ATOM      5  C7  <0> A   1     -28.419  -4.826  52.507  0.00  0.00    +0.573 A 
ATOM      6  N2  <0> A   1     -28.068  -3.548  52.513  0.00  0.00    -0.561 NA
ATOM      7  N3  <0> A   1     -29.681  -5.177  52.955  0.00  0.00    -0.606 N 
ATOM      8  H10 <0> A   1     -30.294  -4.492  53.265  0.00  0.00    +0.415 HD
ENDROOT
BRANCH   3   9
ATOM      9  C13 <0> A   1     -25.465  -6.548  51.185  0.00  0.00    -0.078 A 
ATOM     10  C14 <0> A   1     -25.420  -6.888  49.832  0.00  0.00    +0.090 A 
ATOM     11  C15 <0> A   1     -24.567  -7.883  49.402  0.00  0.00    -0.026 A 
ATOM     12  C16 <0> A   1     -23.756  -8.545  50.311  0.00  0.00    +0.117 A 
ATOM     13  C17 <0> A   1     -23.798  -8.210  51.655  0.00  0.00    -0.009 A 
ATOM     14  C18 <0> A   1     -24.643  -7.213  52.094  0.00  0.00    +0.112 A 
ATOM     15  F1  <0> A   1     -22.922  -9.519  49.885  0.00  0.00    -0.139 F 
ENDBRANCH   3   9
BRANCH   7  16
ATOM     16  C8  <0> A   1     -30.071  -6.515  52.962  0.00  0.00    +0.211 C 
ATOM     17  C9  <0> A   1     -29.977  -7.381  54.010  0.00  0.00    -0.010 C 
ATOM     18  C10 <0> A   1     -30.495  -8.608  53.532  0.00  0.00    +0.004 C 
ATOM     19  N4  <0> A   1     -30.856  -8.417  52.278  0.00  0.00    -0.268 NA
ATOM     20  N5  <0> A   1     -30.622  -7.203  51.928  0.00  0.00    -0.328 N 
ATOM     21  C11 <0> A   1     -30.904  -6.644  50.603  0.00  0.00    +0.335 C 
BRANCH  18  22
ATOM     22  C12 <0> A   1     -30.612  -9.865  54.294  0.00  0.00    +0.562 C 
ATOM     23  O1  <0> A   1     -29.927 -10.039  55.293  0.00  0.00    -0.676 OA
ATOM     24  O2  <0> A   1     -31.392 -10.732  53.928  0.00  0.00    -0.681 OA
ENDBRANCH  18  22
ENDBRANCH   7  16
BRANCH   1  26
ATOM     25  C1  <0> A   1     -27.490  -0.913  51.249  0.00  0.00    +0.039 C 
ATOM     26  C2  <0> A   1     -26.495  -1.706  52.098  0.00  0.00    +0.051 C 
ATOM     27  C3  <0> A   1     -26.520  -1.181  53.535  0.00  0.00    +0.040 C 
ENDBRANCH   1  26
BRANCH   2  28
ATOM     28  C19 <0> A   1     -24.629  -3.747  51.161  0.00  0.00    +0.018 C 
ATOM     29  C20 <0> A   1     -23.649  -3.545  52.031  0.00  0.00    -0.043 C 
BRANCH  29  30
ATOM     30  C21 <0> A   1     -22.276  -3.154  51.544  0.00  0.00    +0.253 C 
BRANCH  30  31
ATOM     31  O6  <0> A   1     -22.341  -2.824  50.155  0.00  0.00    -0.539 OA
ATOM     32  H26 <0> A   1     -22.290  -3.590  49.566  0.00  0.00    +0.364 HD
ENDBRANCH  30  31
BRANCH  30  33
ATOM     33  C22 <0> A   1     -21.781  -1.941  52.334  0.00  0.00    -0.041 C 
BRANCH  33  34
ATOM     34  C23 <0> A   1     -22.941  -0.971  52.559  0.00  0.00    +0.231 C 
BRANCH  34  35
ATOM     35  O5  <0> A   1     -22.962  -0.563  53.928  0.00  0.00    -0.528 OA
ATOM     36  H25 <0> A   1     -22.467  -1.146  54.520  0.00  0.00    +0.349 HD
ENDBRANCH  34  35
BRANCH  34  37
ATOM     37  C24 <0> A   1     -22.760   0.257  51.664  0.00  0.00    -0.102 C 
BRANCH  37  38
ATOM     38  C25 <0> A   1     -23.965   0.412  50.773  0.00  0.00    +0.491 C 
ATOM     39  O3  <0> A   1     -24.755   1.320  50.968  0.00  0.00    -0.681 OA
ATOM     40  O4  <0> A   1     -24.152  -0.371  49.857  0.00  0.00    -0.716 OA
ENDBRANCH  37  38
ENDBRANCH  34  37
ENDBRANCH  33  34
ENDBRANCH  30  33
ENDBRANCH  29  30
ENDBRANCH   2  28
TORSDOF 12
ENDMDL
MODEL 8
REMARK VINA RESULT:      -7.6      1.615      2.651
REMARK  Name = CHEMBL468632
REMARK  15 active torsions:
REMARK  status: ('A' for Active; 'I' for Inactive)
REMARK    1  A    between atoms: C1_1  and  C2_2
REMARK    2  A    between atoms: C2_2  and  C3_3
REMARK    3  A    between atoms: C2_2  and  C4_4
REMARK    4  A    between atoms: C5_5  and  C19_27
REMARK    5  A    between atoms: C6_6  and  C13_20
REMARK    6  A    between atoms: N3_10  and  C8_11
REMARK    7  A    between atoms: C10_13  and  C12_17
REMARK    8  A    between atoms: N5_15  and  C11_16
REMARK    9  A    between atoms: C20_28  and  C21_29
REMARK   10  A    between atoms: C21_29  and  C22_31
REMARK   11  A    between atoms: C21_29  and  O6_39
REMARK   12  A    between atoms: C22_31  and  C23_32
REMARK   13  A    between atoms: C23_32  and  C24_34
REMARK   14  A    between atoms: C23_32  and  O5_38
REMARK   15  A    between atoms: C24_34  and  C25_35
REMARK                            x       y       z     vdW  Elec       q    Type
REMARK                         _______ _______ _______ _____ _____    ______ ____
ROOT
ATOM      1  C4  <0> A   1     -15.871   6.051  46.136  0.00  0.00    +0.234 A 
ATOM      2  C5  <0> A   1     -15.456   7.370  46.337  0.00  0.00    -0.198 A 
ATOM      3  C6  <0> A   1     -16.100   8.126  47.339  0.00  0.00    +0.272 A 
ATOM      4  N1  <0> A   1     -17.070   7.554  48.047  0.00  0.00    -0.532 NA
ATOM      5  C7  <0> A   1     -17.427   6.301  47.818  0.00  0.00    +0.573 A 
ATOM      6  N2  <0> A   1     -16.846   5.564  46.882  0.00  0.00    -0.561 NA
ATOM      7  N3  <0> A   1     -18.441   5.743  48.579  0.00  0.00    -0.606 N 
ATOM      8  H10 <0> A   1     -18.715   4.825  48.423  0.00  0.00    +0.415 HD
ENDROOT
BRANCH   3   9
ATOM      9  C13 <0> A   1     -15.704   9.529  47.598  0.00  0.00    -0.078 A 
ATOM     10  C14 <0> A   1     -16.276  10.565  46.860  0.00  0.00    +0.090 A 
ATOM     11  C15 <0> A   1     -15.903  11.870  47.104  0.00  0.00    -0.026 A 
ATOM     12  C16 <0> A   1     -14.961  12.153  48.081  0.00  0.00    +0.117 A 
ATOM     13  C17 <0> A   1     -14.390  11.126  48.816  0.00  0.00    -0.009 A 
ATOM     14  C18 <0> A   1     -14.760   9.819  48.583  0.00  0.00    +0.112 A 
ATOM     15  F1  <0> A   1     -14.599  13.433  48.317  0.00  0.00    -0.139 F 
ENDBRANCH   3   9
BRANCH   7  16
ATOM     16  C8  <0> A   1     -19.070   6.499  49.565  0.00  0.00    +0.211 C 
ATOM     17  C9  <0> A   1     -20.079   7.395  49.380  0.00  0.00    -0.010 C 
ATOM     18  C10 <0> A   1     -20.376   7.901  50.668  0.00  0.00    +0.004 C 
ATOM     19  N4  <0> A   1     -19.561   7.304  51.518  0.00  0.00    -0.268 NA
ATOM     20  N5  <0> A   1     -18.796   6.481  50.897  0.00  0.00    -0.328 N 
ATOM     21  C11 <0> A   1     -17.772   5.646  51.531  0.00  0.00    +0.335 C 
BRANCH  18  22
ATOM     22  C12 <0> A   1     -21.404   8.904  50.999  0.00  0.00    +0.562 C 
ATOM     23  O1  <0> A   1     -21.528   9.294  52.152  0.00  0.00    -0.676 OA
ATOM     24  O2  <0> A   1     -22.132   9.346  50.121  0.00  0.00    -0.681 OA
ENDBRANCH  18  22
ENDBRANCH   7  16
BRANCH   1  26
ATOM     25  C1  <0> A   1     -14.325   4.150  45.748  0.00  0.00    +0.039 C 
ATOM     26  C2  <0> A   1     -15.218   5.198  45.079  0.00  0.00    +0.051 C 
ATOM     27  C3  <0> A   1     -16.296   4.495  44.252  0.00  0.00    +0.040 C 
ENDBRANCH   1  26
BRANCH   2  28
ATOM     28  C19 <0> A   1     -14.373   7.958  45.524  0.00  0.00    +0.018 C 
ATOM     29  C20 <0> A   1     -13.107   7.784  45.880  0.00  0.00    -0.043 C 
BRANCH  29  30
ATOM     30  C21 <0> A   1     -12.001   8.384  45.050  0.00  0.00    +0.253 C 
BRANCH  30  31
ATOM     31  O6  <0> A   1     -11.149   7.342  44.569  0.00  0.00    -0.539 OA
ATOM     32  H26 <0> A   1     -11.525   6.831  43.839  0.00  0.00    +0.364 HD
ENDBRANCH  30  31
BRANCH  30  33
ATOM     33  C22 <0> A   1     -12.604   9.136  43.863  0.00  0.00    -0.041 C 
BRANCH  33  34
ATOM     34  C23 <0> A   1     -12.164  10.600  43.910  0.00  0.00    +0.231 C 
BRANCH  34  35
ATOM     35  O5  <0> A   1     -12.434  11.220  42.651  0.00  0.00    -0.528 OA
ATOM     36  H25 <0> A   1     -12.187  10.681  41.886  0.00  0.00    +0.349 HD
ENDBRANCH  34  35
BRANCH  34  37
ATOM     37  C24 <0> A   1     -12.935  11.329  45.012  0.00  0.00    -0.102 C 
BRANCH  37  38
ATOM     38  C25 <0> A   1     -11.961  12.006  45.943  0.00  0.00    +0.491 C 
ATOM     39  O3  <0> A   1     -11.523  11.406  46.908  0.00  0.00    -0.681 OA
ATOM     40  O4  <0> A   1     -11.613  13.156  45.730  0.00  0.00    -0.716 OA
ENDBRANCH  37  38
ENDBRANCH  34  37
ENDBRANCH  33  34
ENDBRANCH  30  33
ENDBRANCH  29  30
ENDBRANCH   2  28
TORSDOF 12
ENDMDL
MODEL 9
REMARK VINA RESULT:      -7.5     10.706     15.338
REMARK  Name = CHEMBL468632
REMARK  15 active torsions:
REMARK  status: ('A' for Active; 'I' for Inactive)
REMARK    1  A    between atoms: C1_1  and  C2_2
REMARK    2  A    between atoms: C2_2  and  C3_3
REMARK    3  A    between atoms: C2_2  and  C4_4
REMARK    4  A    between atoms: C5_5  and  C19_27
REMARK    5  A    between atoms: C6_6  and  C13_20
REMARK    6  A    between atoms: N3_10  and  C8_11
REMARK    7  A    between atoms: C10_13  and  C12_17
REMARK    8  A    between atoms: N5_15  and  C11_16
REMARK    9  A    between atoms: C20_28  and  C21_29
REMARK   10  A    between atoms: C21_29  and  C22_31
REMARK   11  A    between atoms: C21_29  and  O6_39
REMARK   12  A    between atoms: C22_31  and  C23_32
REMARK   13  A    between atoms: C23_32  and  C24_34
REMARK   14  A    between atoms: C23_32  and  O5_38
REMARK   15  A    between atoms: C24_34  and  C25_35
REMARK                            x       y       z     vdW  Elec       q    Type
REMARK                         _______ _______ _______ _____ _____    ______ ____
ROOT
ATOM      1  C4  <0> A   1     -21.933  -1.396  52.974  0.00  0.00    +0.234 A 
ATOM      2  C5  <0> A   1     -23.221  -1.134  52.499  0.00  0.00    -0.198 A 
ATOM      3  C6  <0> A   1     -23.492   0.151  51.984  0.00  0.00    +0.272 A 
ATOM      4  N1  <0> A   1     -22.516   1.054  51.971  0.00  0.00    -0.532 NA
ATOM      5  C7  <0> A   1     -21.312   0.758  52.433  0.00  0.00    +0.573 A 
ATOM      6  N2  <0> A   1     -21.024  -0.438  52.929  0.00  0.00    -0.561 NA
ATOM      7  N3  <0> A   1     -20.324   1.727  52.401  0.00  0.00    -0.606 N 
ATOM      8  H10 <0> A   1     -19.436   1.526  52.736  0.00  0.00    +0.415 HD
ENDROOT
BRANCH   3   9
ATOM      9  C13 <0> A   1     -24.838   0.487  51.465  0.00  0.00    -0.078 A 
ATOM     10  C14 <0> A   1     -25.329  -0.154  50.328  0.00  0.00    +0.090 A 
ATOM     11  C15 <0> A   1     -26.583   0.163  49.848  0.00  0.00    -0.026 A 
ATOM     12  C16 <0> A   1     -27.355   1.116  50.495  0.00  0.00    +0.117 A 
ATOM     13  C17 <0> A   1     -26.870   1.755  51.625  0.00  0.00    -0.009 A 
ATOM     14  C18 <0> A   1     -25.620   1.441  52.115  0.00  0.00    +0.112 A 
ATOM     15  F1  <0> A   1     -28.582   1.422  50.022  0.00  0.00    -0.139 F 
ENDBRANCH   3   9
BRANCH   7  16
ATOM     16  C8  <0> A   1     -20.604   2.992  51.889  0.00  0.00    +0.211 C 
ATOM     17  C9  <0> A   1     -20.373   3.421  50.617  0.00  0.00    -0.010 C 
ATOM     18  C10 <0> A   1     -20.822   4.763  50.584  0.00  0.00    +0.004 C 
ATOM     19  N4  <0> A   1     -21.278   5.050  51.788  0.00  0.00    -0.268 NA
ATOM     20  N5  <0> A   1     -21.165   4.031  52.562  0.00  0.00    -0.328 N 
ATOM     21  C11 <0> A   1     -21.577   3.995  53.967  0.00  0.00    +0.335 C 
BRANCH  18  22
ATOM     22  C12 <0> A   1     -20.788   5.669  49.422  0.00  0.00    +0.562 C 
ATOM     23  O1  <0> A   1     -20.962   5.225  48.295  0.00  0.00    -0.676 OA
ATOM     24  O2  <0> A   1     -20.583   6.864  49.584  0.00  0.00    -0.681 OA
ENDBRANCH  18  22
ENDBRANCH   7  16
BRANCH   1  26
ATOM     25  C1  <0> A   1     -20.413  -3.343  52.754  0.00  0.00    +0.039 C 
ATOM     26  C2  <0> A   1     -21.587  -2.751  53.536  0.00  0.00    +0.051 C 
ATOM     27  C3  <0> A   1     -21.199  -2.608  55.009  0.00  0.00    +0.040 C 
ENDBRANCH   1  26
BRANCH   2  28
ATOM     28  C19 <0> A   1     -24.269  -2.173  52.535  0.00  0.00    +0.018 C 
ATOM     29  C20 <0> A   1     -24.306  -3.110  51.596  0.00  0.00    -0.043 C 
BRANCH  29  30
ATOM     30  C21 <0> A   1     -25.376  -4.171  51.633  0.00  0.00    +0.253 C 
BRANCH  30  31
ATOM     31  O6  <0> A   1     -26.083  -4.177  50.390  0.00  0.00    -0.539 OA
ATOM     32  H26 <0> A   1     -27.015  -3.931  50.467  0.00  0.00    +0.364 HD
ENDBRANCH  30  31
BRANCH  30  33
ATOM     33  C22 <0> A   1     -24.731  -5.540  51.858  0.00  0.00    -0.041 C 
BRANCH  33  34
ATOM     34  C23 <0> A   1     -25.058  -6.458  50.680  0.00  0.00    +0.231 C 
BRANCH  34  35
ATOM     35  O5  <0> A   1     -24.013  -6.379  49.709  0.00  0.00    -0.528 OA
ATOM     36  H25 <0> A   1     -23.178  -6.773  49.997  0.00  0.00    +0.349 HD
ENDBRANCH  34  35
BRANCH  34  37
ATOM     37  C24 <0> A   1     -25.184  -7.900  51.176  0.00  0.00    -0.102 C 
BRANCH  37  38
ATOM     38  C25 <0> A   1     -23.883  -8.625  50.947  0.00  0.00    +0.491 C 
ATOM     39  O3  <0> A   1     -23.009  -8.592  51.797  0.00  0.00    -0.681 OA
ATOM     40  O4  <0> A   1     -23.703  -9.244  49.912  0.00  0.00    -0.716 OA
ENDBRANCH  37  38
ENDBRANCH  34  37
ENDBRANCH  33  34
ENDBRANCH  30  33
ENDBRANCH  29  30
ENDBRANCH   2  28
TORSDOF 12
ENDMDL
MODEL 10
REMARK VINA RESULT:      -7.4     15.189     18.549
REMARK  Name = CHEMBL468632
REMARK  15 active torsions:
REMARK  status: ('A' for Active; 'I' for Inactive)
REMARK    1  A    between atoms: C1_1  and  C2_2
REMARK    2  A    between atoms: C2_2  and  C3_3
REMARK    3  A    between atoms: C2_2  and  C4_4
REMARK    4  A    between atoms: C5_5  and  C19_27
REMARK    5  A    between atoms: C6_6  and  C13_20
REMARK    6  A    between atoms: N3_10  and  C8_11
REMARK    7  A    between atoms: C10_13  and  C12_17
REMARK    8  A    between atoms: N5_15  and  C11_16
REMARK    9  A    between atoms: C20_28  and  C21_29
REMARK   10  A    between atoms: C21_29  and  C22_31
REMARK   11  A    between atoms: C21_29  and  O6_39
REMARK   12  A    between atoms: C22_31  and  C23_32
REMARK   13  A    between atoms: C23_32  and  C24_34
REMARK   14  A    between atoms: C23_32  and  O5_38
REMARK   15  A    between atoms: C24_34  and  C25_35
REMARK                            x       y       z     vdW  Elec       q    Type
REMARK                         _______ _______ _______ _____ _____    ______ ____
ROOT
ATOM      1  C4  <0> A   1     -25.733  -2.397  51.050  0.00  0.00    +0.234 A 
ATOM      2  C5  <0> A   1     -25.046  -3.614  51.003  0.00  0.00    -0.198 A 
ATOM      3  C6  <0> A   1     -25.794  -4.793  50.807  0.00  0.00    +0.272 A 
ATOM      4  N1  <0> A   1     -27.114  -4.699  50.675  0.00  0.00    -0.532 NA
ATOM      5  C7  <0> A   1     -27.718  -3.523  50.727  0.00  0.00    +0.573 A 
ATOM      6  N2  <0> A   1     -27.047  -2.395  50.915  0.00  0.00    -0.561 NA
ATOM      7  N3  <0> A   1     -29.095  -3.468  50.585  0.00  0.00    -0.606 N 
ATOM      8  H10 <0> A   1     -29.553  -2.614  50.621  0.00  0.00    +0.415 HD
ENDROOT
BRANCH   3   9
ATOM      9  C13 <0> A   1     -25.122  -6.111  50.748  0.00  0.00    -0.078 A 
ATOM     10  C14 <0> A   1     -24.738  -6.754  51.926  0.00  0.00    +0.090 A 
ATOM     11  C15 <0> A   1     -24.112  -7.981  51.866  0.00  0.00    -0.026 A 
ATOM     12  C16 <0> A   1     -23.864  -8.576  50.639  0.00  0.00    +0.117 A 
ATOM     13  C17 <0> A   1     -24.244  -7.941  49.467  0.00  0.00    -0.009 A 
ATOM     14  C18 <0> A   1     -24.876  -6.717  49.516  0.00  0.00    +0.112 A 
ATOM     15  F1  <0> A   1     -23.251  -9.779  50.586  0.00  0.00    -0.139 F 
ENDBRANCH   3   9
BRANCH   7  16
ATOM     16  C8  <0> A   1     -29.822  -4.641  50.392  0.00  0.00    +0.211 C 
ATOM     17  C9  <0> A   1     -30.180  -5.185  49.195  0.00  0.00    -0.010 C 
ATOM     18  C10 <0> A   1     -30.901  -6.360  49.515  0.00  0.00    +0.004 C 
ATOM     19  N4  <0> A   1     -30.932  -6.451  50.831  0.00  0.00    -0.268 NA
ATOM     20  N5  <0> A   1     -30.306  -5.462  51.361  0.00  0.00    -0.328 N 
ATOM     21  C11 <0> A   1     -30.141  -5.248  52.801  0.00  0.00    +0.335 C 
BRANCH  18  22
ATOM     22  C12 <0> A   1     -31.501  -7.306  48.558  0.00  0.00    +0.562 C 
ATOM     23  O1  <0> A   1     -32.346  -6.918  47.763  0.00  0.00    -0.676 OA
ATOM     24  O2  <0> A   1     -31.157  -8.480  48.560  0.00  0.00    -0.681 OA
ENDBRANCH  18  22
ENDBRANCH   7  16
BRANCH   1  26
ATOM     25  C1  <0> A   1     -25.509  -0.049  50.283  0.00  0.00    +0.039 C 
ATOM     26  C2  <0> A   1     -24.984  -1.105  51.257  0.00  0.00    +0.051 C 
ATOM     27  C3  <0> A   1     -25.190  -0.621  52.694  0.00  0.00    +0.040 C 
ENDBRANCH   1  26
BRANCH   2  28
ATOM     28  C19 <0> A   1     -23.578  -3.663  51.154  0.00  0.00    +0.018 C 
ATOM     29  C20 <0> A   1     -23.030  -3.523  52.354  0.00  0.00    -0.043 C 
BRANCH  29  30
ATOM     30  C21 <0> A   1     -21.531  -3.573  52.509  0.00  0.00    +0.253 C 
BRANCH  30  31
ATOM     31  O6  <0> A   1     -20.914  -3.359  51.237  0.00  0.00    -0.539 OA
ATOM     32  H26 <0> A   1     -19.981  -3.110  51.290  0.00  0.00    +0.364 HD
ENDBRANCH  30  31
BRANCH  30  33
ATOM     33  C22 <0> A   1     -21.082  -2.483  53.483  0.00  0.00    -0.041 C 
BRANCH  33  34
ATOM     34  C23 <0> A   1     -20.103  -3.078  54.497  0.00  0.00    +0.231 C 
BRANCH  34  35
ATOM     35  O5  <0> A   1     -20.579  -4.355  54.926  0.00  0.00    -0.528 OA
ATOM     36  H25 <0> A   1     -20.417  -5.068  54.292  0.00  0.00    +0.349 HD
ENDBRANCH  34  35
BRANCH  34  37
ATOM     37  C24 <0> A   1     -18.729  -3.238  53.845  0.00  0.00    -0.102 C 
BRANCH  37  38
ATOM     38  C25 <0> A   1     -18.204  -4.626  54.114  0.00  0.00    +0.491 C 
ATOM     39  O3  <0> A   1     -18.444  -5.530  53.332  0.00  0.00    -0.681 OA
ATOM     40  O4  <0> A   1     -17.540  -4.844  55.113  0.00  0.00    -0.716 OA
ENDBRANCH  37  38
ENDBRANCH  34  37
ENDBRANCH  33  34
ENDBRANCH  30  33
ENDBRANCH  29  30
ENDBRANCH   2  28
TORSDOF 12
ENDMDL
