REMARK VINA RESULT:      -7.5      3.023      6.396
REMARK  Name = CHEMBL353734
REMARK  10 active torsions:
REMARK  status: ('A' for Active; 'I' for Inactive)
REMARK    1  A    between atoms: C1_1  and  C2_2
REMARK    2  A    between atoms: C4_5  and  O4_28
REMARK    3  A    between atoms: C6_8  and  C13_17
REMARK    4  A    between atoms: C7_10  and  C12_16
REMARK    5  A    between atoms: C13_17  and  C14_18
REMARK    6  A    between atoms: C14_18  and  C15_19
REMARK    7  A    between atoms: C17_21  and  O3_27
REMARK    8  A    between atoms: O4_28  and  C20_29
REMARK    9  A    between atoms: C20_29  and  C21_31
REMARK   10  A    between atoms: C21_31  and  C22_32
REMARK                            x       y       z     vdW  Elec       q    Type
REMARK                         _______ _______ _______ _____ _____    ______ ____
ROOT
ATOM      1  C1  <0> A   1     -23.532  -2.633  50.821  0.00  0.00    +0.033 C 
ATOM      2  C2  <0> A   1     -24.254  -3.712  51.632  0.00  0.00    +0.025 C 
ATOM      3  C3  <0> A   1     -24.304  -5.019  50.829  0.00  0.00    +0.020 C 
ATOM      4  C4  <0> A   1     -25.007  -6.077  51.677  0.00  0.00    +0.176 C 
ATOM      5  C5  <0> A   1     -26.408  -5.657  52.055  0.00  0.00    +0.040 C 
ATOM      6  C6  <0> A   1     -27.462  -6.295  51.147  0.00  0.00    +0.013 C 
ATOM      7  C7  <0> A   1     -28.847  -6.014  51.730  0.00  0.00    +0.022 C 
ATOM      8  C8  <0> A   1     -29.029  -4.561  52.050  0.00  0.00    -0.032 C 
ATOM      9  C9  <0> A   1     -28.032  -3.709  52.213  0.00  0.00    -0.006 C 
ATOM     10  C10 <0> A   1     -26.634  -4.174  52.063  0.00  0.00    -0.086 C 
ATOM     11  C11 <0> A   1     -25.674  -3.283  51.901  0.00  0.00    -0.022 C 
ATOM     12  C12 <0> A   1     -29.026  -6.833  53.010  0.00  0.00    +0.029 C 
ENDROOT
BRANCH   6  13
ATOM     13  C13 <0> A   1     -27.228  -7.805  51.073  0.00  0.00    +0.057 C 
BRANCH  13  14
ATOM     14  C14 <0> A   1     -27.819  -8.350  49.771  0.00  0.00    +0.040 C 
BRANCH  14  15
ATOM     15  C15 <0> A   1     -28.727  -9.540  50.081  0.00  0.00    +0.194 C 
ATOM     16  C16 <0> A   1     -30.183  -9.070  50.148  0.00  0.00    +0.039 C 
ATOM     17  C17 <0> A   1     -31.085 -10.258  50.500  0.00  0.00    +0.183 C 
ATOM     18  C18 <0> A   1     -30.647 -10.828  51.856  0.00  0.00    +0.018 C 
ATOM     19  C19 <0> A   1     -29.158 -11.091  51.802  0.00  0.00    +0.495 C 
ATOM     20  O1  <0> A   1     -28.701 -12.150  52.161  0.00  0.00    -0.453 OA
ATOM     21  O2  <0> A   1     -28.355 -10.110  51.341  0.00  0.00    -0.366 OA
BRANCH  17  22
ATOM     22  O3  <0> A   1     -30.964 -11.266  49.493  0.00  0.00    -0.563 OA
ATOM     23  H27 <0> A   1     -31.791 -11.731  49.303  0.00  0.00    +0.386 HD
ENDBRANCH  17  22
ENDBRANCH  14  15
ENDBRANCH  13  14
ENDBRANCH   6  13
BRANCH   4  24
ATOM     24  O4  <0> A   1     -25.074  -7.298  50.937  0.00  0.00    -0.321 OA
BRANCH  24  25
ATOM     25  C20 <0> A   1     -23.981  -8.077  50.948  0.00  0.00    +0.449 C 
ATOM     26  O5  <0> A   1     -23.291  -8.137  51.938  0.00  0.00    -0.493 OA
BRANCH  25  27
ATOM     27  C21 <0> A   1     -23.615  -8.879  49.725  0.00  0.00    +0.150 C 
BRANCH  27  28
ATOM     28  C22 <0> A   1     -24.028 -10.314  49.923  0.00  0.00    -0.080 A 
ATOM     29  C23 <0> A   1     -24.755 -10.676  51.041  0.00  0.00    +0.017 A 
ATOM     30  C24 <0> A   1     -25.134 -11.994  51.222  0.00  0.00    +0.002 A 
ATOM     31  C25 <0> A   1     -24.787 -12.948  50.284  0.00  0.00    +0.007 A 
ATOM     32  C26 <0> A   1     -24.061 -12.584  49.165  0.00  0.00    +0.005 A 
ATOM     33  C27 <0> A   1     -23.685 -11.267  48.982  0.00  0.00    +0.024 A 
ENDBRANCH  27  28
ENDBRANCH  25  27
ENDBRANCH  24  25
ENDBRANCH   4  24
TORSDOF 8
