REMARK VINA RESULT:      -7.9      3.743      7.100
REMARK  Name = CHEMBL317142
REMARK  15 active torsions:
REMARK  status: ('A' for Active; 'I' for Inactive)
REMARK    1  A    between atoms: C1_1  and  C2_2
REMARK    2  A    between atoms: C2_2  and  C3_3
REMARK    3  A    between atoms: C2_2  and  C4_4
REMARK    4  A    between atoms: C12_12  and  C20_26
REMARK    5  A    between atoms: C13_13  and  O1_14
REMARK    6  A    between atoms: O1_14  and  C14_15
REMARK    7  A    between atoms: C14_15  and  C15_16
REMARK    8  A    between atoms: C15_16  and  C16_17
REMARK    9  A    between atoms: C15_16  and  O5_25
REMARK   10  A    between atoms: C16_17  and  C17_18
REMARK   11  A    between atoms: C17_18  and  C18_20
REMARK   12  A    between atoms: C17_18  and  O4_24
REMARK   13  A    between atoms: C18_20  and  C19_21
REMARK   14  A    between atoms: C20_26  and  C21_27
REMARK   15  A    between atoms: C20_26  and  C27_34
REMARK                            x       y       z     vdW  Elec       q    Type
REMARK                         _______ _______ _______ _____ _____    ______ ____
ROOT
ATOM      1  C4  <0> A   1     -12.541   9.814  47.532  0.00  0.00    -0.077 A 
ATOM      2  C5  <0> A   1     -13.775  10.485  47.504  0.00  0.00    -0.031 A 
ATOM      3  C6  <0> A   1     -14.095  11.463  48.462  0.00  0.00    +0.028 A 
ATOM      4  C7  <0> A   1     -15.300  12.093  48.404  0.00  0.00    +0.004 A 
ATOM      5  C8  <0> A   1     -16.224  11.783  47.407  0.00  0.00    +0.004 A 
ATOM      6  C9  <0> A   1     -15.948  10.843  46.463  0.00  0.00    +0.022 A 
ATOM      7  C10 <0> A   1     -14.714  10.171  46.491  0.00  0.00    -0.053 A 
ATOM      8  C11 <0> A   1     -14.395   9.194  45.531  0.00  0.00    +0.040 A 
ATOM      9  C12 <0> A   1     -13.192   8.562  45.586  0.00  0.00    -0.082 A 
ATOM     10  C13 <0> A   1     -12.261   8.874  46.582  0.00  0.00    +0.109 A 
ENDROOT
BRANCH   1  12
ATOM     11  C1  <0> A   1     -11.152  11.616  48.520  0.00  0.00    +0.029 C 
ATOM     12  C2  <0> A   1     -11.528  10.135  48.602  0.00  0.00    +0.037 C 
ATOM     13  C3  <0> A   1     -12.128   9.837  49.977  0.00  0.00    +0.024 C 
ENDBRANCH   1  12
BRANCH  10  14
ATOM     14  O1  <0> A   1     -11.065   8.231  46.608  0.00  0.00    -0.317 OA
BRANCH  14  15
ATOM     15  C14 <0> A   1     -10.992   7.027  47.374  0.00  0.00    +0.147 C 
BRANCH  15  16
ATOM     16  C15 <0> A   1      -9.664   6.322  47.091  0.00  0.00    +0.225 C 
BRANCH  16  17
ATOM     17  O5  <0> A   1      -9.884   4.913  46.998  0.00  0.00    -0.530 OA
ATOM     18  H22 <0> A   1      -9.785   4.557  46.105  0.00  0.00    +0.363 HD
ENDBRANCH  16  17
BRANCH  16  19
ATOM     19  C16 <0> A   1      -9.084   6.836  45.771  0.00  0.00    -0.043 C 
BRANCH  19  20
ATOM     20  C17 <0> A   1      -7.595   6.493  45.702  0.00  0.00    +0.235 C 
BRANCH  20  21
ATOM     21  O4  <0> A   1      -7.206   5.811  46.896  0.00  0.00    -0.527 OA
ATOM     22  H21 <0> A   1      -7.566   4.917  46.973  0.00  0.00    +0.350 HD
ENDBRANCH  20  21
BRANCH  20  23
ATOM     23  C18 <0> A   1      -7.334   5.592  44.492  0.00  0.00    -0.101 C 
BRANCH  23  24
ATOM     24  C19 <0> A   1      -6.891   4.232  44.966  0.00  0.00    +0.491 C 
ATOM     25  O2  <0> A   1      -5.729   3.890  44.836  0.00  0.00    -0.680 OA
ATOM     26  O3  <0> A   1      -7.696   3.473  45.479  0.00  0.00    -0.712 OA
ENDBRANCH  23  24
ENDBRANCH  20  23
ENDBRANCH  19  20
ENDBRANCH  16  19
ENDBRANCH  15  16
ENDBRANCH  14  15
ENDBRANCH  10  14
BRANCH   9  27
ATOM     27  C20 <0> A   1     -12.855   7.516  44.555  0.00  0.00    +0.144 C 
BRANCH  27  28
ATOM     28  C21 <0> A   1     -13.866   6.399  44.625  0.00  0.00    -0.087 A 
ATOM     29  C22 <0> A   1     -14.876   6.325  43.684  0.00  0.00    +0.057 A 
ATOM     30  C23 <0> A   1     -15.804   5.302  43.747  0.00  0.00    -0.014 A 
ATOM     31  C24 <0> A   1     -15.720   4.352  44.751  0.00  0.00    +0.097 A 
ATOM     32  C25 <0> A   1     -14.707   4.428  45.691  0.00  0.00    -0.016 A 
ATOM     33  C26 <0> A   1     -13.777   5.449  45.624  0.00  0.00    +0.050 A 
ATOM     34  F1  <0> A   1     -16.626   3.352  44.812  0.00  0.00    -0.141 F 
ENDBRANCH  27  28
BRANCH  27  35
ATOM     35  C27 <0> A   1     -12.883   8.135  43.182  0.00  0.00    -0.080 A 
ATOM     36  C28 <0> A   1     -12.514   7.387  42.080  0.00  0.00    +0.050 A 
ATOM     37  C29 <0> A   1     -12.539   7.953  40.820  0.00  0.00    -0.019 A 
ATOM     38  C30 <0> A   1     -12.935   9.270  40.661  0.00  0.00    +0.097 A 
ATOM     39  C31 <0> A   1     -13.304  10.019  41.766  0.00  0.00    -0.012 A 
ATOM     40  C32 <0> A   1     -13.283   9.449  43.025  0.00  0.00    +0.063 A 
ATOM     41  F2  <0> A   1     -12.960   9.825  39.429  0.00  0.00    -0.141 F 
ENDBRANCH  27  35
ENDBRANCH   9  27
TORSDOF 13
