REMARK VINA RESULT:      -7.7     13.180     17.014
REMARK  Name = CHEMBL262322
REMARK  16 active torsions:
REMARK  status: ('A' for Active; 'I' for Inactive)
REMARK    1  A    between atoms: C1_1  and  C2_2
REMARK    2  A    between atoms: C2_2  and  C3_3
REMARK    3  A    between atoms: C2_2  and  N1_4
REMARK    4  A    between atoms: C4_5  and  C26_31
REMARK    5  A    between atoms: C5_6  and  C20_24
REMARK    6  A    between atoms: C6_7  and  C15_18
REMARK    7  A    between atoms: C7_8  and  C8_9
REMARK    8  A    between atoms: N2_11  and  C9_12
REMARK    9  A    between atoms: C26_31  and  C27_32
REMARK   10  A    between atoms: C27_32  and  C28_33
REMARK   11  A    between atoms: C28_33  and  C29_35
REMARK   12  A    between atoms: C28_33  and  O5_43
REMARK   13  A    between atoms: C29_35  and  C30_36
REMARK   14  A    between atoms: C30_36  and  C31_38
REMARK   15  A    between atoms: C30_36  and  O4_42
REMARK   16  A    between atoms: C31_38  and  C32_39
REMARK                            x       y       z     vdW  Elec       q    Type
REMARK                         _______ _______ _______ _____ _____    ______ ____
ROOT
ATOM      1  N1  <0> A   1     -26.603  -2.557  51.726  0.00  0.00    -0.394 N 
ATOM      2  C4  <0> A   1     -25.409  -3.159  51.945  0.00  0.00    +0.070 C 
ATOM      3  C5  <0> A   1     -24.458  -2.201  52.140  0.00  0.00    -0.097 C 
ATOM      4  C6  <0> A   1     -25.097  -0.940  52.037  0.00  0.00    -0.059 C 
ATOM      5  C7  <0> A   1     -26.437  -1.194  51.771  0.00  0.00    -0.028 C 
ENDROOT
BRANCH   3   6
ATOM      6  C20 <0> A   1     -23.019  -2.437  52.412  0.00  0.00    +0.006 A 
ATOM      7  C21 <0> A   1     -22.518  -2.289  53.704  0.00  0.00    +0.046 A 
ATOM      8  C22 <0> A   1     -21.178  -2.510  53.952  0.00  0.00    -0.021 A 
ATOM      9  C23 <0> A   1     -20.331  -2.877  52.919  0.00  0.00    +0.094 A 
ATOM     10  C24 <0> A   1     -20.825  -3.024  51.633  0.00  0.00    -0.022 A 
ATOM     11  C25 <0> A   1     -22.165  -2.812  51.377  0.00  0.00    +0.071 A 
ATOM     12  F1  <0> A   1     -19.020  -3.091  53.167  0.00  0.00    -0.144 F 
ENDBRANCH   3   6
BRANCH   4  13
ATOM     13  C15 <0> A   1     -24.459   0.389  52.176  0.00  0.00    +0.202 A 
ATOM     14  C16 <0> A   1     -23.735   0.925  51.111  0.00  0.00    -0.046 A 
ATOM     15  C17 <0> A   1     -23.146   2.168  51.257  0.00  0.00    +0.063 A 
ATOM     16  C18 <0> A   1     -23.299   2.837  52.463  0.00  0.00    -0.047 A 
ATOM     17  C19 <0> A   1     -24.031   2.247  53.478  0.00  0.00    +0.263 A 
ATOM     18  N3  <0> A   1     -24.587   1.065  53.312  0.00  0.00    -0.460 NA
ENDBRANCH   4  13
BRANCH   5  19
ATOM     19  C8  <0> A   1     -27.485  -0.188  51.577  0.00  0.00    +0.604 C 
ATOM     20  O1  <0> A   1     -27.665   0.299  50.476  0.00  0.00    -0.496 OA
ATOM     21  N2  <0> A   1     -28.252   0.196  52.617  0.00  0.00    -0.667 N 
ATOM     22  H10 <0> A   1     -28.045  -0.114  53.512  0.00  0.00    +0.415 HD
BRANCH  21  23
ATOM     23  C9  <0> A   1     -29.345   1.041  52.406  0.00  0.00    +0.144 A 
ATOM     24  C10 <0> A   1     -30.562   0.514  51.993  0.00  0.00    +0.011 A 
ATOM     25  C11 <0> A   1     -31.641   1.351  51.785  0.00  0.00    +0.028 A 
ATOM     26  C12 <0> A   1     -31.510   2.713  51.986  0.00  0.00    -0.010 A 
ATOM     27  C13 <0> A   1     -30.299   3.241  52.397  0.00  0.00    +0.027 A 
ATOM     28  C14 <0> A   1     -29.219   2.408  52.613  0.00  0.00    -0.017 A 
ENDBRANCH  21  23
ENDBRANCH   5  19
BRANCH   1  30
ATOM     29  C1  <0> A   1     -27.951  -3.641  49.997  0.00  0.00    +0.043 C 
ATOM     30  C2  <0> A   1     -27.868  -3.251  51.475  0.00  0.00    +0.231 C 
ATOM     31  C3  <0> A   1     -27.938  -4.513  52.338  0.00  0.00    +0.047 C 
ENDBRANCH   1  30
BRANCH   2  32
ATOM     32  C26 <0> A   1     -25.171  -4.646  51.969  0.00  0.00    +0.121 C 
BRANCH  32  33
ATOM     33  C27 <0> A   1     -24.701  -5.110  50.589  0.00  0.00    -0.007 C 
BRANCH  33  34
ATOM     34  C28 <0> A   1     -25.377  -6.438  50.239  0.00  0.00    +0.213 C 
BRANCH  34  35
ATOM     35  O5  <0> A   1     -25.817  -6.405  48.880  0.00  0.00    -0.542 OA
ATOM     36  H33 <0> A   1     -25.194  -5.979  48.276  0.00  0.00    +0.363 HD
ENDBRANCH  34  35
BRANCH  34  37
ATOM     37  C29 <0> A   1     -24.380  -7.582  50.425  0.00  0.00    -0.051 C 
BRANCH  37  38
ATOM     38  C30 <0> A   1     -24.212  -8.333  49.102  0.00  0.00    +0.231 C 
BRANCH  38  39
ATOM     39  O4  <0> A   1     -23.190  -7.705  48.326  0.00  0.00    -0.528 OA
ATOM     40  H32 <0> A   1     -23.107  -6.754  48.480  0.00  0.00    +0.349 HD
ENDBRANCH  38  39
BRANCH  38  41
ATOM     41  C31 <0> A   1     -23.818  -9.784  49.386  0.00  0.00    -0.103 C 
BRANCH  41  42
ATOM     42  C32 <0> A   1     -25.046 -10.657  49.328  0.00  0.00    +0.490 C 
ATOM     43  O2  <0> A   1     -25.332 -11.238  48.296  0.00  0.00    -0.681 OA
ATOM     44  O3  <0> A   1     -25.751 -10.781  50.315  0.00  0.00    -0.713 OA
ENDBRANCH  41  42
ENDBRANCH  38  41
ENDBRANCH  37  38
ENDBRANCH  34  37
ENDBRANCH  33  34
ENDBRANCH  32  33
ENDBRANCH   2  32
TORSDOF 14
