REMARK VINA RESULT:      -8.5      0.332      1.049
REMARK  Name = CHEMBL293461
REMARK  12 active torsions:
REMARK  status: ('A' for Active; 'I' for Inactive)
REMARK    1  A    between atoms: C1_1  and  C2_2
REMARK    2  A    between atoms: C2_2  and  C3_3
REMARK    3  A    between atoms: C2_2  and  C4_4
REMARK    4  A    between atoms: C5_5  and  C17_22
REMARK    5  A    between atoms: C6_6  and  C11_15
REMARK    6  A    between atoms: C18_23  and  C19_24
REMARK    7  A    between atoms: C19_24  and  C20_25
REMARK    8  A    between atoms: C19_24  and  O4_33
REMARK    9  A    between atoms: C20_25  and  C21_26
REMARK   10  A    between atoms: C21_26  and  C22_28
REMARK   11  A    between atoms: C21_26  and  O3_32
REMARK   12  A    between atoms: C22_28  and  C23_29
REMARK                            x       y       z     vdW  Elec       q    Type
REMARK                         _______ _______ _______ _____ _____    ______ ____
ROOT
ATOM      1  C4  <0> A   1     -14.680   6.480  45.309  0.00  0.00    +0.121 C 
ATOM      2  C5  <0> A   1     -13.843   7.566  44.985  0.00  0.00    -0.163 C 
ATOM      3  C6  <0> A   1     -14.105   8.576  45.904  0.00  0.00    +0.146 C 
ATOM      4  N1  <0> A   1     -15.070   8.103  46.749  0.00  0.00    -0.321 N 
ATOM      5  N2  <0> A   1     -15.403   6.805  46.346  0.00  0.00    -0.273 NA
ATOM      6  C7  <0> A   1     -15.628   8.797  47.825  0.00  0.00    +0.324 A 
ATOM      7  C8  <0> A   1     -16.901   8.467  48.283  0.00  0.00    +0.246 A 
ATOM      8  N3  <0> A   1     -17.425   9.124  49.300  0.00  0.00    -0.415 NA
ATOM      9  C9  <0> A   1     -16.744  10.096  49.883  0.00  0.00    +0.212 A 
ATOM     10  C10 <0> A   1     -15.480  10.427  49.430  0.00  0.00    +0.265 A 
ATOM     11  N4  <0> A   1     -14.945   9.768  48.417  0.00  0.00    -0.447 NA
ENDROOT
BRANCH   3  12
ATOM     12  C11 <0> A   1     -13.464   9.905  45.958  0.00  0.00    -0.035 A 
ATOM     13  C12 <0> A   1     -12.257  10.074  46.641  0.00  0.00    +0.091 A 
ATOM     14  C13 <0> A   1     -11.663  11.317  46.688  0.00  0.00    -0.009 A 
ATOM     15  C14 <0> A   1     -12.260  12.398  46.057  0.00  0.00    +0.114 A 
ATOM     16  C15 <0> A   1     -13.457  12.236  45.378  0.00  0.00    -0.019 A 
ATOM     17  C16 <0> A   1     -14.058  10.996  45.320  0.00  0.00    +0.069 A 
ATOM     18  F1  <0> A   1     -11.672  13.613  46.106  0.00  0.00    -0.137 F 
ENDBRANCH   3  12
BRANCH   1  20
ATOM     19  C1  <0> A   1     -14.225   4.049  45.491  0.00  0.00    +0.039 C 
ATOM     20  C2  <0> A   1     -14.735   5.164  44.576  0.00  0.00    +0.081 C 
ATOM     21  C3  <0> A   1     -16.180   4.869  44.167  0.00  0.00    +0.039 C 
ENDBRANCH   1  20
BRANCH   2  22
ATOM     22  C17 <0> A   1     -12.869   7.623  43.877  0.00  0.00    +0.039 C 
ATOM     23  C18 <0> A   1     -13.293   7.642  42.620  0.00  0.00    -0.051 C 
BRANCH  23  24
ATOM     24  C19 <0> A   1     -12.298   7.699  41.489  0.00  0.00    +0.251 C 
BRANCH  24  25
ATOM     25  O4  <0> A   1     -11.662   6.427  41.351  0.00  0.00    -0.538 OA
ATOM     26  H24 <0> A   1     -11.428   6.011  42.191  0.00  0.00    +0.366 HD
ENDBRANCH  24  25
BRANCH  24  27
ATOM     27  C20 <0> A   1     -13.023   8.052  40.190  0.00  0.00    -0.042 C 
BRANCH  27  28
ATOM     28  C21 <0> A   1     -12.409   9.320  39.592  0.00  0.00    +0.230 C 
BRANCH  28  29
ATOM     29  O3  <0> A   1     -12.789   9.430  38.219  0.00  0.00    -0.528 OA
ATOM     30  H23 <0> A   1     -13.649   9.852  38.081  0.00  0.00    +0.350 HD
ENDBRANCH  28  29
BRANCH  28  31
ATOM     31  C22 <0> A   1     -12.912  10.543  40.360  0.00  0.00    -0.102 C 
BRANCH  31  32
ATOM     32  C23 <0> A   1     -13.810  11.363  39.469  0.00  0.00    +0.490 C 
ATOM     33  O1  <0> A   1     -13.324  12.148  38.673  0.00  0.00    -0.681 OA
ATOM     34  O2  <0> A   1     -15.020  11.240  39.545  0.00  0.00    -0.714 OA
ENDBRANCH  31  32
ENDBRANCH  28  31
ENDBRANCH  27  28
ENDBRANCH  24  27
ENDBRANCH  23  24
ENDBRANCH   2  22
TORSDOF 10
