REMARK VINA RESULT:      -7.5     15.024     19.454
REMARK  Name = CHEMBL488821
REMARK  16 active torsions:
REMARK  status: ('A' for Active; 'I' for Inactive)
REMARK    1  A    between atoms: C1_1  and  C2_2
REMARK    2  A    between atoms: C4_5  and  C6_8
REMARK    3  A    between atoms: C6_8  and  N3_9
REMARK    4  A    between atoms: C7_10  and  C8_12
REMARK    5  A    between atoms: C9_13  and  C26_38
REMARK    6  A    between atoms: C10_14  and  C20_31
REMARK    7  A    between atoms: C11_15  and  C13_18
REMARK    8  A    between atoms: N4_16  and  C12_17
REMARK    9  A    between atoms: C13_18  and  C14_19
REMARK   10  A    between atoms: C14_19  and  C15_20
REMARK   11  A    between atoms: C15_20  and  C16_22
REMARK   12  A    between atoms: C15_20  and  O5_30
REMARK   13  A    between atoms: C16_22  and  C17_23
REMARK   14  A    between atoms: C17_23  and  C18_25
REMARK   15  A    between atoms: C17_23  and  O4_29
REMARK   16  A    between atoms: C18_25  and  C19_26
REMARK                            x       y       z     vdW  Elec       q    Type
REMARK                         _______ _______ _______ _____ _____    ______ ____
ROOT
ATOM      1  C8  <0> A   1     -25.474  -2.843  51.832  0.00  0.00    -0.035 C 
ATOM      2  C9  <0> A   1     -26.725  -3.409  52.041  0.00  0.00    -0.055 C 
ATOM      3  C10 <0> A   1     -26.569  -4.810  51.887  0.00  0.00    -0.121 C 
ATOM      4  C11 <0> A   1     -25.259  -5.046  51.597  0.00  0.00    +0.073 C 
ATOM      5  N4  <0> A   1     -24.595  -3.867  51.556  0.00  0.00    -0.411 N 
ATOM      6  C12 <0> A   1     -23.168  -3.705  51.268  0.00  0.00    +0.326 C 
ENDROOT
BRANCH   3   7
ATOM      7  C20 <0> A   1     -27.637  -5.832  52.019  0.00  0.00    -0.011 A 
ATOM      8  C21 <0> A   1     -28.119  -6.181  53.279  0.00  0.00    +0.053 A 
ATOM      9  C22 <0> A   1     -29.112  -7.131  53.396  0.00  0.00    -0.013 A 
ATOM     10  C23 <0> A   1     -29.630  -7.738  52.264  0.00  0.00    +0.096 A 
ATOM     11  C24 <0> A   1     -29.155  -7.394  51.010  0.00  0.00    -0.020 A 
ATOM     12  C25 <0> A   1     -28.165  -6.441  50.882  0.00  0.00    +0.055 A 
ATOM     13  F1  <0> A   1     -30.602  -8.670  52.384  0.00  0.00    -0.142 F 
ENDBRANCH   3   7
BRANCH   2  14
ATOM     14  C26 <0> A   1     -27.978  -2.688  52.362  0.00  0.00    -0.011 A 
ATOM     15  C27 <0> A   1     -29.092  -2.815  51.530  0.00  0.00    +0.028 A 
ATOM     16  C28 <0> A   1     -30.256  -2.142  51.835  0.00  0.00    +0.004 A 
ATOM     17  C29 <0> A   1     -30.322  -1.341  52.961  0.00  0.00    -0.001 A 
ATOM     18  C30 <0> A   1     -29.222  -1.211  53.790  0.00  0.00    -0.000 A 
ATOM     19  C31 <0> A   1     -28.053  -1.884  53.499  0.00  0.00    +0.007 A 
ENDBRANCH   2  14
BRANCH   1  21
ATOM     20  N3  <0> A   1     -25.447  -0.615  50.847  0.00  0.00    -0.716 N 
ATOM     21  C7  <0> A   1     -25.148  -1.417  51.889  0.00  0.00    +0.602 C 
ATOM     22  O1  <0> A   1     -24.609  -0.955  52.878  0.00  0.00    -0.514 OA
ATOM     23  H10 <0> A   1     -25.806  -0.995  50.030  0.00  0.00    +0.404 HD
BRANCH  20  24
ATOM     24  C6  <0> A   1     -25.229   0.830  50.949  0.00  0.00    +0.363 C 
BRANCH  24  29
ATOM     25  C1  <0> A   1     -30.138   3.347  52.338  0.00  0.00    +0.146 C 
ATOM     26  C2  <0> A   1     -28.845   2.670  51.962  0.00  0.00    +0.088 A 
ATOM     27  C3  <0> A   1     -27.638   3.205  52.377  0.00  0.00    +0.226 A 
ATOM     28  N1  <0> A   1     -26.504   2.611  52.049  0.00  0.00    -0.418 NA
ATOM     29  C4  <0> A   1     -26.522   1.507  51.324  0.00  0.00    +0.046 A 
ATOM     30  C5  <0> A   1     -27.729   0.972  50.909  0.00  0.00    +0.252 A 
ATOM     31  N2  <0> A   1     -28.863   1.563  51.241  0.00  0.00    -0.438 NA
ENDBRANCH  24  29
ENDBRANCH  20  24
ENDBRANCH   1  21
BRANCH   4  32
ATOM     32  C13 <0> A   1     -24.648  -6.402  51.353  0.00  0.00    +0.120 C 
BRANCH  32  33
ATOM     33  C14 <0> A   1     -24.615  -6.684  49.850  0.00  0.00    -0.009 C 
BRANCH  33  34
ATOM     34  C15 <0> A   1     -24.728  -8.191  49.612  0.00  0.00    +0.213 C 
BRANCH  34  35
ATOM     35  O5  <0> A   1     -23.484  -8.690  49.116  0.00  0.00    -0.542 OA
ATOM     36  H23 <0> A   1     -23.316  -9.616  49.335  0.00  0.00    +0.363 HD
ENDBRANCH  34  35
BRANCH  34  37
ATOM     37  C16 <0> A   1     -25.069  -8.891  50.928  0.00  0.00    -0.051 C 
BRANCH  37  38
ATOM     38  C17 <0> A   1     -25.728 -10.240  50.633  0.00  0.00    +0.230 C 
BRANCH  38  39
ATOM     39  O4  <0> A   1     -26.029 -10.328  49.239  0.00  0.00    -0.528 OA
ATOM     40  H22 <0> A   1     -26.056 -11.233  48.898  0.00  0.00    +0.349 HD
ENDBRANCH  38  39
BRANCH  38  41
ATOM     41  C18 <0> A   1     -24.773 -11.371  51.021  0.00  0.00    -0.103 C 
BRANCH  41  42
ATOM     42  C19 <0> A   1     -24.432 -12.182  49.798  0.00  0.00    +0.490 C 
ATOM     43  O2  <0> A   1     -23.564 -11.797  49.033  0.00  0.00    -0.681 OA
ATOM     44  O3  <0> A   1     -25.024 -13.223  49.573  0.00  0.00    -0.713 OA
ENDBRANCH  41  42
ENDBRANCH  38  41
ENDBRANCH  37  38
ENDBRANCH  34  37
ENDBRANCH  33  34
ENDBRANCH  32  33
ENDBRANCH   4  32
TORSDOF 14
