REMARK VINA RESULT:      -7.9      2.737      4.881
REMARK  Name = CHEMBL154335
REMARK  8 active torsions:
REMARK  status: ('A' for Active; 'I' for Inactive)
REMARK    1  A    between atoms: C1_1  and  C2_2
REMARK    2  A    between atoms: C2_2  and  C3_3
REMARK    3  A    between atoms: C2_2  and  C4_4
REMARK    4  A    between atoms: C5_5  and  C20_23
REMARK    5  A    between atoms: C6_6  and  C14_16
REMARK    6  A    between atoms: C7_8  and  C8_10
REMARK    7  A    between atoms: C21_24  and  C22_25
REMARK    8  A    between atoms: C24_27  and  O3_33
REMARK                            x       y       z     vdW  Elec       q    Type
REMARK                         _______ _______ _______ _____ _____    ______ ____
ROOT
ATOM      1  C4  <0> A   1     -28.154  -3.055  50.869  0.00  0.00    +0.204 A 
ATOM      2  C5  <0> A   1     -26.776  -2.992  51.090  0.00  0.00    -0.160 A 
ATOM      3  C6  <0> A   1     -26.260  -1.847  51.732  0.00  0.00    +0.230 A 
ATOM      4  N1  <0> A   1     -27.104  -0.884  52.096  0.00  0.00    -0.504 NA
ATOM      5  C7  <0> A   1     -28.395  -0.993  51.863  0.00  0.00    +0.335 A 
ATOM      6  N2  <0> A   1     -28.914  -2.046  51.260  0.00  0.00    -0.510 NA
ENDROOT
BRANCH   3   7
ATOM      7  C14 <0> A   1     -24.808  -1.719  51.996  0.00  0.00    -0.071 A 
ATOM      8  C15 <0> A   1     -23.918  -1.541  50.938  0.00  0.00    +0.086 A 
ATOM      9  C16 <0> A   1     -22.567  -1.423  51.188  0.00  0.00    -0.018 A 
ATOM     10  C17 <0> A   1     -22.094  -1.482  52.490  0.00  0.00    +0.120 A 
ATOM     11  C18 <0> A   1     -22.975  -1.660  53.544  0.00  0.00    -0.020 A 
ATOM     12  C19 <0> A   1     -24.328  -1.772  53.305  0.00  0.00    +0.096 A 
ATOM     13  F1  <0> A   1     -20.769  -1.367  52.730  0.00  0.00    -0.135 F 
ENDBRANCH   3   7
BRANCH   5  14
ATOM     14  C8  <0> A   1     -29.309   0.123  52.293  0.00  0.00    +0.080 C 
ATOM     15  C9  <0> A   1     -30.756  -0.375  52.295  0.00  0.00    +0.027 C 
ATOM     16  C10 <0> A   1     -31.686   0.760  52.733  0.00  0.00    +0.011 C 
ATOM     17  C11 <0> A   1     -31.551   1.933  51.760  0.00  0.00    +0.005 C 
ATOM     18  C12 <0> A   1     -30.105   2.431  51.758  0.00  0.00    +0.011 C 
ATOM     19  C13 <0> A   1     -29.175   1.297  51.320  0.00  0.00    +0.027 C 
ENDBRANCH   5  14
BRANCH   1  21
ATOM     20  C1  <0> A   1     -30.205  -4.435  50.672  0.00  0.00    +0.044 C 
ATOM     21  C2  <0> A   1     -28.765  -4.253  50.188  0.00  0.00    +0.045 C 
ATOM     22  C3  <0> A   1     -28.758  -4.037  48.673  0.00  0.00    +0.044 C 
ENDBRANCH   1  21
BRANCH   2  23
ATOM     23  C20 <0> A   1     -25.886  -4.091  50.665  0.00  0.00    +0.052 C 
ATOM     24  C21 <0> A   1     -25.709  -5.143  51.453  0.00  0.00    -0.007 C 
BRANCH  24  25
ATOM     25  C22 <0> A   1     -24.801  -6.265  51.018  0.00  0.00    +0.244 C 
ATOM     26  C23 <0> A   1     -25.492  -7.088  49.929  0.00  0.00    +0.051 C 
ATOM     27  C24 <0> A   1     -24.583  -8.253  49.518  0.00  0.00    +0.186 C 
ATOM     28  C25 <0> A   1     -24.309  -9.125  50.751  0.00  0.00    +0.024 C 
ATOM     29  C26 <0> A   1     -23.814  -8.229  51.865  0.00  0.00    +0.498 C 
ATOM     30  O1  <0> A   1     -22.819  -8.510  52.493  0.00  0.00    -0.449 OA
ATOM     31  O2  <0> A   1     -24.514  -7.109  52.139  0.00  0.00    -0.370 OA
BRANCH  27  32
ATOM     32  O3  <0> A   1     -23.351  -7.740  49.007  0.00  0.00    -0.563 OA
ATOM     33  H31 <0> A   1     -23.159  -6.833  49.282  0.00  0.00    +0.388 HD
ENDBRANCH  27  32
ENDBRANCH  24  25
ENDBRANCH   2  23
TORSDOF 6
