REMARK VINA RESULT:      -7.3     16.137     19.571
REMARK  Name = CHEMBL400576
REMARK  14 active torsions:
REMARK  status: ('A' for Active; 'I' for Inactive)
REMARK    1  A    between atoms: C1_1  and  C2_2
REMARK    2  A    between atoms: C2_2  and  C3_3
REMARK    3  A    between atoms: C2_2  and  C4_4
REMARK    4  A    between atoms: C5_5  and  C19_29
REMARK    5  A    between atoms: N2_7  and  C13_22
REMARK    6  A    between atoms: C6_8  and  O1_9
REMARK    7  A    between atoms: O1_9  and  C7_10
REMARK    8  A    between atoms: C7_10  and  C8_11
REMARK    9  A    between atoms: C8_11  and  C9_13
REMARK   10  A    between atoms: C8_11  and  O5_21
REMARK   11  A    between atoms: C9_13  and  C10_14
REMARK   12  A    between atoms: C10_14  and  C11_16
REMARK   13  A    between atoms: C10_14  and  O4_20
REMARK   14  A    between atoms: C11_16  and  C12_17
REMARK                            x       y       z     vdW  Elec       q    Type
REMARK                         _______ _______ _______ _____ _____    ______ ____
ROOT
ATOM      1  C4  <0> A   1     -24.793  -2.866  51.963  0.00  0.00    -0.182 C 
ATOM      2  C5  <0> A   1     -25.943  -2.244  52.493  0.00  0.00    +0.060 C 
ATOM      3  N1  <0> A   1     -26.970  -3.050  52.297  0.00  0.00    -0.234 NA
ATOM      4  N2  <0> A   1     -26.508  -4.200  51.643  0.00  0.00    -0.327 N 
ATOM      5  C6  <0> A   1     -25.169  -4.061  51.443  0.00  0.00    +0.269 C 
ENDROOT
BRANCH   2   6
ATOM      6  C19 <0> A   1     -25.990  -0.925  53.151  0.00  0.00    +0.610 C 
ATOM      7  O6  <0> A   1     -25.866  -0.842  54.358  0.00  0.00    -0.516 OA
ATOM      8  N3  <0> A   1     -26.172   0.190  52.415  0.00  0.00    -0.599 N 
ATOM      9  C20 <0> A   1     -26.426   0.100  50.971  0.00  0.00    +0.265 C 
ATOM     10  C21 <0> A   1     -27.707   0.875  50.646  0.00  0.00    +0.011 C 
ATOM     11  C22 <0> A   1     -27.580   2.306  51.174  0.00  0.00    +0.012 C 
ATOM     12  C23 <0> A   1     -27.405   2.278  52.694  0.00  0.00    +0.011 C 
ATOM     13  C24 <0> A   1     -26.127   1.517  53.043  0.00  0.00    +0.279 C 
ENDBRANCH   2   6
BRANCH   4  14
ATOM     14  C13 <0> A   1     -27.289  -5.297  51.257  0.00  0.00    +0.128 A 
ATOM     15  C14 <0> A   1     -27.631  -5.471  49.922  0.00  0.00    +0.066 A 
ATOM     16  C15 <0> A   1     -28.400  -6.553  49.543  0.00  0.00    +0.008 A 
ATOM     17  C16 <0> A   1     -28.832  -7.464  50.492  0.00  0.00    +0.107 A 
ATOM     18  C17 <0> A   1     -28.492  -7.291  51.824  0.00  0.00    +0.018 A 
ATOM     19  C18 <0> A   1     -27.717  -6.214  52.207  0.00  0.00    +0.065 A 
ATOM     20  F1  <0> A   1     -29.585  -8.522  50.120  0.00  0.00    -0.132 F 
ENDBRANCH   4  14
BRANCH   1  22
ATOM     21  C1  <0> A   1     -22.430  -3.329  52.558  0.00  0.00    +0.025 C 
ATOM     22  C2  <0> A   1     -23.397  -2.300  51.967  0.00  0.00    +0.062 C 
ATOM     23  C3  <0> A   1     -22.976  -1.969  50.534  0.00  0.00    +0.036 C 
ENDBRANCH   1  22
BRANCH   5  24
ATOM     24  O1  <0> A   1     -24.353  -4.961  50.835  0.00  0.00    -0.283 OA
BRANCH  24  25
ATOM     25  C7  <0> A   1     -24.140  -6.202  51.510  0.00  0.00    +0.155 C 
BRANCH  25  26
ATOM     26  C8  <0> A   1     -24.474  -7.359  50.565  0.00  0.00    +0.230 C 
BRANCH  26  27
ATOM     27  O5  <0> A   1     -24.066  -7.023  49.238  0.00  0.00    -0.527 OA
ATOM     28  H17 <0> A   1     -23.114  -6.886  49.142  0.00  0.00    +0.364 HD
ENDBRANCH  26  27
BRANCH  26  29
ATOM     29  C9  <0> A   1     -23.737  -8.619  51.022  0.00  0.00    -0.040 C 
BRANCH  29  30
ATOM     30  C10 <0> A   1     -24.554  -9.856  50.641  0.00  0.00    +0.236 C 
BRANCH  30  31
ATOM     31  O4  <0> A   1     -25.867  -9.455  50.246  0.00  0.00    -0.526 OA
ATOM     32  H16 <0> A   1     -26.282 -10.046  49.603  0.00  0.00    +0.351 HD
ENDBRANCH  30  31
BRANCH  30  33
ATOM     33  C11 <0> A   1     -23.870 -10.581  49.481  0.00  0.00    -0.101 C 
BRANCH  33  34
ATOM     34  C12 <0> A   1     -24.714 -10.447  48.239  0.00  0.00    +0.491 C 
ATOM     35  O2  <0> A   1     -25.479 -11.341  47.922  0.00  0.00    -0.680 OA
ATOM     36  O3  <0> A   1     -24.630  -9.443  47.551  0.00  0.00    -0.712 OA
ENDBRANCH  33  34
ENDBRANCH  30  33
ENDBRANCH  29  30
ENDBRANCH  26  29
ENDBRANCH  25  26
ENDBRANCH  24  25
ENDBRANCH   5  24
TORSDOF 12
