REMARK VINA RESULT:      -6.3      0.000      0.000
REMARK  Name = CHEMBL60053
REMARK  8 active torsions:
REMARK  status: ('A' for Active; 'I' for Inactive)
REMARK    1  A    between atoms: C4_4  and  C7_7
REMARK    2  A    between atoms: C7_7  and  C8_8
REMARK    3  A    between atoms: C8_8  and  C9_9
REMARK    4  A    between atoms: C9_9  and  C10_11
REMARK    5  A    between atoms: C10_11  and  C11_12
REMARK    6  A    between atoms: C11_12  and  C12_14
REMARK    7  A    between atoms: C11_12  and  O4_18
REMARK    8  A    between atoms: C12_14  and  C13_15
REMARK                            x       y       z     vdW  Elec       q    Type
REMARK                         _______ _______ _______ _____ _____    ______ ____
ROOT
ATOM      1  C9  <0> A   1     -12.309   7.403  41.892  0.00  0.00    +0.349 C 
ATOM      2  O1  <0> A   1     -11.544   6.606  41.406  0.00  0.00    -0.429 OA
ENDROOT
BRANCH   1   3
ATOM      3  C8  <0> A   1     -12.252   7.698  43.370  0.00  0.00    +0.026 C 
BRANCH   3   4
ATOM      4  C7  <0> A   1     -13.672   7.905  43.903  0.00  0.00    +0.083 C 
BRANCH   4   8
ATOM      5  C1  <0> A   1     -15.278   4.149  45.153  0.00  0.00    -0.010 A 
ATOM      6  C2  <0> A   1     -15.788   4.781  44.034  0.00  0.00    +0.001 A 
ATOM      7  C3  <0> A   1     -15.269   5.996  43.630  0.00  0.00    +0.004 A 
ATOM      8  C4  <0> A   1     -14.239   6.580  44.344  0.00  0.00    -0.077 A 
ATOM      9  C5  <0> A   1     -13.729   5.948  45.463  0.00  0.00    +0.004 A 
ATOM     10  C6  <0> A   1     -14.248   4.733  45.867  0.00  0.00    +0.001 A 
ENDBRANCH   4   8
ENDBRANCH   3   4
ENDBRANCH   1   3
BRANCH   1  11
ATOM     11  C10 <0> A   1     -13.322   8.103  41.023  0.00  0.00    -0.015 C 
BRANCH  11  12
ATOM     12  C11 <0> A   1     -12.628   9.200  40.214  0.00  0.00    +0.240 C 
BRANCH  12  13
ATOM     13  O4  <0> A   1     -12.973   9.066  38.834  0.00  0.00    -0.532 OA
ATOM     14  H15 <0> A   1     -12.466   8.389  38.366  0.00  0.00    +0.351 HD
ENDBRANCH  12  13
BRANCH  12  15
ATOM     15  C12 <0> A   1     -13.080  10.571  40.722  0.00  0.00    -0.096 C 
BRANCH  15  16
ATOM     16  C13 <0> A   1     -13.874  11.267  39.646  0.00  0.00    +0.490 C 
ATOM     17  O2  <0> A   1     -13.304  11.944  38.808  0.00  0.00    -0.679 OA
ATOM     18  O3  <0> A   1     -15.088  11.152  39.615  0.00  0.00    -0.712 OA
ENDBRANCH  15  16
ENDBRANCH  12  15
ENDBRANCH  11  12
ENDBRANCH   1  11
TORSDOF 8
