REMARK VINA RESULT:      -7.5      2.659      4.720
REMARK  Name = CHEMBL511255
REMARK  12 active torsions:
REMARK  status: ('A' for Active; 'I' for Inactive)
REMARK    1  A    between atoms: C1_1  and  C2_2
REMARK    2  A    between atoms: C2_2  and  C3_3
REMARK    3  A    between atoms: C2_2  and  C4_4
REMARK    4  A    between atoms: C5_5  and  C17_23
REMARK    5  A    between atoms: C6_6  and  C11_16
REMARK    6  A    between atoms: C18_24  and  C19_25
REMARK    7  A    between atoms: C19_25  and  C20_27
REMARK    8  A    between atoms: C19_25  and  O5_35
REMARK    9  A    between atoms: C20_27  and  C21_28
REMARK   10  A    between atoms: C21_28  and  C22_30
REMARK   11  A    between atoms: C21_28  and  O4_34
REMARK   12  A    between atoms: C22_30  and  C23_31
REMARK                            x       y       z     vdW  Elec       q    Type
REMARK                         _______ _______ _______ _____ _____    ______ ____
ROOT
ATOM      1  C4  <0> A   1     -15.845  10.406  47.647  0.00  0.00    +0.240 A 
ATOM      2  C5  <0> A   1     -15.402   9.346  46.852  0.00  0.00    -0.174 A 
ATOM      3  C6  <0> A   1     -15.727   8.033  47.252  0.00  0.00    +0.264 A 
ATOM      4  N1  <0> A   1     -16.437   7.859  48.364  0.00  0.00    -0.544 NA
ATOM      5  C7  <0> A   1     -16.833   8.898  49.082  0.00  0.00    +0.564 A 
ATOM      6  N2  <0> A   1     -16.541  10.143  48.738  0.00  0.00    -0.543 NA
ATOM      7  N3  <0> A   1     -17.571   8.674  50.233  0.00  0.00    -0.595 N 
ATOM      8  C8  <0> A   1     -17.886   7.372  50.617  0.00  0.00    +0.348 C 
ATOM      9  C9  <0> A   1     -17.514   6.191  49.936  0.00  0.00    -0.091 C 
ATOM     10  C10 <0> A   1     -18.006   5.143  50.619  0.00  0.00    +0.258 C 
ATOM     11  O1  <0> A   1     -18.664   5.613  51.691  0.00  0.00    -0.076 OA
ATOM     12  N4  <0> A   1     -18.572   7.026  51.676  0.00  0.00    -0.362 NA
ATOM     13  H10 <0> A   1     -17.870   9.424  50.771  0.00  0.00    +0.435 HD
ENDROOT
BRANCH   3  14
ATOM     14  C11 <0> A   1     -15.286   6.869  46.450  0.00  0.00    -0.075 A 
ATOM     15  C12 <0> A   1     -14.066   6.250  46.727  0.00  0.00    +0.100 A 
ATOM     16  C13 <0> A   1     -13.659   5.166  45.978  0.00  0.00    -0.012 A 
ATOM     17  C14 <0> A   1     -14.460   4.692  44.951  0.00  0.00    +0.123 A 
ATOM     18  C15 <0> A   1     -15.672   5.304  44.671  0.00  0.00    -0.022 A 
ATOM     19  C16 <0> A   1     -16.090   6.384  45.420  0.00  0.00    +0.088 A 
ATOM     20  F1  <0> A   1     -14.057   3.629  44.219  0.00  0.00    -0.134 F 
ENDBRANCH   3  14
BRANCH   1  22
ATOM     21  C1  <0> A   1     -16.736  12.719  47.564  0.00  0.00    +0.045 C 
ATOM     22  C2  <0> A   1     -15.526  11.830  47.268  0.00  0.00    +0.052 C 
ATOM     23  C3  <0> A   1     -14.324  12.317  48.079  0.00  0.00    +0.045 C 
ENDBRANCH   1  22
BRANCH   2  24
ATOM     24  C17 <0> A   1     -14.616   9.591  45.627  0.00  0.00    +0.011 C 
ATOM     25  C18 <0> A   1     -13.290   9.612  45.681  0.00  0.00    -0.033 C 
BRANCH  25  26
ATOM     26  C19 <0> A   1     -12.488   9.863  44.431  0.00  0.00    +0.252 C 
BRANCH  26  27
ATOM     27  O5  <0> A   1     -11.489   8.851  44.294  0.00  0.00    -0.537 OA
ATOM     28  H24 <0> A   1     -11.331   8.343  45.101  0.00  0.00    +0.366 HD
ENDBRANCH  26  27
BRANCH  26  29
ATOM     29  C20 <0> A   1     -13.416   9.832  43.214  0.00  0.00    -0.041 C 
BRANCH  29  30
ATOM     30  C21 <0> A   1     -12.900  10.806  42.153  0.00  0.00    +0.232 C 
BRANCH  30  31
ATOM     31  O4  <0> A   1     -11.571  10.438  41.775  0.00  0.00    -0.528 OA
ATOM     32  H23 <0> A   1     -10.889  10.755  42.382  0.00  0.00    +0.350 HD
ENDBRANCH  30  31
BRANCH  30  33
ATOM     33  C22 <0> A   1     -13.813  10.754  40.927  0.00  0.00    -0.102 C 
BRANCH  33  34
ATOM     34  C23 <0> A   1     -12.976  10.810  39.675  0.00  0.00    +0.490 C 
ATOM     35  O2  <0> A   1     -12.559  11.880  39.266  0.00  0.00    -0.681 OA
ATOM     36  O3  <0> A   1     -12.716   9.784  39.069  0.00  0.00    -0.713 OA
ENDBRANCH  33  34
ENDBRANCH  30  33
ENDBRANCH  29  30
ENDBRANCH  26  29
ENDBRANCH  25  26
ENDBRANCH   2  24
TORSDOF 10
