REMARK VINA RESULT:      -7.6     16.168     20.825
REMARK  Name = CHEMBL427854
REMARK  15 active torsions:
REMARK  status: ('A' for Active; 'I' for Inactive)
REMARK    1  A    between atoms: C1_1  and  C2_2
REMARK    2  A    between atoms: C2_2  and  N1_3
REMARK    3  A    between atoms: C3_4  and  C21_25
REMARK    4  A    between atoms: C4_5  and  C15_18
REMARK    5  A    between atoms: C5_6  and  C14_17
REMARK    6  A    between atoms: C6_7  and  C7_8
REMARK    7  A    between atoms: N2_10  and  C8_11
REMARK    8  A    between atoms: C21_25  and  C22_26
REMARK    9  A    between atoms: C22_26  and  C23_27
REMARK   10  A    between atoms: C23_27  and  C24_29
REMARK   11  A    between atoms: C23_27  and  O5_37
REMARK   12  A    between atoms: C24_29  and  C25_30
REMARK   13  A    between atoms: C25_30  and  C26_32
REMARK   14  A    between atoms: C25_30  and  O4_36
REMARK   15  A    between atoms: C26_32  and  C27_33
REMARK                            x       y       z     vdW  Elec       q    Type
REMARK                         _______ _______ _______ _____ _____    ______ ____
ROOT
ATOM      1  N1  <0> A   1     -27.975  -6.593  51.164  0.00  0.00    -0.407 N 
ATOM      2  C3  <0> A   1     -27.051  -5.795  50.587  0.00  0.00    +0.082 C 
ATOM      3  C4  <0> A   1     -27.157  -4.546  51.128  0.00  0.00    -0.141 C 
ATOM      4  C5  <0> A   1     -28.196  -4.584  52.079  0.00  0.00    -0.082 C 
ATOM      5  C6  <0> A   1     -28.691  -5.857  52.080  0.00  0.00    -0.059 C 
ATOM      6  C14 <0> A   1     -28.673  -3.435  52.929  0.00  0.00    +0.110 C 
ENDROOT
BRANCH   3   7
ATOM      7  C15 <0> A   1     -26.329  -3.363  50.778  0.00  0.00    -0.009 A 
ATOM      8  C16 <0> A   1     -25.006  -3.285  51.207  0.00  0.00    +0.050 A 
ATOM      9  C17 <0> A   1     -24.241  -2.185  50.880  0.00  0.00    -0.016 A 
ATOM     10  C18 <0> A   1     -24.785  -1.160  50.124  0.00  0.00    +0.094 A 
ATOM     11  C19 <0> A   1     -26.101  -1.233  49.695  0.00  0.00    -0.016 A 
ATOM     12  C20 <0> A   1     -26.872  -2.333  50.013  0.00  0.00    +0.053 A 
ATOM     13  F1  <0> A   1     -24.032  -0.085  49.806  0.00  0.00    -0.142 F 
ENDBRANCH   3   7
BRANCH   5  14
ATOM     14  C7  <0> A   1     -29.791  -6.354  52.914  0.00  0.00    +0.602 C 
ATOM     15  O1  <0> A   1     -30.850  -6.665  52.403  0.00  0.00    -0.498 OA
ATOM     16  N2  <0> A   1     -29.627  -6.466  54.248  0.00  0.00    -0.661 N 
ATOM     17  H8  <0> A   1     -28.835  -6.101  54.672  0.00  0.00    +0.415 HD
BRANCH  16  18
ATOM     18  C8  <0> A   1     -30.600  -7.109  55.019  0.00  0.00    +0.144 A 
ATOM     19  C9  <0> A   1     -31.581  -6.366  55.664  0.00  0.00    +0.017 A 
ATOM     20  C10 <0> A   1     -32.539  -7.004  56.426  0.00  0.00    +0.026 A 
ATOM     21  C11 <0> A   1     -32.526  -8.382  56.546  0.00  0.00    -0.019 A 
ATOM     22  C12 <0> A   1     -31.551  -9.125  55.905  0.00  0.00    +0.026 A 
ATOM     23  C13 <0> A   1     -30.592  -8.493  55.137  0.00  0.00    -0.027 A 
ENDBRANCH  16  18
ENDBRANCH   5  14
BRANCH   1  25
ATOM     24  C1  <0> A   1     -29.123  -8.139  49.656  0.00  0.00    +0.040 C 
ATOM     25  C2  <0> A   1     -28.185  -8.010  50.858  0.00  0.00    +0.280 C 
ENDBRANCH   1  25
BRANCH   2  26
ATOM     26  C21 <0> A   1     -26.067  -6.214  49.526  0.00  0.00    +0.117 C 
BRANCH  26  27
ATOM     27  C22 <0> A   1     -24.849  -6.861  50.189  0.00  0.00    -0.007 C 
BRANCH  27  28
ATOM     28  C23 <0> A   1     -24.393  -8.061  49.356  0.00  0.00    +0.212 C 
BRANCH  28  29
ATOM     29  O5  <0> A   1     -23.330  -7.663  48.489  0.00  0.00    -0.542 OA
ATOM     30  H30 <0> A   1     -23.474  -7.888  47.560  0.00  0.00    +0.363 HD
ENDBRANCH  28  29
BRANCH  28  31
ATOM     31  C24 <0> A   1     -23.902  -9.171  50.288  0.00  0.00    -0.051 C 
BRANCH  31  32
ATOM     32  C25 <0> A   1     -25.016 -10.202  50.484  0.00  0.00    +0.231 C 
BRANCH  32  33
ATOM     33  O4  <0> A   1     -25.750 -10.348  49.267  0.00  0.00    -0.528 OA
ATOM     34  H29 <0> A   1     -25.685 -11.229  48.873  0.00  0.00    +0.349 HD
ENDBRANCH  32  33
BRANCH  32  35
ATOM     35  C26 <0> A   1     -24.402 -11.548  50.875  0.00  0.00    -0.103 C 
BRANCH  35  36
ATOM     36  C27 <0> A   1     -24.400 -12.465  49.678  0.00  0.00    +0.490 C 
ATOM     37  O2  <0> A   1     -23.528 -12.362  48.833  0.00  0.00    -0.681 OA
ATOM     38  O3  <0> A   1     -25.271 -13.309  49.556  0.00  0.00    -0.713 OA
ENDBRANCH  35  36
ENDBRANCH  32  35
ENDBRANCH  31  32
ENDBRANCH  28  31
ENDBRANCH  27  28
ENDBRANCH  26  27
ENDBRANCH   2  26
TORSDOF 13
