REMARK VINA RESULT:      -7.1     15.105     19.063
REMARK  Name = CHEMBL330777
REMARK  13 active torsions:
REMARK  status: ('A' for Active; 'I' for Inactive)
REMARK    1  A    between atoms: C1_1  and  C2_2
REMARK    2  A    between atoms: C2_2  and  O1_3
REMARK    3  A    between atoms: O1_3  and  C3_4
REMARK    4  A    between atoms: C3_4  and  C4_6
REMARK    5  A    between atoms: C5_7  and  C24_32
REMARK    6  A    between atoms: C6_8  and  C18_26
REMARK    7  A    between atoms: N1_9  and  C11_14
REMARK    8  A    between atoms: C7_10  and  C8_11
REMARK    9  A    between atoms: C8_11  and  C9_12
REMARK   10  A    between atoms: C8_11  and  C10_13
REMARK   11  A    between atoms: C11_14  and  C12_15
REMARK   12  A    between atoms: C12_15  and  C13_16
REMARK   13  A    between atoms: C15_19  and  O5_25
REMARK                            x       y       z     vdW  Elec       q    Type
REMARK                         _______ _______ _______ _____ _____    ______ ____
ROOT
ATOM      1  C4  <0> A   1     -28.228  -3.609  51.958  0.00  0.00    -0.188 C 
ATOM      2  C5  <0> A   1     -27.186  -2.571  51.877  0.00  0.00    -0.066 C 
ATOM      3  C6  <0> A   1     -25.980  -3.244  51.908  0.00  0.00    +0.072 C 
ATOM      4  N1  <0> A   1     -26.237  -4.587  52.000  0.00  0.00    -0.419 N 
ATOM      5  C7  <0> A   1     -27.564  -4.814  52.036  0.00  0.00    +0.099 C 
ENDROOT
BRANCH   3   6
ATOM      6  C18 <0> A   1     -24.641  -2.622  51.851  0.00  0.00    -0.022 A 
ATOM      7  C19 <0> A   1     -24.102  -2.015  52.987  0.00  0.00    +0.036 A 
ATOM      8  C20 <0> A   1     -22.851  -1.437  52.927  0.00  0.00    +0.008 A 
ATOM      9  C21 <0> A   1     -22.132  -1.457  51.746  0.00  0.00    +0.012 A 
ATOM     10  C22 <0> A   1     -22.661  -2.056  50.616  0.00  0.00    +0.010 A 
ATOM     11  C23 <0> A   1     -23.909  -2.643  50.663  0.00  0.00    +0.015 A 
ENDBRANCH   3   6
BRANCH   2  12
ATOM     12  C24 <0> A   1     -27.390  -1.109  51.782  0.00  0.00    -0.015 A 
ATOM     13  C25 <0> A   1     -27.460  -0.334  52.941  0.00  0.00    +0.023 A 
ATOM     14  C26 <0> A   1     -27.651   1.029  52.846  0.00  0.00    +0.002 A 
ATOM     15  C27 <0> A   1     -27.771   1.629  51.605  0.00  0.00    +0.003 A 
ATOM     16  C28 <0> A   1     -27.703   0.867  50.452  0.00  0.00    +0.002 A 
ATOM     17  C29 <0> A   1     -27.507  -0.497  50.534  0.00  0.00    +0.018 A 
ENDBRANCH   2  12
BRANCH   5  18
ATOM     18  C8  <0> A   1     -28.218  -6.167  52.141  0.00  0.00    +0.046 C 
ATOM     19  C9  <0> A   1     -29.207  -6.167  53.309  0.00  0.00    +0.042 C 
ATOM     20  C10 <0> A   1     -28.964  -6.476  50.842  0.00  0.00    +0.043 C 
ENDBRANCH   5  18
BRANCH   1  21
ATOM     21  C3  <0> A   1     -29.683  -3.401  51.960  0.00  0.00    +0.555 C 
ATOM     22  O2  <0> A   1     -30.326  -3.595  50.947  0.00  0.00    -0.498 OA
BRANCH  21  23
ATOM     23  O1  <0> A   1     -30.304  -2.994  53.085  0.00  0.00    -0.345 OA
BRANCH  23  25
ATOM     24  C1  <0> A   1     -31.037  -0.719  52.723  0.00  0.00    +0.061 C 
ATOM     25  C2  <0> A   1     -31.464  -2.175  52.926  0.00  0.00    +0.192 C 
ENDBRANCH  23  25
ENDBRANCH  21  23
ENDBRANCH   1  21
BRANCH   4  26
ATOM     26  C11 <0> A   1     -25.211  -5.631  52.057  0.00  0.00    +0.298 C 
BRANCH  26  27
ATOM     27  C12 <0> A   1     -24.971  -6.187  50.652  0.00  0.00    +0.053 C 
BRANCH  27  28
ATOM     28  C13 <0> A   1     -24.201  -7.505  50.749  0.00  0.00    +0.204 C 
ATOM     29  C14 <0> A   1     -25.121  -8.665  50.362  0.00  0.00    +0.046 C 
ATOM     30  C15 <0> A   1     -24.358  -9.986  50.500  0.00  0.00    +0.187 C 
ATOM     31  C16 <0> A   1     -23.891 -10.140  51.953  0.00  0.00    +0.024 C 
ATOM     32  C17 <0> A   1     -23.155  -8.879  52.351  0.00  0.00    +0.497 C 
ATOM     33  O3  <0> A   1     -22.072  -8.935  52.884  0.00  0.00    -0.450 OA
ATOM     34  O4  <0> A   1     -23.741  -7.692  52.091  0.00  0.00    -0.368 OA
BRANCH  30  35
ATOM     35  O5  <0> A   1     -23.225  -9.979  49.629  0.00  0.00    -0.564 OA
ATOM     36  H23 <0> A   1     -22.381 -10.110  50.081  0.00  0.00    +0.388 HD
ENDBRANCH  30  35
ENDBRANCH  27  28
ENDBRANCH  26  27
ENDBRANCH   4  26
TORSDOF 10
