REMARK VINA RESULT:      -7.5     14.840     21.114
REMARK  Name = CHEMBL520068
REMARK  16 active torsions:
REMARK  status: ('A' for Active; 'I' for Inactive)
REMARK    1  A    between atoms: C1_1  and  C2_2
REMARK    2  A    between atoms: C2_2  and  C3_3
REMARK    3  A    between atoms: C2_2  and  N1_4
REMARK    4  A    between atoms: C4_5  and  C21_27
REMARK    5  A    between atoms: C5_6  and  C15_20
REMARK    6  A    between atoms: C6_8  and  C7_9
REMARK    7  A    between atoms: N3_11  and  C8_12
REMARK    8  A    between atoms: C8_12  and  C9_13
REMARK    9  A    between atoms: C21_27  and  C22_28
REMARK   10  A    between atoms: C22_28  and  C23_29
REMARK   11  A    between atoms: C23_29  and  C24_31
REMARK   12  A    between atoms: C23_29  and  O5_39
REMARK   13  A    between atoms: C24_31  and  C25_32
REMARK   14  A    between atoms: C25_32  and  C26_34
REMARK   15  A    between atoms: C25_32  and  O4_38
REMARK   16  A    between atoms: C26_34  and  C27_35
REMARK                            x       y       z     vdW  Elec       q    Type
REMARK                         _______ _______ _______ _____ _____    ______ ____
ROOT
ATOM      1  N1  <0> A   1     -26.289  -5.500  50.532  0.00  0.00    -0.397 N 
ATOM      2  C4  <0> A   1     -26.442  -6.812  50.242  0.00  0.00    +0.047 C 
ATOM      3  C5  <0> A   1     -25.197  -7.376  50.269  0.00  0.00    +0.034 C 
ATOM      4  N2  <0> A   1     -24.314  -6.417  50.572  0.00  0.00    -0.428 NA
ATOM      5  C6  <0> A   1     -24.955  -5.279  50.726  0.00  0.00    +0.131 C 
ENDROOT
BRANCH   3   6
ATOM      6  C15 <0> A   1     -24.879  -8.803  50.011  0.00  0.00    -0.007 A 
ATOM      7  C16 <0> A   1     -24.519  -9.639  51.064  0.00  0.00    +0.068 A 
ATOM      8  C17 <0> A   1     -24.224 -10.965  50.820  0.00  0.00    -0.016 A 
ATOM      9  C18 <0> A   1     -24.286 -11.465  49.529  0.00  0.00    +0.100 A 
ATOM     10  C19 <0> A   1     -24.643 -10.636  48.478  0.00  0.00    -0.009 A 
ATOM     11  C20 <0> A   1     -24.945  -9.310  48.714  0.00  0.00    +0.055 A 
ATOM     12  F2  <0> A   1     -23.995 -12.763  49.295  0.00  0.00    -0.140 F 
ENDBRANCH   3   6
BRANCH   5  13
ATOM     13  C7  <0> A   1     -24.337  -3.981  51.060  0.00  0.00    +0.615 C 
ATOM     14  O1  <0> A   1     -24.927  -3.193  51.773  0.00  0.00    -0.537 OA
ATOM     15  N3  <0> A   1     -23.119  -3.671  50.573  0.00  0.00    -0.704 N 
ATOM     16  H10 <0> A   1     -22.648  -4.300  50.004  0.00  0.00    +0.415 HD
BRANCH  15  17
ATOM     17  C8  <0> A   1     -22.506  -2.382  50.904  0.00  0.00    +0.333 C 
BRANCH  17  18
ATOM     18  C9  <0> A   1     -21.701  -2.519  52.172  0.00  0.00    -0.082 A 
ATOM     19  C10 <0> A   1     -22.104  -1.863  53.320  0.00  0.00    +0.025 A 
ATOM     20  C11 <0> A   1     -21.368  -1.988  54.483  0.00  0.00    +0.046 A 
ATOM     21  C12 <0> A   1     -20.227  -2.769  54.499  0.00  0.00    -0.007 A 
ATOM     22  C13 <0> A   1     -19.823  -3.425  53.350  0.00  0.00    +0.098 A 
ATOM     23  C14 <0> A   1     -20.565  -3.305  52.186  0.00  0.00    +0.005 A 
ATOM     24  F1  <0> A   1     -18.708  -4.189  53.364  0.00  0.00    -0.137 F 
ENDBRANCH  17  18
ENDBRANCH  15  17
ENDBRANCH   5  13
BRANCH   1  26
ATOM     25  C1  <0> A   1     -28.310  -4.672  49.430  0.00  0.00    +0.048 C 
ATOM     26  C2  <0> A   1     -27.356  -4.500  50.615  0.00  0.00    +0.240 C 
ATOM     27  C3  <0> A   1     -28.129  -4.685  51.922  0.00  0.00    +0.050 C 
ENDBRANCH   1  26
BRANCH   2  28
ATOM     28  C21 <0> A   1     -27.739  -7.519  49.944  0.00  0.00    +0.127 C 
BRANCH  28  29
ATOM     29  C22 <0> A   1     -28.359  -8.020  51.251  0.00  0.00    -0.006 C 
BRANCH  29  30
ATOM     30  C23 <0> A   1     -28.982  -9.399  51.023  0.00  0.00    +0.214 C 
BRANCH  30  31
ATOM     31  O5  <0> A   1     -27.947 -10.378  50.919  0.00  0.00    -0.541 OA
ATOM     32  H30 <0> A   1     -27.313 -10.208  50.210  0.00  0.00    +0.363 HD
ENDBRANCH  30  31
BRANCH  30  33
ATOM     33  C24 <0> A   1     -29.896  -9.746  52.202  0.00  0.00    -0.051 C 
BRANCH  33  34
ATOM     34  C25 <0> A   1     -30.835 -10.884  51.799  0.00  0.00    +0.231 C 
BRANCH  34  35
ATOM     35  O4  <0> A   1     -30.470 -11.368  50.506  0.00  0.00    -0.528 OA
ATOM     36  H29 <0> A   1     -31.223 -11.556  49.929  0.00  0.00    +0.349 HD
ENDBRANCH  34  35
BRANCH  34  37
ATOM     37  C26 <0> A   1     -30.726 -12.019  52.819  0.00  0.00    -0.103 C 
BRANCH  37  38
ATOM     38  C27 <0> A   1     -29.876 -13.125  52.249  0.00  0.00    +0.490 C 
ATOM     39  O2  <0> A   1     -28.664 -12.999  52.199  0.00  0.00    -0.681 OA
ATOM     40  O3  <0> A   1     -30.399 -14.147  51.839  0.00  0.00    -0.713 OA
ENDBRANCH  37  38
ENDBRANCH  34  37
ENDBRANCH  33  34
ENDBRANCH  30  33
ENDBRANCH  29  30
ENDBRANCH  28  29
ENDBRANCH   2  28
TORSDOF 14
