REMARK  Name = CHEMBL301952
REMARK  4 active torsions:
REMARK  status: ('A' for Active; 'I' for Inactive)
REMARK    1  A    between atoms: C6_6  and  C7_7
REMARK    2  A    between atoms: C12_12  and  C13_13
REMARK    3  A    between atoms: C14_14  and  C15_15
REMARK    4  A    between atoms: C17_17  and  O3_23
REMARK                            x       y       z     vdW  Elec       q    Type
REMARK                         _______ _______ _______ _____ _____    ______ ____
ROOT
ATOM      1  C7  <0> A   1      -1.270  -0.765   0.011  0.00  0.00    -0.010 A 
ATOM      2  C8  <0> A   1      -2.260  -0.461   0.940  0.00  0.00    +0.054 A 
ATOM      3  C9  <0> A   1      -3.445  -1.173   0.945  0.00  0.00    -0.022 A 
ATOM      4  C10 <0> A   1      -3.656  -2.190   0.028  0.00  0.00    +0.051 A 
ATOM      5  C11 <0> A   1      -2.685  -2.505  -0.901  0.00  0.00    -0.018 A 
ATOM      6  C12 <0> A   1      -1.485  -1.793  -0.924  0.00  0.00    -0.030 A 
ATOM      7 Cl1  <0> A   1      -2.959  -3.781  -2.046  0.00  0.00    -0.043 Cl
ATOM      8 Cl2  <0> A   1      -4.676  -0.790   2.108  0.00  0.00    -0.050 Cl
ENDROOT
BRANCH   1  14
ATOM      9  C1  <0> A   1      -0.017   1.390   0.010  0.00  0.00    +0.067 A 
ATOM     10  C2  <0> A   1       1.170   2.094   0.002  0.00  0.00    -0.012 A 
ATOM     11  C3  <0> A   1       2.379   1.417  -0.013  0.00  0.00    +0.108 A 
ATOM     12  C4  <0> A   1       2.403   0.032  -0.022  0.00  0.00    -0.014 A 
ATOM     13  C5  <0> A   1       1.221  -0.680  -0.014  0.00  0.00    +0.072 A 
ATOM     14  C6  <0> A   1       0.002  -0.004   0.002  0.00  0.00    -0.064 A 
ATOM     15  F1  <0> A   1       3.538   2.111  -0.021  0.00  0.00    -0.137 F 
ENDBRANCH   1  14
BRANCH   6  16
ATOM     16  C13 <0> A   1      -0.445  -2.121  -1.919  0.00  0.00    +0.042 C 
ATOM     17  C14 <0> A   1      -0.060  -3.380  -2.085  0.00  0.00    -0.002 C 
BRANCH  17  18
ATOM     18  C15 <0> A   1       1.002  -3.715  -3.101  0.00  0.00    +0.243 C 
ATOM     19  C16 <0> A   1       2.140  -4.478  -2.418  0.00  0.00    +0.051 C 
ATOM     20  C17 <0> A   1       3.236  -4.780  -3.445  0.00  0.00    +0.186 C 
ATOM     21  C18 <0> A   1       3.754  -3.457  -4.022  0.00  0.00    +0.024 C 
ATOM     22  C19 <0> A   1       2.567  -2.652  -4.505  0.00  0.00    +0.497 C 
ATOM     23  O1  <0> A   1       2.560  -2.154  -5.606  0.00  0.00    -0.449 OA
ATOM     24  O2  <0> A   1       1.517  -2.506  -3.670  0.00  0.00    -0.368 OA
BRANCH  20  25
ATOM     25  O3  <0> A   1       2.698  -5.586  -4.496  0.00  0.00    -0.564 OA
ATOM     26  H15 <0> A   1       3.339  -5.816  -5.183  0.00  0.00    +0.388 HD
ENDBRANCH  20  25
ENDBRANCH  17  18
ENDBRANCH   6  16
TORSDOF 4
