REMARK  Name = CHEMBL429487
REMARK  16 active torsions:
REMARK  status: ('A' for Active; 'I' for Inactive)
REMARK    1  A    between atoms: C1_1  and  C2_2
REMARK    2  A    between atoms: C2_2  and  C3_3
REMARK    3  A    between atoms: C2_2  and  C4_4
REMARK    4  A    between atoms: C5_5  and  S1_35
REMARK    5  A    between atoms: C6_6  and  C21_29
REMARK    6  A    between atoms: C7_7  and  C15_22
REMARK    7  A    between atoms: N1_8  and  C8_9
REMARK    8  A    between atoms: C8_9  and  C9_10
REMARK    9  A    between atoms: C9_10  and  C10_11
REMARK   10  A    between atoms: C10_11  and  C11_13
REMARK   11  A    between atoms: C10_11  and  O4_21
REMARK   12  A    between atoms: C11_13  and  C12_14
REMARK   13  A    between atoms: C12_14  and  C13_16
REMARK   14  A    between atoms: C12_14  and  O3_20
REMARK   15  A    between atoms: C13_16  and  C14_17
REMARK   16  A    between atoms: S1_35  and  N2_38
REMARK                            x       y       z     vdW  Elec       q    Type
REMARK                         _______ _______ _______ _____ _____    ______ ____
ROOT
ATOM      1  C4  <0> A   1       0.536  -0.637  -1.405  0.00  0.00    +0.174 C 
ATOM      2  C5  <0> A   1       1.618  -1.415  -1.599  0.00  0.00    -0.735 C 
ATOM      3  C6  <0> A   1       1.933  -1.376  -2.978  0.00  0.00    -0.022 C 
ATOM      4  C7  <0> A   1       0.999  -0.550  -3.579  0.00  0.00    +0.059 C 
ATOM      5  N1  <0> A   1       0.146  -0.111  -2.601  0.00  0.00    -0.412 N 
ENDROOT
BRANCH   4   6
ATOM      6  C15 <0> A   1       0.931  -0.209  -5.014  0.00  0.00    -0.027 A 
ATOM      7  C16 <0> A   1      -0.296  -0.227  -5.681  0.00  0.00    +0.045 A 
ATOM      8  C17 <0> A   1      -0.354   0.092  -7.022  0.00  0.00    -0.008 A 
ATOM      9  C18 <0> A   1       0.802   0.430  -7.707  0.00  0.00    +0.105 A 
ATOM     10  C19 <0> A   1       2.023   0.449  -7.050  0.00  0.00    -0.008 A 
ATOM     11  C20 <0> A   1       2.092   0.138  -5.708  0.00  0.00    +0.075 A 
ATOM     12  F1  <0> A   1       0.740   0.740  -9.020  0.00  0.00    -0.137 F 
ENDBRANCH   4   6
BRANCH   3  13
ATOM     13  C21 <0> A   1       3.049  -2.083  -3.649  0.00  0.00    -0.034 A 
ATOM     14  C22 <0> A   1       4.370  -1.758  -3.342  0.00  0.00    +0.061 A 
ATOM     15  C23 <0> A   1       5.405  -2.420  -3.970  0.00  0.00    -0.000 A 
ATOM     16  C24 <0> A   1       5.134  -3.405  -4.904  0.00  0.00    +0.003 A 
ATOM     17  C25 <0> A   1       3.826  -3.731  -5.213  0.00  0.00    -0.009 A 
ATOM     18  C26 <0> A   1       2.783  -3.080  -4.587  0.00  0.00    +0.018 A 
ENDBRANCH   3  13
BRANCH   1  20
ATOM     19  C1  <0> A   1      -0.241   1.112   0.172  0.00  0.00    +0.040 C 
ATOM     20  C2  <0> A   1      -0.140  -0.394  -0.080  0.00  0.00    +0.059 C 
ATOM     21  C3  <0> A   1      -1.544  -1.002  -0.104  0.00  0.00    +0.039 C 
ENDBRANCH   1  20
BRANCH   2  22
ATOM     22  S1  <0> A   1       2.485  -2.319  -0.359  0.00  0.00    +2.727 S 
ATOM     23  O5  <0> A   1       3.804  -2.517  -0.849  0.00  0.00    -0.947 OA
ATOM     24  O6  <0> A   1       2.221  -1.668   0.877  0.00  0.00    -0.962 OA
BRANCH  22  25
ATOM     25  N2  <0> A   1       1.786  -3.816  -0.265  0.00  0.00    -1.011 NA
ATOM     26  C27 <0> A   1       0.660  -4.183   0.607  0.00  0.00    +0.254 C 
ATOM     27  C28 <0> A   1       0.369  -5.680   0.374  0.00  0.00    +0.028 C 
ATOM     28  C29 <0> A   1       1.710  -6.211  -0.197  0.00  0.00    +0.029 C 
ATOM     29  C30 <0> A   1       2.184  -5.002  -1.046  0.00  0.00    +0.268 C 
ENDBRANCH  22  25
ENDBRANCH   2  22
BRANCH   5  30
ATOM     30  C8  <0> A   1      -0.997   0.783  -2.806  0.00  0.00    +0.294 C 
BRANCH  30  31
ATOM     31  C9  <0> A   1      -0.519   2.236  -2.775  0.00  0.00    -0.015 C 
BRANCH  31  32
ATOM     32  C10 <0> A   1      -1.720   3.171  -2.933  0.00  0.00    +0.218 C 
BRANCH  32  33
ATOM     33  O4  <0> A   1      -2.584   3.033  -1.803  0.00  0.00    -0.540 OA
ATOM     34  H19 <0> A   1      -2.164   3.248  -0.959  0.00  0.00    +0.366 HD
ENDBRANCH  32  33
BRANCH  32  35
ATOM     35  C11 <0> A   1      -1.232   4.618  -3.028  0.00  0.00    -0.047 C 
BRANCH  35  36
ATOM     36  C12 <0> A   1      -2.420   5.540  -3.310  0.00  0.00    +0.232 C 
BRANCH  36  37
ATOM     37  O3  <0> A   1      -3.317   5.516  -2.198  0.00  0.00    -0.528 OA
ATOM     38  H18 <0> A   1      -2.920   5.808  -1.366  0.00  0.00    +0.350 HD
ENDBRANCH  36  37
BRANCH  36  39
ATOM     39  C13 <0> A   1      -1.916   6.968  -3.529  0.00  0.00    -0.102 C 
BRANCH  39  40
ATOM     40  C14 <0> A   1      -3.070   7.852  -3.927  0.00  0.00    +0.491 C 
ATOM     41  O1  <0> A   1      -4.191   7.383  -4.028  0.00  0.00    -0.681 OA
ATOM     42  O2  <0> A   1      -2.882   9.036  -4.149  0.00  0.00    -0.712 OA
ENDBRANCH  39  40
ENDBRANCH  36  39
ENDBRANCH  35  36
ENDBRANCH  32  35
ENDBRANCH  31  32
ENDBRANCH  30  31
ENDBRANCH   5  30
TORSDOF 14
