REMARK VINA RESULT:      -8.0     15.448     20.647
REMARK  Name = CHEMBL262322
REMARK  16 active torsions:
REMARK  status: ('A' for Active; 'I' for Inactive)
REMARK    1  A    between atoms: C1_1  and  C2_2
REMARK    2  A    between atoms: C2_2  and  C3_3
REMARK    3  A    between atoms: C2_2  and  N1_4
REMARK    4  A    between atoms: C4_5  and  C26_31
REMARK    5  A    between atoms: C5_6  and  C20_24
REMARK    6  A    between atoms: C6_7  and  C15_18
REMARK    7  A    between atoms: C7_8  and  C8_9
REMARK    8  A    between atoms: N2_11  and  C9_12
REMARK    9  A    between atoms: C26_31  and  C27_32
REMARK   10  A    between atoms: C27_32  and  C28_33
REMARK   11  A    between atoms: C28_33  and  C29_35
REMARK   12  A    between atoms: C28_33  and  O5_43
REMARK   13  A    between atoms: C29_35  and  C30_36
REMARK   14  A    between atoms: C30_36  and  C31_38
REMARK   15  A    between atoms: C30_36  and  O4_42
REMARK   16  A    between atoms: C31_38  and  C32_39
REMARK                            x       y       z     vdW  Elec       q    Type
REMARK                         _______ _______ _______ _____ _____    ______ ____
ROOT
ATOM      1  N1  <0> A   1     -28.570  -4.632  52.252  0.00  0.00    -0.394 N 
ATOM      2  C4  <0> A   1     -27.933  -5.787  51.943  0.00  0.00    +0.070 C 
ATOM      3  C5  <0> A   1     -26.668  -5.498  51.522  0.00  0.00    -0.097 C 
ATOM      4  C6  <0> A   1     -26.514  -4.089  51.575  0.00  0.00    -0.059 C 
ATOM      5  C7  <0> A   1     -27.722  -3.574  52.029  0.00  0.00    -0.028 C 
ENDROOT
BRANCH   3   6
ATOM      6  C20 <0> A   1     -25.642  -6.478  51.090  0.00  0.00    +0.006 A 
ATOM      7  C21 <0> A   1     -25.417  -6.704  49.734  0.00  0.00    +0.046 A 
ATOM      8  C22 <0> A   1     -24.462  -7.617  49.337  0.00  0.00    -0.021 A 
ATOM      9  C23 <0> A   1     -23.726  -8.310  50.286  0.00  0.00    +0.094 A 
ATOM     10  C24 <0> A   1     -23.947  -8.089  51.635  0.00  0.00    -0.022 A 
ATOM     11  C25 <0> A   1     -24.896  -7.173  52.041  0.00  0.00    +0.071 A 
ATOM     12  F1  <0> A   1     -22.792  -9.203  49.892  0.00  0.00    -0.144 F 
ENDBRANCH   3   6
BRANCH   4  13
ATOM     13  C15 <0> A   1     -25.305  -3.318  51.209  0.00  0.00    +0.202 A 
ATOM     14  C16 <0> A   1     -24.057  -3.718  51.688  0.00  0.00    -0.046 A 
ATOM     15  C17 <0> A   1     -22.937  -2.988  51.337  0.00  0.00    +0.063 A 
ATOM     16  C18 <0> A   1     -23.098  -1.880  50.517  0.00  0.00    -0.047 A 
ATOM     17  C19 <0> A   1     -24.364  -1.539  50.077  0.00  0.00    +0.263 A 
ATOM     18  N3  <0> A   1     -25.414  -2.255  50.421  0.00  0.00    -0.460 NA
ENDBRANCH   4  13
BRANCH   5  19
ATOM     19  C8  <0> A   1     -28.034  -2.157  52.237  0.00  0.00    +0.604 C 
ATOM     20  O1  <0> A   1     -27.915  -1.664  53.344  0.00  0.00    -0.496 OA
ATOM     21  N2  <0> A   1     -28.451  -1.400  51.203  0.00  0.00    -0.667 N 
ATOM     22  H10 <0> A   1     -28.644  -1.813  50.347  0.00  0.00    +0.415 HD
BRANCH  21  23
ATOM     23  C9  <0> A   1     -28.606  -0.020  51.365  0.00  0.00    +0.144 A 
ATOM     24  C10 <0> A   1     -27.560   0.839  51.057  0.00  0.00    +0.011 A 
ATOM     25  C11 <0> A   1     -27.716   2.201  51.218  0.00  0.00    +0.028 A 
ATOM     26  C12 <0> A   1     -28.913   2.711  51.686  0.00  0.00    -0.010 A 
ATOM     27  C13 <0> A   1     -29.958   1.858  51.994  0.00  0.00    +0.027 A 
ATOM     28  C14 <0> A   1     -29.809   0.495  51.829  0.00  0.00    -0.017 A 
ENDBRANCH  21  23
ENDBRANCH   5  19
BRANCH   1  30
ATOM     29  C1  <0> A   1     -30.918  -4.864  51.607  0.00  0.00    +0.043 C 
ATOM     30  C2  <0> A   1     -29.947  -4.529  52.742  0.00  0.00    +0.231 C 
ATOM     31  C3  <0> A   1     -30.153  -5.512  53.896  0.00  0.00    +0.047 C 
ENDBRANCH   1  30
BRANCH   2  32
ATOM     32  C26 <0> A   1     -28.527  -7.168  52.046  0.00  0.00    +0.121 C 
BRANCH  32  33
ATOM     33  C27 <0> A   1     -28.861  -7.686  50.646  0.00  0.00    -0.007 C 
BRANCH  33  34
ATOM     34  C28 <0> A   1     -29.232  -9.168  50.726  0.00  0.00    +0.213 C 
BRANCH  34  35
ATOM     35  O5  <0> A   1     -28.043  -9.952  50.844  0.00  0.00    -0.542 OA
ATOM     36  H33 <0> A   1     -27.686  -9.992  51.741  0.00  0.00    +0.363 HD
ENDBRANCH  34  35
BRANCH  34  37
ATOM     37  C29 <0> A   1     -30.122  -9.406  51.946  0.00  0.00    -0.051 C 
BRANCH  37  38
ATOM     38  C30 <0> A   1     -30.897 -10.713  51.767  0.00  0.00    +0.231 C 
BRANCH  38  39
ATOM     39  O4  <0> A   1     -30.558 -11.298  50.508  0.00  0.00    -0.528 OA
ATOM     40  H32 <0> A   1     -31.068 -12.091  50.292  0.00  0.00    +0.349 HD
ENDBRANCH  38  39
BRANCH  38  41
ATOM     41  C31 <0> A   1     -30.530 -11.681  52.894  0.00  0.00    -0.103 C 
BRANCH  41  42
ATOM     42  C32 <0> A   1     -29.685 -12.799  52.340  0.00  0.00    +0.490 C 
ATOM     43  O2  <0> A   1     -30.187 -13.883  52.102  0.00  0.00    -0.681 OA
ATOM     44  O3  <0> A   1     -28.498 -12.617  52.130  0.00  0.00    -0.713 OA
ENDBRANCH  41  42
ENDBRANCH  38  41
ENDBRANCH  37  38
ENDBRANCH  34  37
ENDBRANCH  33  34
ENDBRANCH  32  33
ENDBRANCH   2  32
TORSDOF 14
