REMARK VINA RESULT:      -7.5      2.891      5.712
REMARK  Name = CHEMBL424546
REMARK  3 active torsions:
REMARK  status: ('A' for Active; 'I' for Inactive)
REMARK    1  A    between atoms: C13_14  and  C14_15
REMARK    2  A    between atoms: C14_15  and  C15_16
REMARK    3  A    between atoms: C17_18  and  O3_24
REMARK                            x       y       z     vdW  Elec       q    Type
REMARK                         _______ _______ _______ _____ _____    ______ ____
ROOT
ATOM      1  C1  <0> A   1     -13.438   9.368  41.184  0.00  0.00    +0.001 A 
ATOM      2  C2  <0> A   1     -13.717   8.669  42.346  0.00  0.00    +0.071 A 
ATOM      3  C3  <0> A   1     -13.575   9.284  43.572  0.00  0.00    -0.097 A 
ATOM      4  C4  <0> A   1     -13.153  10.608  43.651  0.00  0.00    -0.021 A 
ATOM      5  C5  <0> A   1     -12.872  11.309  42.476  0.00  0.00    +0.009 A 
ATOM      6  C6  <0> A   1     -13.016  10.686  41.251  0.00  0.00    +0.105 A 
ATOM      7  F1  <0> A   1     -12.743  11.365  40.115  0.00  0.00    -0.135 F 
ATOM      8  C7  <0> A   1     -13.085  11.021  45.074  0.00  0.00    -0.026 A 
ATOM      9  C8  <0> A   1     -12.722  12.234  45.663  0.00  0.00    +0.065 A 
ATOM     10  C9  <0> A   1     -12.744  12.367  47.037  0.00  0.00    -0.020 A 
ATOM     11  C10 <0> A   1     -13.125  11.303  47.835  0.00  0.00    +0.053 A 
ATOM     12  C11 <0> A   1     -13.486  10.097  47.257  0.00  0.00    +0.006 A 
ATOM     13  C12 <0> A   1     -13.467   9.956  45.885  0.00  0.00    -0.050 A 
ATOM     14  C13 <0> A   1     -13.800   8.794  44.981  0.00  0.00    +0.111 C 
ATOM     15 Cl1  <0> A   1     -13.962   8.762  48.260  0.00  0.00    -0.056 Cl
ATOM     16 Cl2  <0> A   1     -12.292  13.877  47.767  0.00  0.00    -0.053 Cl
ENDROOT
BRANCH  14  17
ATOM     17  C14 <0> A   1     -12.875   7.612  45.282  0.00  0.00    +0.087 C 
BRANCH  17  18
ATOM     18  C15 <0> A   1     -13.715   6.361  45.544  0.00  0.00    +0.196 C 
ATOM     19  C16 <0> A   1     -13.731   5.485  44.288  0.00  0.00    +0.041 C 
ATOM     20  C17 <0> A   1     -14.608   4.253  44.540  0.00  0.00    +0.184 C 
ATOM     21  C18 <0> A   1     -16.029   4.717  44.883  0.00  0.00    +0.016 C 
ATOM     22  C19 <0> A   1     -15.940   5.735  46.000  0.00  0.00    +0.493 C 
ATOM     23  O1  <0> A   1     -16.641   5.645  46.979  0.00  0.00    -0.448 OA
ATOM     24  O2  <0> A   1     -15.056   6.745  45.870  0.00  0.00    -0.357 OA
BRANCH  20  25
ATOM     25  O3  <0> A   1     -14.073   3.499  45.630  0.00  0.00    -0.562 OA
ATOM     26  H15 <0> A   1     -14.242   3.889  46.498  0.00  0.00    +0.386 HD
ENDBRANCH  20  25
ENDBRANCH  17  18
ENDBRANCH  14  17
TORSDOF 3
