REMARK VINA RESULT:      -8.5      0.000      0.000
REMARK  Name = CHEMBL427854
REMARK  15 active torsions:
REMARK  status: ('A' for Active; 'I' for Inactive)
REMARK    1  A    between atoms: C1_1  and  C2_2
REMARK    2  A    between atoms: C2_2  and  N1_3
REMARK    3  A    between atoms: C3_4  and  C21_25
REMARK    4  A    between atoms: C4_5  and  C15_18
REMARK    5  A    between atoms: C5_6  and  C14_17
REMARK    6  A    between atoms: C6_7  and  C7_8
REMARK    7  A    between atoms: N2_10  and  C8_11
REMARK    8  A    between atoms: C21_25  and  C22_26
REMARK    9  A    between atoms: C22_26  and  C23_27
REMARK   10  A    between atoms: C23_27  and  C24_29
REMARK   11  A    between atoms: C23_27  and  O5_37
REMARK   12  A    between atoms: C24_29  and  C25_30
REMARK   13  A    between atoms: C25_30  and  C26_32
REMARK   14  A    between atoms: C25_30  and  O4_36
REMARK   15  A    between atoms: C26_32  and  C27_33
REMARK                            x       y       z     vdW  Elec       q    Type
REMARK                         _______ _______ _______ _____ _____    ______ ____
ROOT
ATOM      1  N1  <0> A   1     -15.109   6.866  45.914  0.00  0.00    -0.407 N 
ATOM      2  C3  <0> A   1     -14.167   7.781  45.602  0.00  0.00    +0.082 C 
ATOM      3  C4  <0> A   1     -14.488   8.960  46.210  0.00  0.00    -0.141 C 
ATOM      4  C5  <0> A   1     -15.684   8.755  46.926  0.00  0.00    -0.082 C 
ATOM      5  C6  <0> A   1     -16.052   7.455  46.724  0.00  0.00    -0.059 C 
ATOM      6  C14 <0> A   1     -16.419   9.777  47.753  0.00  0.00    +0.110 C 
ENDROOT
BRANCH   3   7
ATOM      7  C15 <0> A   1     -13.718  10.228  46.131  0.00  0.00    -0.009 A 
ATOM      8  C16 <0> A   1     -12.745  10.515  47.086  0.00  0.00    +0.050 A 
ATOM      9  C17 <0> A   1     -12.032  11.693  47.009  0.00  0.00    -0.016 A 
ATOM     10  C18 <0> A   1     -12.283  12.591  45.984  0.00  0.00    +0.094 A 
ATOM     11  C19 <0> A   1     -13.250  12.311  45.032  0.00  0.00    -0.016 A 
ATOM     12  C20 <0> A   1     -13.964  11.131  45.099  0.00  0.00    +0.053 A 
ATOM     13  F1  <0> A   1     -11.582  13.744  45.912  0.00  0.00    -0.142 F 
ENDBRANCH   3   7
BRANCH   5  14
ATOM     14  C7  <0> A   1     -17.244   6.801  47.276  0.00  0.00    +0.602 C 
ATOM     15  O1  <0> A   1     -18.178   6.523  46.548  0.00  0.00    -0.498 OA
ATOM     16  N2  <0> A   1     -17.302   6.506  48.591  0.00  0.00    -0.661 N 
ATOM     17  H8  <0> A   1     -16.620   6.838  49.193  0.00  0.00    +0.415 HD
BRANCH  16  18
ATOM     18  C8  <0> A   1     -18.349   5.721  49.085  0.00  0.00    +0.144 A 
ATOM     19  C9  <0> A   1     -19.606   6.279  49.280  0.00  0.00    +0.017 A 
ATOM     20  C10 <0> A   1     -20.637   5.501  49.769  0.00  0.00    +0.026 A 
ATOM     21  C11 <0> A   1     -20.420   4.167  50.063  0.00  0.00    -0.019 A 
ATOM     22  C12 <0> A   1     -19.170   3.608  49.869  0.00  0.00    +0.026 A 
ATOM     23  C13 <0> A   1     -18.135   4.379  49.376  0.00  0.00    -0.027 A 
ENDBRANCH  16  18
ENDBRANCH   5  14
BRANCH   1  25
ATOM     24  C1  <0> A   1     -15.929   5.373  44.159  0.00  0.00    +0.040 C 
ATOM     25  C2  <0> A   1     -15.126   5.474  45.458  0.00  0.00    +0.280 C 
ENDBRANCH   1  25
BRANCH   2  26
ATOM     26  C21 <0> A   1     -12.962   7.540  44.731  0.00  0.00    +0.117 C 
BRANCH  26  27
ATOM     27  C22 <0> A   1     -13.329   7.803  43.269  0.00  0.00    -0.007 C 
BRANCH  27  28
ATOM     28  C23 <0> A   1     -12.119   7.512  42.379  0.00  0.00    +0.212 C 
BRANCH  28  29
ATOM     29  O5  <0> A   1     -11.924   6.099  42.288  0.00  0.00    -0.542 OA
ATOM     30  H30 <0> A   1     -12.405   5.681  41.561  0.00  0.00    +0.363 HD
ENDBRANCH  28  29
BRANCH  28  31
ATOM     31  C24 <0> A   1     -12.366   8.083  40.980  0.00  0.00    -0.051 C 
BRANCH  31  32
ATOM     32  C25 <0> A   1     -12.916   9.505  41.101  0.00  0.00    +0.231 C 
BRANCH  32  33
ATOM     33  O4  <0> A   1     -11.832  10.436  41.112  0.00  0.00    -0.528 OA
ATOM     34  H29 <0> A   1     -11.949  11.183  40.510  0.00  0.00    +0.349 HD
ENDBRANCH  32  33
BRANCH  32  35
ATOM     35  C26 <0> A   1     -13.830   9.801  39.909  0.00  0.00    -0.103 C 
BRANCH  35  36
ATOM     36  C27 <0> A   1     -13.923  11.292  39.707  0.00  0.00    +0.490 C 
ATOM     37  O2  <0> A   1     -13.327  11.821  38.784  0.00  0.00    -0.681 OA
ATOM     38  O3  <0> A   1     -14.596  11.969  40.466  0.00  0.00    -0.713 OA
ENDBRANCH  35  36
ENDBRANCH  32  35
ENDBRANCH  31  32
ENDBRANCH  28  31
ENDBRANCH  27  28
ENDBRANCH  26  27
ENDBRANCH   2  26
TORSDOF 13
