REMARK VINA RESULT:      -8.0      2.749      8.822
REMARK  Name = CHEMBL254036
REMARK  16 active torsions:
REMARK  status: ('A' for Active; 'I' for Inactive)
REMARK    1  A    between atoms: C1_1  and  C2_2
REMARK    2  A    between atoms: C2_2  and  C3_3
REMARK    3  A    between atoms: C2_2  and  C4_4
REMARK    4  A    between atoms: C5_5  and  C21_26
REMARK    5  A    between atoms: N2_7  and  C15_19
REMARK    6  A    between atoms: C6_8  and  C7_9
REMARK    7  A    between atoms: N3_11  and  C8_12
REMARK    8  A    between atoms: C8_12  and  C9_13
REMARK    9  A    between atoms: C21_26  and  C22_27
REMARK   10  A    between atoms: C22_27  and  C23_28
REMARK   11  A    between atoms: C23_28  and  C24_30
REMARK   12  A    between atoms: C23_28  and  O5_38
REMARK   13  A    between atoms: C24_30  and  C25_31
REMARK   14  A    between atoms: C25_31  and  C26_33
REMARK   15  A    between atoms: C25_31  and  O4_37
REMARK   16  A    between atoms: C26_33  and  C27_34
REMARK                            x       y       z     vdW  Elec       q    Type
REMARK                         _______ _______ _______ _____ _____    ______ ____
ROOT
ATOM      1  C4  <0> A   1     -15.478   6.943  46.060  0.00  0.00    -0.123 C 
ATOM      2  C5  <0> A   1     -16.393   7.179  47.089  0.00  0.00    +0.056 C 
ATOM      3  N1  <0> A   1     -16.099   8.334  47.631  0.00  0.00    -0.273 NA
ATOM      4  N2  <0> A   1     -15.083   8.867  47.054  0.00  0.00    -0.230 N 
ATOM      5  C6  <0> A   1     -14.636   8.042  46.058  0.00  0.00    -0.035 C 
ENDROOT
BRANCH   4   6
ATOM      6  C15 <0> A   1     -14.517  10.103  47.395  0.00  0.00    +0.120 A 
ATOM      7  C16 <0> A   1     -13.471  10.159  48.306  0.00  0.00    +0.057 A 
ATOM      8  C17 <0> A   1     -12.914  11.378  48.642  0.00  0.00    +0.015 A 
ATOM      9  C18 <0> A   1     -13.398  12.543  48.069  0.00  0.00    +0.109 A 
ATOM     10  C19 <0> A   1     -14.442  12.488  47.161  0.00  0.00    +0.012 A 
ATOM     11  C20 <0> A   1     -14.999  11.271  46.819  0.00  0.00    +0.080 A 
ATOM     12  F1  <0> A   1     -12.853  13.733  48.399  0.00  0.00    -0.132 F 
ENDBRANCH   4   6
BRANCH   5  13
ATOM     13  C7  <0> A   1     -13.493   8.277  45.164  0.00  0.00    +0.602 C 
ATOM     14  O1  <0> A   1     -12.403   7.810  45.434  0.00  0.00    -0.514 OA
ATOM     15  N3  <0> A   1     -13.652   9.010  44.044  0.00  0.00    -0.713 N 
ATOM     16  H10 <0> A   1     -14.502   9.445  43.866  0.00  0.00    +0.405 HD
BRANCH  15  17
ATOM     17  C8  <0> A   1     -12.545   9.152  43.097  0.00  0.00    +0.324 C 
BRANCH  17  18
ATOM     18  C9  <0> A   1     -13.029   9.867  41.861  0.00  0.00    -0.112 A 
ATOM     19  C10 <0> A   1     -13.973  10.870  41.969  0.00  0.00    +0.027 A 
ATOM     20  C11 <0> A   1     -14.417  11.526  40.835  0.00  0.00    +0.004 A 
ATOM     21  C12 <0> A   1     -13.916  11.178  39.595  0.00  0.00    +0.014 A 
ATOM     22  C13 <0> A   1     -12.971  10.174  39.488  0.00  0.00    +0.002 A 
ATOM     23  C14 <0> A   1     -12.524   9.522  40.622  0.00  0.00    +0.024 A 
ENDBRANCH  17  18
ENDBRANCH  15  17
ENDBRANCH   5  13
BRANCH   1  25
ATOM     24  C1  <0> A   1     -15.264   4.474  45.993  0.00  0.00    +0.023 C 
ATOM     25  C2  <0> A   1     -15.415   5.742  45.151  0.00  0.00    +0.066 C 
ATOM     26  C3  <0> A   1     -16.701   5.658  44.328  0.00  0.00    +0.030 C 
ENDBRANCH   1  25
BRANCH   2  27
ATOM     27  C21 <0> A   1     -17.520   6.267  47.500  0.00  0.00    +0.141 C 
BRANCH  27  28
ATOM     28  C22 <0> A   1     -18.852   6.860  47.037  0.00  0.00    -0.007 C 
BRANCH  28  29
ATOM     29  C23 <0> A   1     -19.874   6.766  48.171  0.00  0.00    +0.212 C 
BRANCH  29  30
ATOM     30  O5  <0> A   1     -20.751   5.663  47.932  0.00  0.00    -0.542 OA
ATOM     31  H31 <0> A   1     -21.522   5.639  48.513  0.00  0.00    +0.364 HD
ENDBRANCH  29  30
BRANCH  29  32
ATOM     32  C24 <0> A   1     -19.144   6.557  49.500  0.00  0.00    -0.052 C 
BRANCH  32  33
ATOM     33  C25 <0> A   1     -19.954   7.193  50.632  0.00  0.00    +0.230 C 
BRANCH  33  34
ATOM     34  O4  <0> A   1     -21.141   7.781  50.096  0.00  0.00    -0.528 OA
ATOM     35  H30 <0> A   1     -21.539   8.453  50.667  0.00  0.00    +0.350 HD
ENDBRANCH  33  34
BRANCH  33  36
ATOM     36  C26 <0> A   1     -20.333   6.119  51.653  0.00  0.00    -0.103 C 
BRANCH  36  37
ATOM     37  C27 <0> A   1     -21.692   5.563  51.317  0.00  0.00    +0.490 C 
ATOM     38  O2  <0> A   1     -22.676   5.945  51.928  0.00  0.00    -0.681 OA
ATOM     39  O3  <0> A   1     -21.809   4.732  50.434  0.00  0.00    -0.714 OA
ENDBRANCH  36  37
ENDBRANCH  33  36
ENDBRANCH  32  33
ENDBRANCH  29  32
ENDBRANCH  28  29
ENDBRANCH  27  28
ENDBRANCH   2  27
TORSDOF 14
