REMARK VINA RESULT:      -8.5      2.868      5.045
REMARK  Name = CHEMBL228528
REMARK  14 active torsions:
REMARK  status: ('A' for Active; 'I' for Inactive)
REMARK    1  A    between atoms: C1_1  and  C2_2
REMARK    2  A    between atoms: C2_2  and  C3_3
REMARK    3  A    between atoms: C2_2  and  N1_4
REMARK    4  A    between atoms: C4_5  and  C27_32
REMARK    5  A    between atoms: C5_6  and  C21_25
REMARK    6  A    between atoms: N2_11  and  C15_18
REMARK    7  A    between atoms: C27_32  and  C28_33
REMARK    8  A    between atoms: C28_33  and  C29_34
REMARK    9  A    between atoms: C29_34  and  C30_36
REMARK   10  A    between atoms: C29_34  and  O5_44
REMARK   11  A    between atoms: C30_36  and  C31_37
REMARK   12  A    between atoms: C31_37  and  C32_39
REMARK   13  A    between atoms: C31_37  and  O4_43
REMARK   14  A    between atoms: C32_39  and  C33_40
REMARK                            x       y       z     vdW  Elec       q    Type
REMARK                         _______ _______ _______ _____ _____    ______ ____
ROOT
ATOM      1  N1  <0> A   1     -15.156   9.922  48.026  0.00  0.00    -0.391 N 
ATOM      2  C4  <0> A   1     -14.582   9.089  47.122  0.00  0.00    +0.111 C 
ATOM      3  C5  <0> A   1     -15.207   7.877  47.162  0.00  0.00    -0.129 C 
ATOM      4  C6  <0> A   1     -16.248   7.980  48.177  0.00  0.00    -0.042 C 
ATOM      5  C7  <0> A   1     -16.171   9.274  48.691  0.00  0.00    -0.046 C 
ATOM      6  C8  <0> A   1     -17.067   9.669  49.709  0.00  0.00    +0.582 C 
ATOM      7  O1  <0> A   1     -17.001  10.801  50.156  0.00  0.00    -0.519 OA
ATOM      8  N2  <0> A   1     -17.991   8.824  50.198  0.00  0.00    -0.482 N 
ATOM      9  C9  <0> A   1     -18.116   7.526  49.733  0.00  0.00    +0.159 A 
ATOM     10  C10 <0> A   1     -17.264   7.063  48.714  0.00  0.00    -0.049 A 
ATOM     11  C11 <0> A   1     -17.386   5.757  48.245  0.00  0.00    +0.066 A 
ATOM     12  C12 <0> A   1     -18.352   4.928  48.774  0.00  0.00    -0.009 A 
ATOM     13  C13 <0> A   1     -19.201   5.389  49.768  0.00  0.00    +0.047 A 
ATOM     14  C14 <0> A   1     -19.080   6.673  50.256  0.00  0.00    -0.019 A 
ENDROOT
BRANCH   8  15
ATOM     15  C15 <0> A   1     -18.853   9.268  51.207  0.00  0.00    +0.157 A 
ATOM     16  C16 <0> A   1     -18.414   9.324  52.524  0.00  0.00    +0.025 A 
ATOM     17  C17 <0> A   1     -19.266   9.764  53.518  0.00  0.00    +0.063 A 
ATOM     18  C18 <0> A   1     -20.557  10.149  53.205  0.00  0.00    +0.001 A 
ATOM     19  C19 <0> A   1     -20.998  10.095  51.893  0.00  0.00    +0.110 A 
ATOM     20  C20 <0> A   1     -20.147   9.661  50.893  0.00  0.00    +0.003 A 
ATOM     21  F1  <0> A   1     -22.260  10.472  51.590  0.00  0.00    -0.133 F 
ENDBRANCH   8  15
BRANCH   3  22
ATOM     22  C21 <0> A   1     -14.888   6.688  46.335  0.00  0.00    -0.013 A 
ATOM     23  C22 <0> A   1     -13.926   5.775  46.763  0.00  0.00    +0.054 A 
ATOM     24  C23 <0> A   1     -13.633   4.670  45.992  0.00  0.00    -0.012 A 
ATOM     25  C24 <0> A   1     -14.293   4.467  44.790  0.00  0.00    +0.098 A 
ATOM     26  C25 <0> A   1     -15.248   5.372  44.359  0.00  0.00    -0.014 A 
ATOM     27  C26 <0> A   1     -15.553   6.477  45.128  0.00  0.00    +0.054 A 
ATOM     28  F2  <0> A   1     -14.002   3.385  44.036  0.00  0.00    -0.140 F 
ENDBRANCH   3  22
BRANCH   1  30
ATOM     29  C1  <0> A   1     -13.229  11.367  48.452  0.00  0.00    +0.045 C 
ATOM     30  C2  <0> A   1     -14.747  11.308  48.266  0.00  0.00    +0.229 C 
ATOM     31  C3  <0> A   1     -15.149  12.173  47.069  0.00  0.00    +0.046 C 
ENDBRANCH   1  30
BRANCH   2  32
ATOM     32  C27 <0> A   1     -13.435   9.448  46.213  0.00  0.00    +0.122 C 
BRANCH  32  33
ATOM     33  C28 <0> A   1     -13.963   9.688  44.796  0.00  0.00    -0.005 C 
BRANCH  33  34
ATOM     34  C29 <0> A   1     -12.908   9.250  43.778  0.00  0.00    +0.214 C 
BRANCH  34  35
ATOM     35  O5  <0> A   1     -12.562   7.883  44.009  0.00  0.00    -0.542 OA
ATOM     36  H31 <0> A   1     -13.023   7.481  44.758  0.00  0.00    +0.364 HD
ENDBRANCH  34  35
BRANCH  34  37
ATOM     37  C30 <0> A   1     -13.471   9.402  42.363  0.00  0.00    -0.051 C 
BRANCH  37  38
ATOM     38  C31 <0> A   1     -12.981  10.718  41.758  0.00  0.00    +0.231 C 
BRANCH  38  39
ATOM     39  O4  <0> A   1     -11.608  10.587  41.384  0.00  0.00    -0.528 OA
ATOM     40  H30 <0> A   1     -11.445   9.911  40.711  0.00  0.00    +0.349 HD
ENDBRANCH  38  39
BRANCH  38  41
ATOM     41  C32 <0> A   1     -13.816  11.053  40.521  0.00  0.00    -0.103 C 
BRANCH  41  42
ATOM     42  C33 <0> A   1     -12.938  11.017  39.297  0.00  0.00    +0.490 C 
ATOM     43  O2  <0> A   1     -12.487  12.054  38.840  0.00  0.00    -0.681 OA
ATOM     44  O3  <0> A   1     -12.680   9.952  38.762  0.00  0.00    -0.713 OA
ENDBRANCH  41  42
ENDBRANCH  38  41
ENDBRANCH  37  38
ENDBRANCH  34  37
ENDBRANCH  33  34
ENDBRANCH  32  33
ENDBRANCH   2  32
TORSDOF 12
