REMARK VINA RESULT:      -7.8      0.000      0.000
REMARK  Name = CHEMBL389442
REMARK  15 active torsions:
REMARK  status: ('A' for Active; 'I' for Inactive)
REMARK    1  A    between atoms: C1_1  and  C2_2
REMARK    2  A    between atoms: C2_2  and  C3_3
REMARK    3  A    between atoms: C2_2  and  N1_4
REMARK    4  A    between atoms: C4_5  and  C28_33
REMARK    5  A    between atoms: C5_6  and  C22_26
REMARK    6  A    between atoms: N2_11  and  C15_18
REMARK    7  A    between atoms: C15_18  and  C16_19
REMARK    8  A    between atoms: C28_33  and  C29_34
REMARK    9  A    between atoms: C29_34  and  C30_35
REMARK   10  A    between atoms: C30_35  and  C31_37
REMARK   11  A    between atoms: C30_35  and  O5_45
REMARK   12  A    between atoms: C31_37  and  C32_38
REMARK   13  A    between atoms: C32_38  and  C33_40
REMARK   14  A    between atoms: C32_38  and  O4_44
REMARK   15  A    between atoms: C33_40  and  C34_41
REMARK                            x       y       z     vdW  Elec       q    Type
REMARK                         _______ _______ _______ _____ _____    ______ ____
ROOT
ATOM      1  N1  <0> A   1     -15.386   6.525  45.515  0.00  0.00    -0.391 N 
ATOM      2  C4  <0> A   1     -16.013   6.831  46.678  0.00  0.00    +0.107 C 
ATOM      3  C5  <0> A   1     -15.428   7.932  47.233  0.00  0.00    -0.131 C 
ATOM      4  C6  <0> A   1     -14.355   8.331  46.329  0.00  0.00    -0.046 C 
ATOM      5  C7  <0> A   1     -14.368   7.416  45.276  0.00  0.00    -0.043 C 
ATOM      6  C8  <0> A   1     -13.421   7.550  44.234  0.00  0.00    +0.575 C 
ATOM      7  O1  <0> A   1     -13.435   6.753  43.311  0.00  0.00    -0.515 OA
ATOM      8  N2  <0> A   1     -12.507   8.536  44.236  0.00  0.00    -0.516 N 
ATOM      9  C9  <0> A   1     -12.442   9.469  45.255  0.00  0.00    +0.167 A 
ATOM     10  C10 <0> A   1     -13.355   9.407  46.321  0.00  0.00    -0.054 A 
ATOM     11  C11 <0> A   1     -13.290  10.347  47.349  0.00  0.00    +0.065 A 
ATOM     12  C12 <0> A   1     -12.338  11.342  47.305  0.00  0.00    -0.017 A 
ATOM     13  C13 <0> A   1     -11.447  11.414  46.245  0.00  0.00    +0.045 A 
ATOM     14  C14 <0> A   1     -11.486  10.478  45.232  0.00  0.00    -0.031 A 
ENDROOT
BRANCH   3  15
ATOM     15  C22 <0> A   1     -15.811   8.594  48.503  0.00  0.00    -0.011 A 
ATOM     16  C23 <0> A   1     -16.739   9.632  48.499  0.00  0.00    +0.054 A 
ATOM     17  C24 <0> A   1     -17.091  10.245  49.684  0.00  0.00    -0.012 A 
ATOM     18  C25 <0> A   1     -16.523   9.830  50.877  0.00  0.00    +0.097 A 
ATOM     19  C26 <0> A   1     -15.599   8.798  50.887  0.00  0.00    -0.015 A 
ATOM     20  C27 <0> A   1     -15.244   8.175  49.707  0.00  0.00    +0.052 A 
ATOM     21  F2  <0> A   1     -16.870  10.433  52.035  0.00  0.00    -0.140 F 
ENDBRANCH   3  15
BRANCH   1  23
ATOM     22  C1  <0> A   1     -15.755   4.108  45.459  0.00  0.00    +0.045 C 
ATOM     23  C2  <0> A   1     -15.741   5.402  44.643  0.00  0.00    +0.228 C 
ATOM     24  C3  <0> A   1     -17.129   5.641  44.044  0.00  0.00    +0.046 C 
ENDBRANCH   1  23
BRANCH   8  25
ATOM     25  C15 <0> A   1     -11.552   8.622  43.128  0.00  0.00    +0.359 C 
BRANCH  25  26
ATOM     26  C16 <0> A   1     -12.225   9.248  41.933  0.00  0.00    -0.151 A 
ATOM     27  C17 <0> A   1     -12.703  10.542  42.007  0.00  0.00    +0.058 A 
ATOM     28  C18 <0> A   1     -13.320  11.115  40.911  0.00  0.00    -0.003 A 
ATOM     29  C19 <0> A   1     -13.458  10.394  39.738  0.00  0.00    +0.051 A 
ATOM     30  C20 <0> A   1     -12.980   9.101  39.662  0.00  0.00    -0.025 A 
ATOM     31  C21 <0> A   1     -12.357   8.527  40.759  0.00  0.00    +0.123 A 
ATOM     32  F1  <0> A   1     -11.885   7.264  40.683  0.00  0.00    -0.116 F 
ENDBRANCH  25  26
ENDBRANCH   8  25
BRANCH   2  33
ATOM     33  C28 <0> A   1     -17.174   6.072  47.268  0.00  0.00    +0.121 C 
BRANCH  33  34
ATOM     34  C29 <0> A   1     -18.485   6.747  46.857  0.00  0.00    -0.006 C 
BRANCH  34  35
ATOM     35  C30 <0> A   1     -19.413   6.837  48.070  0.00  0.00    +0.214 C 
BRANCH  35  36
ATOM     36  O5  <0> A   1     -20.544   5.986  47.869  0.00  0.00    -0.542 OA
ATOM     37  H33 <0> A   1     -20.337   5.161  47.407  0.00  0.00    +0.364 HD
ENDBRANCH  35  36
BRANCH  35  38
ATOM     38  C31 <0> A   1     -18.658   6.393  49.324  0.00  0.00    -0.051 C 
BRANCH  38  39
ATOM     39  C32 <0> A   1     -19.167   7.183  50.533  0.00  0.00    +0.231 C 
BRANCH  39  40
ATOM     40  O4  <0> A   1     -20.120   8.156  50.098  0.00  0.00    -0.528 OA
ATOM     41  H32 <0> A   1     -21.004   7.797  49.939  0.00  0.00    +0.349 HD
ENDBRANCH  39  40
BRANCH  39  42
ATOM     42  C33 <0> A   1     -19.831   6.226  51.524  0.00  0.00    -0.103 C 
BRANCH  42  43
ATOM     43  C34 <0> A   1     -21.315   6.182  51.262  0.00  0.00    +0.491 C 
ATOM     44  O2  <0> A   1     -22.069   6.892  51.905  0.00  0.00    -0.681 OA
ATOM     45  O3  <0> A   1     -21.761   5.438  50.406  0.00  0.00    -0.713 OA
ENDBRANCH  42  43
ENDBRANCH  39  42
ENDBRANCH  38  39
ENDBRANCH  35  38
ENDBRANCH  34  35
ENDBRANCH  33  34
ENDBRANCH   2  33
TORSDOF 13
