REMARK  Name = CHEMBL293461
REMARK  12 active torsions:
REMARK  status: ('A' for Active; 'I' for Inactive)
REMARK    1  A    between atoms: C1_1  and  C2_2
REMARK    2  A    between atoms: C2_2  and  C3_3
REMARK    3  A    between atoms: C2_2  and  C4_4
REMARK    4  A    between atoms: C5_5  and  C17_22
REMARK    5  A    between atoms: C6_6  and  C11_15
REMARK    6  A    between atoms: C18_23  and  C19_24
REMARK    7  A    between atoms: C19_24  and  C20_25
REMARK    8  A    between atoms: C19_24  and  O4_33
REMARK    9  A    between atoms: C20_25  and  C21_26
REMARK   10  A    between atoms: C21_26  and  C22_28
REMARK   11  A    between atoms: C21_26  and  O3_32
REMARK   12  A    between atoms: C22_28  and  C23_29
REMARK                            x       y       z     vdW  Elec       q    Type
REMARK                         _______ _______ _______ _____ _____    ______ ____
ROOT
ATOM      1  C4  <0> A   1      -1.412  -0.526   0.013  0.00  0.00    +0.121 C 
ATOM      2  C5  <0> A   1      -1.993  -1.346  -0.974  0.00  0.00    -0.163 C 
ATOM      3  C6  <0> A   1      -3.303  -1.597  -0.582  0.00  0.00    +0.146 C 
ATOM      4  N1  <0> A   1      -3.495  -0.944   0.603  0.00  0.00    -0.321 N 
ATOM      5  N2  <0> A   1      -2.301  -0.297   0.941  0.00  0.00    -0.273 NA
ATOM      6  C7  <0> A   1      -4.676  -0.929   1.349  0.00  0.00    +0.324 A 
ATOM      7  C8  <0> A   1      -4.632  -0.695   2.720  0.00  0.00    +0.246 A 
ATOM      8  N3  <0> A   1      -5.750  -0.681   3.421  0.00  0.00    -0.415 NA
ATOM      9  C9  <0> A   1      -6.910  -0.891   2.823  0.00  0.00    +0.212 A 
ATOM     10  C10 <0> A   1      -6.957  -1.125   1.461  0.00  0.00    +0.265 A 
ATOM     11  N4  <0> A   1      -5.842  -1.133   0.751  0.00  0.00    -0.447 NA
ENDROOT
BRANCH   3  12
ATOM     12  C11 <0> A   1      -4.298  -2.412  -1.308  0.00  0.00    -0.035 A 
ATOM     13  C12 <0> A   1      -4.449  -2.267  -2.689  0.00  0.00    +0.091 A 
ATOM     14  C13 <0> A   1      -5.380  -3.031  -3.361  0.00  0.00    -0.009 A 
ATOM     15  C14 <0> A   1      -6.163  -3.942  -2.670  0.00  0.00    +0.114 A 
ATOM     16  C15 <0> A   1      -6.017  -4.090  -1.299  0.00  0.00    -0.019 A 
ATOM     17  C16 <0> A   1      -5.085  -3.335  -0.617  0.00  0.00    +0.069 A 
ATOM     18  F1  <0> A   1      -7.072  -4.688  -3.334  0.00  0.00    -0.137 F 
ENDBRANCH   3  12
BRANCH   1  20
ATOM     19  C1  <0> A   1      -0.019   1.526   0.010  0.00  0.00    +0.039 C 
ATOM     20  C2  <0> A   1       0.002  -0.004   0.002  0.00  0.00    +0.081 C 
ATOM     21  C3  <0> A   1       0.742  -0.511   1.242  0.00  0.00    +0.039 C 
ENDBRANCH   1  20
BRANCH   2  22
ATOM     22  C17 <0> A   1      -1.334  -1.847  -2.197  0.00  0.00    +0.039 C 
ATOM     23  C18 <0> A   1      -1.391  -3.137  -2.501  0.00  0.00    -0.051 C 
BRANCH  23  24
ATOM     24  C19 <0> A   1      -0.718  -3.648  -3.749  0.00  0.00    +0.251 C 
BRANCH  24  25
ATOM     25  O4  <0> A   1       0.006  -2.583  -4.369  0.00  0.00    -0.538 OA
ATOM     26  H24 <0> A   1       0.695  -2.199  -3.810  0.00  0.00    +0.366 HD
ENDBRANCH  24  25
BRANCH  24  27
ATOM     27  C20 <0> A   1       0.247  -4.776  -3.382  0.00  0.00    -0.042 C 
BRANCH  27  28
ATOM     28  C21 <0> A   1       0.837  -5.378  -4.659  0.00  0.00    +0.230 C 
BRANCH  28  29
ATOM     29  O3  <0> A   1       1.636  -4.397  -5.323  0.00  0.00    -0.528 OA
ATOM     30  H23 <0> A   1       2.377  -4.069  -4.794  0.00  0.00    +0.350 HD
ENDBRANCH  28  29
BRANCH  28  31
ATOM     31  C22 <0> A   1       1.705  -6.585  -4.301  0.00  0.00    -0.102 C 
BRANCH  31  32
ATOM     32  C23 <0> A   1       2.186  -7.252  -5.564  0.00  0.00    +0.490 C 
ATOM     33  O1  <0> A   1       1.864  -6.802  -6.651  0.00  0.00    -0.681 OA
ATOM     34  O2  <0> A   1       2.897  -8.240  -5.499  0.00  0.00    -0.714 OA
ENDBRANCH  31  32
ENDBRANCH  28  31
ENDBRANCH  27  28
ENDBRANCH  24  27
ENDBRANCH  23  24
ENDBRANCH   2  22
TORSDOF 10
