REMARK VINA RESULT:      -8.2     18.716     23.748
REMARK  Name = CHEMBL488471
REMARK  15 active torsions:
REMARK  status: ('A' for Active; 'I' for Inactive)
REMARK    1  A    between atoms: C1_1  and  C2_2
REMARK    2  A    between atoms: C2_2  and  C3_3
REMARK    3  A    between atoms: C4_4  and  C19_26
REMARK    4  A    between atoms: N1_7  and  C7_8
REMARK    5  A    between atoms: C7_8  and  C8_9
REMARK    6  A    between atoms: C8_9  and  C9_10
REMARK    7  A    between atoms: C9_10  and  C10_12
REMARK    8  A    between atoms: C9_10  and  O4_20
REMARK    9  A    between atoms: C10_12  and  C11_13
REMARK   10  A    between atoms: C11_13  and  C12_15
REMARK   11  A    between atoms: C11_13  and  O3_19
REMARK   12  A    between atoms: C12_15  and  C13_16
REMARK   13  A    between atoms: N2_28  and  C20_29
REMARK   14  A    between atoms: C20_29  and  C21_30
REMARK   15  A    between atoms: C24_33  and  C27_36
REMARK                            x       y       z     vdW  Elec       q    Type
REMARK                         _______ _______ _______ _____ _____    ______ ____
ROOT
ATOM      1  C3  <0> A   1     -24.949  -3.970  51.342  0.00  0.00    +0.082 C 
ATOM      2  C4  <0> A   1     -25.954  -3.106  51.685  0.00  0.00    -0.225 C 
ATOM      3  C5  <0> A   1     -27.103  -3.944  52.030  0.00  0.00    -0.124 C 
ATOM      4  C6  <0> A   1     -26.710  -5.222  51.877  0.00  0.00    +0.025 C 
ATOM      5  N1  <0> A   1     -25.413  -5.229  51.450  0.00  0.00    -0.427 N 
ATOM      6  C14 <0> A   1     -27.568  -6.435  52.145  0.00  0.00    +0.101 C 
ATOM      7  C15 <0> A   1     -28.938  -6.241  51.492  0.00  0.00    +0.019 C 
ATOM      8  C16 <0> A   1     -29.880  -5.539  52.467  0.00  0.00    +0.003 C 
ATOM      9  C17 <0> A   1     -29.112  -4.553  53.344  0.00  0.00    +0.010 C 
ATOM     10  C18 <0> A   1     -28.467  -3.479  52.462  0.00  0.00    +0.088 C 
ENDROOT
BRANCH   2  11
ATOM     11  C19 <0> A   1     -25.892  -1.635  51.705  0.00  0.00    +0.603 C 
ATOM     12  O5  <0> A   1     -25.341  -1.063  52.626  0.00  0.00    -0.539 OA
ATOM     13  N2  <0> A   1     -26.447  -0.924  50.704  0.00  0.00    -0.723 N 
ATOM     14  H28 <0> A   1     -26.886  -1.380  49.969  0.00  0.00    +0.403 HD
BRANCH  13  15
ATOM     15  C20 <0> A   1     -26.385   0.539  50.725  0.00  0.00    +0.312 C 
BRANCH  15  16
ATOM     16  C21 <0> A   1     -27.721   1.094  51.148  0.00  0.00    -0.105 A 
ATOM     17  C22 <0> A   1     -28.788   0.237  51.354  0.00  0.00    +0.031 A 
ATOM     18  C23 <0> A   1     -30.014   0.740  51.741  0.00  0.00    +0.015 A 
ATOM     19  C24 <0> A   1     -30.176   2.112  51.925  0.00  0.00    -0.038 A 
ATOM     20  C25 <0> A   1     -29.097   2.969  51.716  0.00  0.00    +0.016 A 
ATOM     21  C26 <0> A   1     -27.874   2.456  51.334  0.00  0.00    +0.031 A 
BRANCH  19  22
ATOM     22  C27 <0> A   1     -31.491   2.658  52.341  0.00  0.00    -0.048 A 
ATOM     23  C28 <0> A   1     -31.553   3.755  53.198  0.00  0.00    +0.015 A 
ATOM     24  C29 <0> A   1     -32.779   4.259  53.581  0.00  0.00    +0.006 A 
ATOM     25  C30 <0> A   1     -33.945   3.676  53.118  0.00  0.00    +0.005 A 
ATOM     26  C31 <0> A   1     -33.889   2.586  52.269  0.00  0.00    +0.007 A 
ATOM     27  C32 <0> A   1     -32.668   2.079  51.873  0.00  0.00    +0.016 A 
ENDBRANCH  19  22
ENDBRANCH  15  16
ENDBRANCH  13  15
ENDBRANCH   2  11
BRANCH   1  29
ATOM     28  C1  <0> A   1     -22.663  -3.432  52.139  0.00  0.00    +0.031 C 
ATOM     29  C2  <0> A   1     -23.560  -3.577  50.908  0.00  0.00    +0.095 C 
ENDBRANCH   1  29
BRANCH   5  30
ATOM     30  C7  <0> A   1     -24.636  -6.437  51.158  0.00  0.00    +0.290 C 
BRANCH  30  31
ATOM     31  C8  <0> A   1     -24.829  -6.824  49.690  0.00  0.00    -0.017 C 
BRANCH  31  32
ATOM     32  C9  <0> A   1     -25.043  -8.335  49.586  0.00  0.00    +0.216 C 
BRANCH  32  33
ATOM     33  O4  <0> A   1     -25.684  -8.641  48.346  0.00  0.00    -0.541 OA
ATOM     34  H17 <0> A   1     -25.157  -8.420  47.565  0.00  0.00    +0.366 HD
ENDBRANCH  32  33
BRANCH  32  35
ATOM     35  C10 <0> A   1     -23.691  -9.047  49.650  0.00  0.00    -0.048 C 
BRANCH  35  36
ATOM     36  C11 <0> A   1     -23.877 -10.446  50.238  0.00  0.00    +0.231 C 
BRANCH  36  37
ATOM     37  O3  <0> A   1     -25.242 -10.621  50.627  0.00  0.00    -0.528 OA
ATOM     38  H16 <0> A   1     -25.386 -10.594  51.582  0.00  0.00    +0.350 HD
ENDBRANCH  36  37
BRANCH  36  39
ATOM     39  C12 <0> A   1     -23.509 -11.496  49.188  0.00  0.00    -0.102 C 
BRANCH  39  40
ATOM     40  C13 <0> A   1     -24.760 -12.187  48.707  0.00  0.00    +0.490 C 
ATOM     41  O1  <0> A   1     -25.420 -11.693  47.808  0.00  0.00    -0.681 OA
ATOM     42  O2  <0> A   1     -25.111 -13.237  49.215  0.00  0.00    -0.713 OA
ENDBRANCH  39  40
ENDBRANCH  36  39
ENDBRANCH  35  36
ENDBRANCH  32  35
ENDBRANCH  31  32
ENDBRANCH  30  31
ENDBRANCH   5  30
TORSDOF 14
