REMARK  Name = CHEMBL153492
REMARK  13 active torsions:
REMARK  status: ('A' for Active; 'I' for Inactive)
REMARK    1  A    between atoms: C1_1  and  C2_2
REMARK    2  A    between atoms: C2_2  and  C3_3
REMARK    3  A    between atoms: C2_2  and  C4_4
REMARK    4  A    between atoms: C5_5  and  C20_22
REMARK    5  A    between atoms: C6_6  and  C14_15
REMARK    6  A    between atoms: C7_7  and  C8_9
REMARK    7  A    between atoms: C21_23  and  C22_24
REMARK    8  A    between atoms: C22_24  and  C23_26
REMARK    9  A    between atoms: C22_24  and  O4_34
REMARK   10  A    between atoms: C23_26  and  C24_27
REMARK   11  A    between atoms: C24_27  and  C25_29
REMARK   12  A    between atoms: C24_27  and  O3_33
REMARK   13  A    between atoms: C25_29  and  C26_30
REMARK                            x       y       z     vdW  Elec       q    Type
REMARK                         _______ _______ _______ _____ _____    ______ ____
ROOT
ATOM      1  C4  <0> A   1      -1.457  -0.428  -0.078  0.00  0.00    -0.125 C 
ATOM      2  C5  <0> A   1      -2.033  -1.352  -0.901  0.00  0.00    -0.072 C 
ATOM      3  C6  <0> A   1      -3.368  -1.798  -0.585  0.00  0.00    -0.058 C 
ATOM      4  C7  <0> A   1      -3.969  -1.250   0.538  0.00  0.00    -0.107 C 
ATOM      5  S1  <0> A   1      -2.713  -0.145   1.154  0.00  0.00    +0.059 S 
ENDROOT
BRANCH   3   6
ATOM      6  C14 <0> A   1      -4.068  -2.797  -1.424  0.00  0.00    -0.032 A 
ATOM      7  C15 <0> A   1      -4.438  -2.478  -2.731  0.00  0.00    +0.062 A 
ATOM      8  C16 <0> A   1      -5.089  -3.413  -3.509  0.00  0.00    -0.013 A 
ATOM      9  C17 <0> A   1      -5.375  -4.667  -2.994  0.00  0.00    +0.101 A 
ATOM     10  C18 <0> A   1      -5.011  -4.989  -1.697  0.00  0.00    -0.015 A 
ATOM     11  C19 <0> A   1      -4.354  -4.063  -0.912  0.00  0.00    +0.054 A 
ATOM     12  F1  <0> A   1      -6.014  -5.579  -3.760  0.00  0.00    -0.139 F 
ENDBRANCH   3   6
BRANCH   4  13
ATOM     13  C8  <0> A   1      -5.311  -1.520   1.090  0.00  0.00    -0.006 A 
ATOM     14  C9  <0> A   1      -5.473  -1.762   2.456  0.00  0.00    +0.022 A 
ATOM     15  C10 <0> A   1      -6.730  -2.013   2.965  0.00  0.00    +0.007 A 
ATOM     16  C11 <0> A   1      -7.830  -2.026   2.125  0.00  0.00    +0.011 A 
ATOM     17  C12 <0> A   1      -7.677  -1.788   0.770  0.00  0.00    +0.008 A 
ATOM     18  C13 <0> A   1      -6.427  -1.528   0.249  0.00  0.00    +0.036 A 
ENDBRANCH   4  13
BRANCH   1  20
ATOM     19  C1  <0> A   1      -0.229   1.714  -0.316  0.00  0.00    +0.035 C 
ATOM     20  C2  <0> A   1      -0.089   0.196  -0.182  0.00  0.00    +0.084 C 
ATOM     21  C3  <0> A   1       0.718  -0.132   1.076  0.00  0.00    +0.035 C 
ENDBRANCH   1  20
BRANCH   2  22
ATOM     22  C20 <0> A   1      -1.313  -1.879  -2.078  0.00  0.00    +0.014 C 
ATOM     23  C21 <0> A   1      -1.238  -3.188  -2.278  0.00  0.00    -0.042 C 
BRANCH  23  24
ATOM     24  C22 <0> A   1      -0.503  -3.726  -3.479  0.00  0.00    +0.249 C 
BRANCH  24  25
ATOM     25  O4  <0> A   1       0.118  -2.646  -4.180  0.00  0.00    -0.538 OA
ATOM     26  H26 <0> A   1       0.758  -2.151  -3.652  0.00  0.00    +0.365 HD
ENDBRANCH  24  25
BRANCH  24  27
ATOM     27  C23 <0> A   1       0.568  -4.718  -3.021  0.00  0.00    -0.042 C 
BRANCH  27  28
ATOM     28  C24 <0> A   1       1.229  -5.356  -4.244  0.00  0.00    +0.231 C 
BRANCH  28  29
ATOM     29  O3  <0> A   1       1.933  -4.356  -4.981  0.00  0.00    -0.528 OA
ATOM     30  H25 <0> A   1       2.630  -3.914  -4.478  0.00  0.00    +0.350 HD
ENDBRANCH  28  29
BRANCH  28  31
ATOM     31  C25 <0> A   1       2.210  -6.438  -3.787  0.00  0.00    -0.102 C 
BRANCH  31  32
ATOM     32  C26 <0> A   1       2.769  -7.150  -4.991  0.00  0.00    +0.491 C 
ATOM     33  O1  <0> A   1       2.416  -6.823  -6.111  0.00  0.00    -0.681 OA
ATOM     34  O2  <0> A   1       3.575  -8.053  -4.845  0.00  0.00    -0.713 OA
ENDBRANCH  31  32
ENDBRANCH  28  31
ENDBRANCH  27  28
ENDBRANCH  24  27
ENDBRANCH  23  24
ENDBRANCH   2  22
TORSDOF 11
