REMARK VINA RESULT:      -7.8     14.895     18.195
REMARK  Name = CHEMBL77486
REMARK  14 active torsions:
REMARK  status: ('A' for Active; 'I' for Inactive)
REMARK    1  A    between atoms: C1_1  and  C2_2
REMARK    2  A    between atoms: C2_2  and  C3_3
REMARK    3  A    between atoms: C3_3  and  C4_5
REMARK    4  A    between atoms: C3_3  and  C5_6
REMARK    5  A    between atoms: C5_6  and  O2_8
REMARK    6  A    between atoms: O2_8  and  C6_9
REMARK    7  A    between atoms: C8_12  and  C24_38
REMARK    8  A    between atoms: C12_19  and  C17_26
REMARK    9  A    between atoms: C13_21  and  C16_25
REMARK   10  A    between atoms: C17_26  and  C18_27
REMARK   11  A    between atoms: C18_27  and  C19_28
REMARK   12  A    between atoms: C21_31  and  O5_37
REMARK   13  A    between atoms: C25_39  and  C26_40
REMARK   14  A    between atoms: C26_40  and  C27_41
REMARK                            x       y       z     vdW  Elec       q    Type
REMARK                         _______ _______ _______ _____ _____    ______ ____
ROOT
ATOM      1  C6  <0> A   1     -26.729  -1.074  50.383  0.00  0.00    +0.183 C 
ATOM      2  C7  <0> A   1     -26.861   0.264  49.649  0.00  0.00    +0.020 C 
ATOM      3  C8  <0> A   1     -27.405   1.332  50.600  0.00  0.00    +0.019 C 
ATOM      4  C9  <0> A   1     -26.473   1.485  51.806  0.00  0.00    +0.034 C 
ATOM      5  C10 <0> A   1     -26.374   0.142  52.525  0.00  0.00    +0.039 C 
ATOM      6  C11 <0> A   1     -25.782  -0.899  51.567  0.00  0.00    +0.017 C 
ATOM      7  C12 <0> A   1     -25.600  -2.211  52.330  0.00  0.00    +0.004 C 
ATOM      8  C13 <0> A   1     -24.506  -2.003  53.382  0.00  0.00    +0.023 C 
ATOM      9  C14 <0> A   1     -24.724  -0.724  54.133  0.00  0.00    -0.050 C 
ATOM     10  C15 <0> A   1     -25.520   0.226  53.750  0.00  0.00    -0.043 C 
ATOM     11  C16 <0> A   1     -23.144  -1.951  52.687  0.00  0.00    +0.027 C 
ENDROOT
BRANCH   3  12
ATOM     12  C24 <0> A   1     -28.775   0.924  51.078  0.00  0.00    -0.009 C 
ATOM     13  C25 <0> A   1     -29.551   1.801  51.666  0.00  0.00    -0.061 C 
BRANCH  13  14
ATOM     14  C26 <0> A   1     -30.869   1.365  52.254  0.00  0.00    +0.104 C 
BRANCH  14  15
ATOM     15  C27 <0> A   1     -30.619   0.439  53.416  0.00  0.00    -0.075 A 
ATOM     16  C28 <0> A   1     -29.520   0.632  54.231  0.00  0.00    +0.005 A 
ATOM     17  C29 <0> A   1     -29.291  -0.217  55.297  0.00  0.00    +0.002 A 
ATOM     18  C30 <0> A   1     -30.162  -1.261  55.548  0.00  0.00    -0.006 A 
ATOM     19  C31 <0> A   1     -31.263  -1.454  54.734  0.00  0.00    +0.002 A 
ATOM     20  C32 <0> A   1     -31.494  -0.602  53.671  0.00  0.00    +0.001 A 
ENDBRANCH  14  15
ENDBRANCH  13  14
ENDBRANCH   3  12
BRANCH   1  21
ATOM     21  O2  <0> A   1     -28.013  -1.491  50.854  0.00  0.00    -0.332 OA
BRANCH  21  22
ATOM     22  C5  <0> A   1     -28.501  -2.639  50.358  0.00  0.00    +0.460 C 
ATOM     23  O1  <0> A   1     -28.159  -3.017  49.262  0.00  0.00    -0.503 OA
BRANCH  22  24
ATOM     24  C3  <0> A   1     -29.475  -3.455  51.168  0.00  0.00    +0.022 C 
ATOM     25  C4  <0> A   1     -29.394  -4.922  50.738  0.00  0.00    +0.056 C 
BRANCH  24  27
ATOM     26  C1  <0> A   1     -29.203  -4.721  53.305  0.00  0.00    +0.022 C 
ATOM     27  C2  <0> A   1     -29.127  -3.339  52.653  0.00  0.00    +0.031 C 
ENDBRANCH  24  27
ENDBRANCH  22  24
ENDBRANCH  21  22
ENDBRANCH   1  21
BRANCH   7  28
ATOM     28  C17 <0> A   1     -25.182  -3.319  51.362  0.00  0.00    +0.019 C 
BRANCH  28  29
ATOM     29  C18 <0> A   1     -25.759  -4.655  51.835  0.00  0.00    +0.051 C 
BRANCH  29  30
ATOM     30  C19 <0> A   1     -24.961  -5.803  51.215  0.00  0.00    +0.193 C 
ATOM     31  C20 <0> A   1     -25.763  -6.419  50.065  0.00  0.00    +0.040 C 
ATOM     32  C21 <0> A   1     -24.980  -7.596  49.473  0.00  0.00    +0.183 C 
ATOM     33  C22 <0> A   1     -24.742  -8.638  50.574  0.00  0.00    +0.021 C 
ATOM     34  C23 <0> A   1     -24.129  -7.937  51.766  0.00  0.00    +0.496 C 
ATOM     35  O3  <0> A   1     -23.143  -8.379  52.308  0.00  0.00    -0.453 OA
ATOM     36  O4  <0> A   1     -24.713  -6.804  52.208  0.00  0.00    -0.367 OA
BRANCH  32  37
ATOM     37  O5  <0> A   1     -23.724  -7.131  48.972  0.00  0.00    -0.563 OA
ATOM     38  H35 <0> A   1     -23.223  -6.596  49.602  0.00  0.00    +0.386 HD
ENDBRANCH  32  37
ENDBRANCH  29  30
ENDBRANCH  28  29
ENDBRANCH   7  28
TORSDOF 11
