REMARK VINA RESULT:      -7.9      6.360      9.554
REMARK  Name = CHEMBL481660
REMARK  17 active torsions:
REMARK  status: ('A' for Active; 'I' for Inactive)
REMARK    1  A    between atoms: C1_1  and  C2_2
REMARK    2  A    between atoms: C2_2  and  C3_3
REMARK    3  A    between atoms: C4_4  and  C18_25
REMARK    4  A    between atoms: N1_7  and  C7_8
REMARK    5  A    between atoms: C7_8  and  C8_9
REMARK    6  A    between atoms: C8_9  and  C9_10
REMARK    7  A    between atoms: C9_10  and  C10_12
REMARK    8  A    between atoms: C9_10  and  O4_20
REMARK    9  A    between atoms: C10_12  and  C11_13
REMARK   10  A    between atoms: C11_13  and  C12_15
REMARK   11  A    between atoms: C11_13  and  O3_19
REMARK   12  A    between atoms: C12_15  and  C13_16
REMARK   13  A    between atoms: N2_27  and  C19_28
REMARK   14  A    between atoms: C19_28  and  C20_30
REMARK   15  A    between atoms: C19_28  and  C21_32
REMARK   16  A    between atoms: C20_30  and  O6_31
REMARK   17  A    between atoms: C24_35  and  C27_38
REMARK                            x       y       z     vdW  Elec       q    Type
REMARK                         _______ _______ _______ _____ _____    ______ ____
ROOT
ATOM      1  C3  <0> A   1     -15.660   6.535  45.677  0.00  0.00    +0.080 C 
ATOM      2  C4  <0> A   1     -16.390   7.300  46.549  0.00  0.00    -0.221 C 
ATOM      3  C5  <0> A   1     -15.586   8.489  46.805  0.00  0.00    -0.129 C 
ATOM      4  C6  <0> A   1     -14.455   8.358  46.084  0.00  0.00    +0.020 C 
ATOM      5  N1  <0> A   1     -14.504   7.176  45.412  0.00  0.00    -0.424 N 
ATOM      6  C14 <0> A   1     -13.347   9.384  46.067  0.00  0.00    +0.100 C 
ATOM      7  C15 <0> A   1     -13.899  10.702  46.624  0.00  0.00    +0.024 C 
ATOM      8  C16 <0> A   1     -14.610  10.439  47.954  0.00  0.00    +0.012 C 
ATOM      9  C17 <0> A   1     -15.907   9.662  47.694  0.00  0.00    +0.089 C 
ENDROOT
BRANCH   2  10
ATOM     10  C18 <0> A   1     -17.715   6.984  47.111  0.00  0.00    +0.606 C 
ATOM     11  O5  <0> A   1     -18.693   6.966  46.389  0.00  0.00    -0.542 OA
ATOM     12  N2  <0> A   1     -17.842   6.714  48.425  0.00  0.00    -0.713 N 
ATOM     13  H27 <0> A   1     -17.062   6.728  49.002  0.00  0.00    +0.404 HD
BRANCH  12  14
ATOM     14  C19 <0> A   1     -19.160   6.400  48.984  0.00  0.00    +0.297 C 
BRANCH  14  15
ATOM     15  C21 <0> A   1     -19.044   5.215  49.908  0.00  0.00    -0.085 A 
ATOM     16  C22 <0> A   1     -19.864   4.116  49.725  0.00  0.00    +0.044 A 
ATOM     17  C23 <0> A   1     -19.762   3.028  50.568  0.00  0.00    +0.016 A 
ATOM     18  C24 <0> A   1     -18.832   3.039  51.605  0.00  0.00    -0.044 A 
ATOM     19  C25 <0> A   1     -18.009   4.149  51.786  0.00  0.00    +0.015 A 
ATOM     20  C26 <0> A   1     -18.115   5.229  50.933  0.00  0.00    +0.019 A 
BRANCH  18  21
ATOM     21  C27 <0> A   1     -18.719   1.872  52.516  0.00  0.00    -0.044 A 
ATOM     22  C28 <0> A   1     -19.854   1.365  53.145  0.00  0.00    +0.015 A 
ATOM     23  C29 <0> A   1     -19.744   0.279  53.991  0.00  0.00    +0.007 A 
ATOM     24  C30 <0> A   1     -18.509  -0.304  54.213  0.00  0.00    +0.002 A 
ATOM     25  C31 <0> A   1     -17.380   0.195  53.592  0.00  0.00    +0.005 A 
ATOM     26  C32 <0> A   1     -17.479   1.277  52.740  0.00  0.00    +0.013 A 
ENDBRANCH  18  21
ENDBRANCH  14  15
BRANCH  14  27
ATOM     27  C20 <0> A   1     -19.684   7.607  49.765  0.00  0.00    +0.179 C 
BRANCH  27  28
ATOM     28  O6  <0> A   1     -21.080   7.439  50.017  0.00  0.00    -0.564 OA
ATOM     29  H30 <0> A   1     -21.385   6.523  49.953  0.00  0.00    +0.379 HD
ENDBRANCH  27  28
ENDBRANCH  14  27
ENDBRANCH  12  14
ENDBRANCH   2  10
BRANCH   1  31
ATOM     30  C1  <0> A   1     -16.863   5.416  43.819  0.00  0.00    +0.030 C 
ATOM     31  C2  <0> A   1     -16.077   5.200  45.114  0.00  0.00    +0.097 C 
ENDBRANCH   1  31
BRANCH   5  32
ATOM     32  C7  <0> A   1     -13.452   6.673  44.525  0.00  0.00    +0.290 C 
BRANCH  32  33
ATOM     33  C8  <0> A   1     -13.613   7.298  43.137  0.00  0.00    -0.018 C 
BRANCH  33  34
ATOM     34  C9  <0> A   1     -12.248   7.374  42.451  0.00  0.00    +0.216 C 
BRANCH  34  35
ATOM     35  O4  <0> A   1     -11.705   6.058  42.324  0.00  0.00    -0.541 OA
ATOM     36  H18 <0> A   1     -11.117   5.804  43.048  0.00  0.00    +0.366 HD
ENDBRANCH  34  35
BRANCH  34  37
ATOM     37  C10 <0> A   1     -12.410   7.995  41.061  0.00  0.00    -0.048 C 
BRANCH  37  38
ATOM     38  C11 <0> A   1     -12.975   9.410  41.197  0.00  0.00    +0.231 C 
BRANCH  38  39
ATOM     39  O3  <0> A   1     -11.899  10.345  41.300  0.00  0.00    -0.528 OA
ATOM     40  H17 <0> A   1     -12.186  11.264  41.405  0.00  0.00    +0.350 HD
ENDBRANCH  38  39
BRANCH  38  41
ATOM     41  C12 <0> A   1     -13.822   9.740  39.967  0.00  0.00    -0.102 C 
BRANCH  41  42
ATOM     42  C13 <0> A   1     -13.777  11.225  39.711  0.00  0.00    +0.490 C 
ATOM     43  O1  <0> A   1     -14.498  11.975  40.345  0.00  0.00    -0.681 OA
ATOM     44  O2  <0> A   1     -13.019  11.675  38.869  0.00  0.00    -0.713 OA
ENDBRANCH  41  42
ENDBRANCH  38  41
ENDBRANCH  37  38
ENDBRANCH  34  37
ENDBRANCH  33  34
ENDBRANCH  32  33
ENDBRANCH   5  32
TORSDOF 16
