MODEL 1
REMARK VINA RESULT:      -8.4      0.000      0.000
REMARK  Name = CHEMBL154698
REMARK  8 active torsions:
REMARK  status: ('A' for Active; 'I' for Inactive)
REMARK    1  A    between atoms: C1_1  and  C2_2
REMARK    2  A    between atoms: C2_2  and  C3_3
REMARK    3  A    between atoms: C2_2  and  C4_4
REMARK    4  A    between atoms: C6_6  and  C22_28
REMARK    5  A    between atoms: C7_8  and  C16_21
REMARK    6  A    between atoms: C8_9  and  C9_10
REMARK    7  A    between atoms: C10_11  and  C11_12
REMARK    8  A    between atoms: C13_14  and  O3_20
REMARK                            x       y       z     vdW  Elec       q    Type
REMARK                         _______ _______ _______ _____ _____    ______ ____
ROOT
ATOM      1  C4  <0> A   1     -25.131  -2.892  51.659  0.00  0.00    -0.012 A 
ATOM      2  C5  <0> A   1     -25.836  -1.708  51.570  0.00  0.00    -0.017 A 
ATOM      3  C6  <0> A   1     -27.231  -1.742  51.542  0.00  0.00    +0.179 A 
ATOM      4  N1  <0> A   1     -27.887  -2.893  51.599  0.00  0.00    -0.469 NA
ATOM      5  C7  <0> A   1     -27.252  -4.051  51.685  0.00  0.00    +0.188 A 
ATOM      6  C8  <0> A   1     -25.846  -4.093  51.713  0.00  0.00    -0.100 A 
ENDROOT
BRANCH   5   7
ATOM      7  C16 <0> A   1     -28.027  -5.311  51.746  0.00  0.00    -0.062 A 
ATOM      8  C17 <0> A   1     -28.329  -5.889  52.980  0.00  0.00    +0.080 A 
ATOM      9  C18 <0> A   1     -29.051  -7.063  53.033  0.00  0.00    -0.020 A 
ATOM     10  C19 <0> A   1     -29.477  -7.669  51.862  0.00  0.00    +0.114 A 
ATOM     11  C20 <0> A   1     -29.180  -7.099  50.634  0.00  0.00    -0.021 A 
ATOM     12  C21 <0> A   1     -28.463  -5.923  50.571  0.00  0.00    +0.088 A 
ATOM     13  F1  <0> A   1     -30.184  -8.819  51.918  0.00  0.00    -0.137 F 
ENDBRANCH   5   7
BRANCH   3  14
ATOM     14  C22 <0> A   1     -27.990  -0.472  51.447  0.00  0.00    -0.052 A 
ATOM     15  C23 <0> A   1     -27.404   0.652  50.868  0.00  0.00    +0.025 A 
ATOM     16  C24 <0> A   1     -28.115   1.832  50.781  0.00  0.00    +0.003 A 
ATOM     17  C25 <0> A   1     -29.408   1.900  51.270  0.00  0.00    +0.017 A 
ATOM     18  C26 <0> A   1     -29.995   0.788  51.846  0.00  0.00    +0.001 A 
ATOM     19  C27 <0> A   1     -29.296  -0.398  51.932  0.00  0.00    +0.056 A 
ENDBRANCH   3  14
BRANCH   1  21
ATOM     20  C1  <0> A   1     -23.088  -2.197  50.437  0.00  0.00    +0.034 C 
ATOM     21  C2  <0> A   1     -23.624  -2.891  51.690  0.00  0.00    +0.028 C 
ATOM     22  C3  <0> A   1     -23.141  -2.142  52.935  0.00  0.00    +0.035 C 
ENDBRANCH   1  21
BRANCH   6  23
ATOM     23  C9  <0> A   1     -25.137  -5.385  51.802  0.00  0.00    +0.046 C 
ATOM     24  C10 <0> A   1     -24.859  -6.067  50.699  0.00  0.00    -0.008 C 
BRANCH  24  25
ATOM     25  C11 <0> A   1     -24.135  -7.385  50.791  0.00  0.00    +0.243 C 
ATOM     26  C12 <0> A   1     -25.084  -8.518  50.391  0.00  0.00    +0.051 C 
ATOM     27  C13 <0> A   1     -24.357  -9.860  50.525  0.00  0.00    +0.186 C 
ATOM     28  C14 <0> A   1     -23.904 -10.035  51.980  0.00  0.00    +0.024 C 
ATOM     29  C15 <0> A   1     -23.137  -8.798  52.390  0.00  0.00    +0.498 C 
ATOM     30  O1  <0> A   1     -22.061  -8.885  52.932  0.00  0.00    -0.449 OA
ATOM     31  O2  <0> A   1     -23.691  -7.594  52.135  0.00  0.00    -0.370 OA
BRANCH  27  32
ATOM     32  O3  <0> A   1     -23.219  -9.877  49.662  0.00  0.00    -0.563 OA
ATOM     33  H17 <0> A   1     -22.418  -9.510  50.059  0.00  0.00    +0.387 HD
ENDBRANCH  27  32
ENDBRANCH  24  25
ENDBRANCH   6  23
TORSDOF 6
ENDMDL
MODEL 2
REMARK VINA RESULT:      -8.2      2.267      4.532
REMARK  Name = CHEMBL154698
REMARK  8 active torsions:
REMARK  status: ('A' for Active; 'I' for Inactive)
REMARK    1  A    between atoms: C1_1  and  C2_2
REMARK    2  A    between atoms: C2_2  and  C3_3
REMARK    3  A    between atoms: C2_2  and  C4_4
REMARK    4  A    between atoms: C6_6  and  C22_28
REMARK    5  A    between atoms: C7_8  and  C16_21
REMARK    6  A    between atoms: C8_9  and  C9_10
REMARK    7  A    between atoms: C10_11  and  C11_12
REMARK    8  A    between atoms: C13_14  and  O3_20
REMARK                            x       y       z     vdW  Elec       q    Type
REMARK                         _______ _______ _______ _____ _____    ______ ____
ROOT
ATOM      1  C4  <0> A   1     -27.528  -4.133  51.506  0.00  0.00    -0.012 A 
ATOM      2  C5  <0> A   1     -28.245  -2.955  51.436  0.00  0.00    -0.017 A 
ATOM      3  C6  <0> A   1     -27.574  -1.737  51.540  0.00  0.00    +0.179 A 
ATOM      4  N1  <0> A   1     -26.259  -1.694  51.706  0.00  0.00    -0.469 NA
ATOM      5  C7  <0> A   1     -25.532  -2.798  51.779  0.00  0.00    +0.188 A 
ATOM      6  C8  <0> A   1     -26.143  -4.062  51.687  0.00  0.00    -0.100 A 
ENDROOT
BRANCH   5   7
ATOM      7  C16 <0> A   1     -24.066  -2.702  51.964  0.00  0.00    -0.062 A 
ATOM      8  C17 <0> A   1     -23.205  -2.991  50.905  0.00  0.00    +0.080 A 
ATOM      9  C18 <0> A   1     -21.840  -2.900  51.082  0.00  0.00    -0.020 A 
ATOM     10  C19 <0> A   1     -21.323  -2.522  52.311  0.00  0.00    +0.114 A 
ATOM     11  C20 <0> A   1     -22.174  -2.233  53.366  0.00  0.00    -0.021 A 
ATOM     12  C21 <0> A   1     -23.539  -2.317  53.198  0.00  0.00    +0.088 A 
ATOM     13  F1  <0> A   1     -19.986  -2.434  52.480  0.00  0.00    -0.137 F 
ENDBRANCH   5   7
BRANCH   3  14
ATOM     14  C22 <0> A   1     -28.341  -0.470  51.464  0.00  0.00    -0.052 A 
ATOM     15  C23 <0> A   1     -27.757   0.669  50.913  0.00  0.00    +0.025 A 
ATOM     16  C24 <0> A   1     -28.476   1.845  50.845  0.00  0.00    +0.003 A 
ATOM     17  C25 <0> A   1     -29.773   1.895  51.324  0.00  0.00    +0.017 A 
ATOM     18  C26 <0> A   1     -30.358   0.767  51.872  0.00  0.00    +0.001 A 
ATOM     19  C27 <0> A   1     -29.651  -0.416  51.939  0.00  0.00    +0.056 A 
ENDBRANCH   3  14
BRANCH   1  21
ATOM     20  C1  <0> A   1     -28.881  -5.809  52.737  0.00  0.00    +0.034 C 
ATOM     21  C2  <0> A   1     -28.223  -5.466  51.398  0.00  0.00    +0.028 C 
ATOM     22  C3  <0> A   1     -29.293  -5.396  50.306  0.00  0.00    +0.035 C 
ENDBRANCH   1  21
BRANCH   6  23
ATOM     23  C9  <0> A   1     -25.334  -5.293  51.774  0.00  0.00    +0.046 C 
ATOM     24  C10 <0> A   1     -25.050  -5.981  50.674  0.00  0.00    -0.008 C 
BRANCH  24  25
ATOM     25  C11 <0> A   1     -24.224  -7.237  50.763  0.00  0.00    +0.243 C 
ATOM     26  C12 <0> A   1     -25.052  -8.428  50.275  0.00  0.00    +0.051 C 
ATOM     27  C13 <0> A   1     -24.223  -9.711  50.405  0.00  0.00    +0.186 C 
ATOM     28  C14 <0> A   1     -23.834  -9.901  51.877  0.00  0.00    +0.024 C 
ATOM     29  C15 <0> A   1     -23.196  -8.621  52.369  0.00  0.00    +0.498 C 
ATOM     30  O1  <0> A   1     -22.147  -8.640  52.967  0.00  0.00    -0.449 OA
ATOM     31  O2  <0> A   1     -23.835  -7.458  52.123  0.00  0.00    -0.370 OA
BRANCH  27  32
ATOM     32  O3  <0> A   1     -23.044  -9.602  49.607  0.00  0.00    -0.563 OA
ATOM     33  H17 <0> A   1     -22.403  -8.959  49.938  0.00  0.00    +0.387 HD
ENDBRANCH  27  32
ENDBRANCH  24  25
ENDBRANCH   6  23
TORSDOF 6
ENDMDL
MODEL 3
REMARK VINA RESULT:      -8.2      2.271      4.540
REMARK  Name = CHEMBL154698
REMARK  8 active torsions:
REMARK  status: ('A' for Active; 'I' for Inactive)
REMARK    1  A    between atoms: C1_1  and  C2_2
REMARK    2  A    between atoms: C2_2  and  C3_3
REMARK    3  A    between atoms: C2_2  and  C4_4
REMARK    4  A    between atoms: C6_6  and  C22_28
REMARK    5  A    between atoms: C7_8  and  C16_21
REMARK    6  A    between atoms: C8_9  and  C9_10
REMARK    7  A    between atoms: C10_11  and  C11_12
REMARK    8  A    between atoms: C13_14  and  O3_20
REMARK                            x       y       z     vdW  Elec       q    Type
REMARK                         _______ _______ _______ _____ _____    ______ ____
ROOT
ATOM      1  C4  <0> A   1     -27.529  -4.130  51.533  0.00  0.00    -0.012 A 
ATOM      2  C5  <0> A   1     -28.251  -2.954  51.465  0.00  0.00    -0.017 A 
ATOM      3  C6  <0> A   1     -27.584  -1.733  51.563  0.00  0.00    +0.179 A 
ATOM      4  N1  <0> A   1     -26.268  -1.686  51.722  0.00  0.00    -0.469 NA
ATOM      5  C7  <0> A   1     -25.536  -2.786  51.792  0.00  0.00    +0.188 A 
ATOM      6  C8  <0> A   1     -26.143  -4.052  51.706  0.00  0.00    -0.100 A 
ENDROOT
BRANCH   5   7
ATOM      7  C16 <0> A   1     -24.070  -2.684  51.969  0.00  0.00    -0.062 A 
ATOM      8  C17 <0> A   1     -23.537  -2.317  53.205  0.00  0.00    +0.080 A 
ATOM      9  C18 <0> A   1     -22.170  -2.223  53.365  0.00  0.00    -0.020 A 
ATOM     10  C19 <0> A   1     -21.326  -2.493  52.300  0.00  0.00    +0.114 A 
ATOM     11  C20 <0> A   1     -21.850  -2.858  51.070  0.00  0.00    -0.021 A 
ATOM     12  C21 <0> A   1     -23.215  -2.960  50.902  0.00  0.00    +0.088 A 
ATOM     13  F1  <0> A   1     -19.988  -2.400  52.461  0.00  0.00    -0.137 F 
ENDBRANCH   5   7
BRANCH   3  14
ATOM     14  C22 <0> A   1     -28.357  -0.470  51.490  0.00  0.00    -0.052 A 
ATOM     15  C23 <0> A   1     -29.672  -0.428  51.950  0.00  0.00    +0.025 A 
ATOM     16  C24 <0> A   1     -30.388   0.751  51.879  0.00  0.00    +0.003 A 
ATOM     17  C25 <0> A   1     -29.802   1.888  51.352  0.00  0.00    +0.017 A 
ATOM     18  C26 <0> A   1     -28.497   1.852  50.895  0.00  0.00    +0.001 A 
ATOM     19  C27 <0> A   1     -27.770   0.681  50.966  0.00  0.00    +0.056 A 
ENDBRANCH   3  14
BRANCH   1  21
ATOM     20  C1  <0> A   1     -28.861  -5.812  52.777  0.00  0.00    +0.034 C 
ATOM     21  C2  <0> A   1     -28.220  -5.466  51.432  0.00  0.00    +0.028 C 
ATOM     22  C3  <0> A   1     -29.302  -5.399  50.352  0.00  0.00    +0.035 C 
ENDBRANCH   1  21
BRANCH   6  23
ATOM     23  C9  <0> A   1     -25.328  -5.280  51.790  0.00  0.00    +0.046 C 
ATOM     24  C10 <0> A   1     -25.059  -5.975  50.692  0.00  0.00    -0.008 C 
BRANCH  24  25
ATOM     25  C11 <0> A   1     -24.227  -7.229  50.778  0.00  0.00    +0.243 C 
ATOM     26  C12 <0> A   1     -25.049  -8.421  50.283  0.00  0.00    +0.051 C 
ATOM     27  C13 <0> A   1     -24.214  -9.701  50.410  0.00  0.00    +0.186 C 
ATOM     28  C14 <0> A   1     -23.828  -9.895  51.883  0.00  0.00    +0.024 C 
ATOM     29  C15 <0> A   1     -23.198  -8.614  52.382  0.00  0.00    +0.498 C 
ATOM     30  O1  <0> A   1     -22.150  -8.630  52.981  0.00  0.00    -0.449 OA
ATOM     31  O2  <0> A   1     -23.841  -7.453  52.138  0.00  0.00    -0.370 OA
BRANCH  27  32
ATOM     32  O3  <0> A   1     -23.034  -9.583  49.616  0.00  0.00    -0.563 OA
ATOM     33  H17 <0> A   1     -22.341 -10.218  49.844  0.00  0.00    +0.387 HD
ENDBRANCH  27  32
ENDBRANCH  24  25
ENDBRANCH   6  23
TORSDOF 6
ENDMDL
MODEL 4
REMARK VINA RESULT:      -8.1      1.820      2.511
REMARK  Name = CHEMBL154698
REMARK  8 active torsions:
REMARK  status: ('A' for Active; 'I' for Inactive)
REMARK    1  A    between atoms: C1_1  and  C2_2
REMARK    2  A    between atoms: C2_2  and  C3_3
REMARK    3  A    between atoms: C2_2  and  C4_4
REMARK    4  A    between atoms: C6_6  and  C22_28
REMARK    5  A    between atoms: C7_8  and  C16_21
REMARK    6  A    between atoms: C8_9  and  C9_10
REMARK    7  A    between atoms: C10_11  and  C11_12
REMARK    8  A    between atoms: C13_14  and  O3_20
REMARK                            x       y       z     vdW  Elec       q    Type
REMARK                         _______ _______ _______ _____ _____    ______ ____
ROOT
ATOM      1  C4  <0> A   1     -25.480  -1.099  51.294  0.00  0.00    -0.012 A 
ATOM      2  C5  <0> A   1     -26.155   0.062  51.616  0.00  0.00    -0.017 A 
ATOM      3  C6  <0> A   1     -27.535   0.128  51.423  0.00  0.00    +0.179 A 
ATOM      4  N1  <0> A   1     -28.206  -0.906  50.934  0.00  0.00    -0.469 NA
ATOM      5  C7  <0> A   1     -27.600  -2.038  50.611  0.00  0.00    +0.188 A 
ATOM      6  C8  <0> A   1     -26.210  -2.174  50.775  0.00  0.00    -0.100 A 
ENDROOT
BRANCH   5   7
ATOM      7  C16 <0> A   1     -28.390  -3.167  50.069  0.00  0.00    -0.062 A 
ATOM      8  C17 <0> A   1     -28.326  -3.478  48.711  0.00  0.00    +0.080 A 
ATOM      9  C18 <0> A   1     -29.064  -4.531  48.210  0.00  0.00    -0.020 A 
ATOM     10  C19 <0> A   1     -29.869  -5.279  49.055  0.00  0.00    +0.114 A 
ATOM     11  C20 <0> A   1     -29.936  -4.974  50.405  0.00  0.00    -0.021 A 
ATOM     12  C21 <0> A   1     -29.198  -3.927  50.916  0.00  0.00    +0.088 A 
ATOM     13  F1  <0> A   1     -30.589  -6.309  48.560  0.00  0.00    -0.137 F 
ENDBRANCH   5   7
BRANCH   3  14
ATOM     14  C22 <0> A   1     -28.263   1.373  51.769  0.00  0.00    -0.052 A 
ATOM     15  C23 <0> A   1     -27.557   2.548  52.019  0.00  0.00    +0.025 A 
ATOM     16  C24 <0> A   1     -28.239   3.705  52.340  0.00  0.00    +0.003 A 
ATOM     17  C25 <0> A   1     -29.621   3.698  52.415  0.00  0.00    +0.017 A 
ATOM     18  C26 <0> A   1     -30.326   2.534  52.167  0.00  0.00    +0.001 A 
ATOM     19  C27 <0> A   1     -29.655   1.374  51.839  0.00  0.00    +0.056 A 
ENDBRANCH   3  14
BRANCH   1  21
ATOM     20  C1  <0> A   1     -23.331   0.127  51.117  0.00  0.00    +0.034 C 
ATOM     21  C2  <0> A   1     -23.989  -1.203  51.490  0.00  0.00    +0.028 C 
ATOM     22  C3  <0> A   1     -23.689  -1.528  52.956  0.00  0.00    +0.035 C 
ENDBRANCH   1  21
BRANCH   6  23
ATOM     23  C9  <0> A   1     -25.532  -3.433  50.411  0.00  0.00    +0.046 C 
ATOM     24  C10 <0> A   1     -25.409  -4.405  51.307  0.00  0.00    -0.008 C 
BRANCH  24  25
ATOM     25  C11 <0> A   1     -24.717  -5.691  50.934  0.00  0.00    +0.243 C 
ATOM     26  C12 <0> A   1     -25.561  -6.442  49.901  0.00  0.00    +0.051 C 
ATOM     27  C13 <0> A   1     -24.876  -7.769  49.555  0.00  0.00    +0.186 C 
ATOM     28  C14 <0> A   1     -24.735  -8.603  50.835  0.00  0.00    +0.024 C 
ATOM     29  C15 <0> A   1     -24.071  -7.745  51.889  0.00  0.00    +0.498 C 
ATOM     30  O1  <0> A   1     -23.131  -8.158  52.525  0.00  0.00    -0.449 OA
ATOM     31  O2  <0> A   1     -24.562  -6.506  52.100  0.00  0.00    -0.370 OA
BRANCH  27  32
ATOM     32  O3  <0> A   1     -23.584  -7.511  49.004  0.00  0.00    -0.563 OA
ATOM     33  H17 <0> A   1     -23.533  -6.697  48.484  0.00  0.00    +0.387 HD
ENDBRANCH  27  32
ENDBRANCH  24  25
ENDBRANCH   6  23
TORSDOF 6
ENDMDL
MODEL 5
REMARK VINA RESULT:      -8.1      4.248      8.866
REMARK  Name = CHEMBL154698
REMARK  8 active torsions:
REMARK  status: ('A' for Active; 'I' for Inactive)
REMARK    1  A    between atoms: C1_1  and  C2_2
REMARK    2  A    between atoms: C2_2  and  C3_3
REMARK    3  A    between atoms: C2_2  and  C4_4
REMARK    4  A    between atoms: C6_6  and  C22_28
REMARK    5  A    between atoms: C7_8  and  C16_21
REMARK    6  A    between atoms: C8_9  and  C9_10
REMARK    7  A    between atoms: C10_11  and  C11_12
REMARK    8  A    between atoms: C13_14  and  O3_20
REMARK                            x       y       z     vdW  Elec       q    Type
REMARK                         _______ _______ _______ _____ _____    ______ ____
ROOT
ATOM      1  C4  <0> A   1     -27.279  -4.900  52.235  0.00  0.00    -0.012 A 
ATOM      2  C5  <0> A   1     -26.608  -6.039  51.833  0.00  0.00    -0.017 A 
ATOM      3  C6  <0> A   1     -25.307  -5.929  51.341  0.00  0.00    +0.179 A 
ATOM      4  N1  <0> A   1     -24.708  -4.749  51.252  0.00  0.00    -0.469 NA
ATOM      5  C7  <0> A   1     -25.314  -3.633  51.624  0.00  0.00    +0.188 A 
ATOM      6  C8  <0> A   1     -26.627  -3.667  52.126  0.00  0.00    -0.100 A 
ENDROOT
BRANCH   5   7
ATOM      7  C16 <0> A   1     -24.605  -2.338  51.507  0.00  0.00    -0.062 A 
ATOM      8  C17 <0> A   1     -23.811  -1.876  52.557  0.00  0.00    +0.080 A 
ATOM      9  C18 <0> A   1     -23.153  -0.669  52.444  0.00  0.00    -0.020 A 
ATOM     10  C19 <0> A   1     -23.280   0.085  51.288  0.00  0.00    +0.114 A 
ATOM     11  C20 <0> A   1     -24.067  -0.370  50.241  0.00  0.00    -0.021 A 
ATOM     12  C21 <0> A   1     -24.724  -1.577  50.344  0.00  0.00    +0.088 A 
ATOM     13  F1  <0> A   1     -22.633   1.266  51.181  0.00  0.00    -0.137 F 
ENDBRANCH   5   7
BRANCH   3  14
ATOM     14  C22 <0> A   1     -24.584  -7.150  50.910  0.00  0.00    -0.052 A 
ATOM     15  C23 <0> A   1     -24.052  -8.019  51.860  0.00  0.00    +0.025 A 
ATOM     16  C24 <0> A   1     -23.379  -9.154  51.454  0.00  0.00    +0.003 A 
ATOM     17  C25 <0> A   1     -23.231  -9.428  50.106  0.00  0.00    +0.017 A 
ATOM     18  C26 <0> A   1     -23.758  -8.569  49.158  0.00  0.00    +0.001 A 
ATOM     19  C27 <0> A   1     -24.438  -7.435  49.553  0.00  0.00    +0.056 A 
ENDBRANCH   3  14
BRANCH   1  21
ATOM     20  C1  <0> A   1     -29.663  -5.186  51.611  0.00  0.00    +0.034 C 
ATOM     21  C2  <0> A   1     -28.686  -4.984  52.771  0.00  0.00    +0.028 C 
ATOM     22  C3  <0> A   1     -28.792  -6.164  53.740  0.00  0.00    +0.035 C 
ENDBRANCH   1  21
BRANCH   6  23
ATOM     23  C9  <0> A   1     -27.306  -2.422  52.536  0.00  0.00    +0.046 C 
ATOM     24  C10 <0> A   1     -28.066  -1.764  51.670  0.00  0.00    -0.008 C 
BRANCH  24  25
ATOM     25  C11 <0> A   1     -28.759  -0.493  52.090  0.00  0.00    +0.243 C 
ATOM     26  C12 <0> A   1     -30.271  -0.726  52.129  0.00  0.00    +0.051 C 
ATOM     27  C13 <0> A   1     -30.975   0.580  52.516  0.00  0.00    +0.186 C 
ATOM     28  C14 <0> A   1     -30.629   1.655  51.478  0.00  0.00    +0.024 C 
ATOM     29  C15 <0> A   1     -29.125   1.707  51.331  0.00  0.00    +0.498 C 
ATOM     30  O1  <0> A   1     -28.532   2.758  51.375  0.00  0.00    -0.449 OA
ATOM     31  O2  <0> A   1     -28.465   0.545  51.148  0.00  0.00    -0.370 OA
BRANCH  27  32
ATOM     32  O3  <0> A   1     -30.533   0.998  53.808  0.00  0.00    -0.563 OA
ATOM     33  H17 <0> A   1     -31.168   0.827  54.516  0.00  0.00    +0.387 HD
ENDBRANCH  27  32
ENDBRANCH  24  25
ENDBRANCH   6  23
TORSDOF 6
ENDMDL
MODEL 6
REMARK VINA RESULT:      -8.0      4.276      8.792
REMARK  Name = CHEMBL154698
REMARK  8 active torsions:
REMARK  status: ('A' for Active; 'I' for Inactive)
REMARK    1  A    between atoms: C1_1  and  C2_2
REMARK    2  A    between atoms: C2_2  and  C3_3
REMARK    3  A    between atoms: C2_2  and  C4_4
REMARK    4  A    between atoms: C6_6  and  C22_28
REMARK    5  A    between atoms: C7_8  and  C16_21
REMARK    6  A    between atoms: C8_9  and  C9_10
REMARK    7  A    between atoms: C10_11  and  C11_12
REMARK    8  A    between atoms: C13_14  and  O3_20
REMARK                            x       y       z     vdW  Elec       q    Type
REMARK                         _______ _______ _______ _____ _____    ______ ____
ROOT
ATOM      1  C4  <0> A   1     -27.609  -5.126  52.076  0.00  0.00    -0.012 A 
ATOM      2  C5  <0> A   1     -26.827  -6.209  51.726  0.00  0.00    -0.017 A 
ATOM      3  C6  <0> A   1     -25.514  -5.999  51.303  0.00  0.00    +0.179 A 
ATOM      4  N1  <0> A   1     -25.008  -4.776  51.230  0.00  0.00    -0.469 NA
ATOM      5  C7  <0> A   1     -25.721  -3.709  51.555  0.00  0.00    +0.188 A 
ATOM      6  C8  <0> A   1     -27.053  -3.845  51.986  0.00  0.00    -0.100 A 
ENDROOT
BRANCH   5   7
ATOM      7  C16 <0> A   1     -25.114  -2.361  51.459  0.00  0.00    -0.062 A 
ATOM      8  C17 <0> A   1     -24.480  -1.798  52.567  0.00  0.00    +0.080 A 
ATOM      9  C18 <0> A   1     -23.916  -0.543  52.473  0.00  0.00    -0.020 A 
ATOM     10  C19 <0> A   1     -23.977   0.159  51.279  0.00  0.00    +0.114 A 
ATOM     11  C20 <0> A   1     -24.604  -0.397  50.175  0.00  0.00    -0.021 A 
ATOM     12  C21 <0> A   1     -25.167  -1.653  50.258  0.00  0.00    +0.088 A 
ATOM     13  F1  <0> A   1     -23.422   1.387  51.191  0.00  0.00    -0.137 F 
ENDBRANCH   5   7
BRANCH   3  14
ATOM     14  C22 <0> A   1     -24.673  -7.161  50.927  0.00  0.00    -0.052 A 
ATOM     15  C23 <0> A   1     -24.456  -7.461  49.584  0.00  0.00    +0.025 A 
ATOM     16  C24 <0> A   1     -23.671  -8.544  49.239  0.00  0.00    +0.003 A 
ATOM     17  C25 <0> A   1     -23.103  -9.331  50.225  0.00  0.00    +0.017 A 
ATOM     18  C26 <0> A   1     -23.315  -9.037  51.560  0.00  0.00    +0.001 A 
ATOM     19  C27 <0> A   1     -24.092  -7.954  51.916  0.00  0.00    +0.056 A 
ENDBRANCH   3  14
BRANCH   1  21
ATOM     20  C1  <0> A   1     -29.846  -5.972  51.419  0.00  0.00    +0.034 C 
ATOM     21  C2  <0> A   1     -29.031  -5.318  52.537  0.00  0.00    +0.028 C 
ATOM     22  C3  <0> A   1     -29.048  -6.218  53.775  0.00  0.00    +0.035 C 
ENDBRANCH   1  21
BRANCH   6  23
ATOM     23  C9  <0> A   1     -27.850  -2.655  52.343  0.00  0.00    +0.046 C 
ATOM     24  C10 <0> A   1     -28.624  -2.077  51.433  0.00  0.00    -0.008 C 
BRANCH  24  25
ATOM     25  C11 <0> A   1     -29.438  -0.863  51.798  0.00  0.00    +0.243 C 
ATOM     26  C12 <0> A   1     -28.840  -0.203  53.043  0.00  0.00    +0.051 C 
ATOM     27  C13 <0> A   1     -29.694   1.007  53.436  0.00  0.00    +0.186 C 
ATOM     28  C14 <0> A   1     -31.125   0.533  53.721  0.00  0.00    +0.024 C 
ATOM     29  C15 <0> A   1     -31.599  -0.284  52.539  0.00  0.00    +0.498 C 
ATOM     30  O1  <0> A   1     -32.672  -0.073  52.028  0.00  0.00    -0.449 OA
ATOM     31  O2  <0> A   1     -30.787  -1.257  52.073  0.00  0.00    -0.370 OA
BRANCH  27  32
ATOM     32  O3  <0> A   1     -29.706   1.953  52.366  0.00  0.00    -0.563 OA
ATOM     33  H17 <0> A   1     -30.399   2.623  52.440  0.00  0.00    +0.387 HD
ENDBRANCH  27  32
ENDBRANCH  24  25
ENDBRANCH   6  23
TORSDOF 6
ENDMDL
MODEL 7
REMARK VINA RESULT:      -7.9      4.162      8.805
REMARK  Name = CHEMBL154698
REMARK  8 active torsions:
REMARK  status: ('A' for Active; 'I' for Inactive)
REMARK    1  A    between atoms: C1_1  and  C2_2
REMARK    2  A    between atoms: C2_2  and  C3_3
REMARK    3  A    between atoms: C2_2  and  C4_4
REMARK    4  A    between atoms: C6_6  and  C22_28
REMARK    5  A    between atoms: C7_8  and  C16_21
REMARK    6  A    between atoms: C8_9  and  C9_10
REMARK    7  A    between atoms: C10_11  and  C11_12
REMARK    8  A    between atoms: C13_14  and  O3_20
REMARK                            x       y       z     vdW  Elec       q    Type
REMARK                         _______ _______ _______ _____ _____    ______ ____
ROOT
ATOM      1  C4  <0> A   1     -27.395  -4.944  52.197  0.00  0.00    -0.012 A 
ATOM      2  C5  <0> A   1     -26.681  -6.067  51.824  0.00  0.00    -0.017 A 
ATOM      3  C6  <0> A   1     -25.380  -5.923  51.341  0.00  0.00    +0.179 A 
ATOM      4  N1  <0> A   1     -24.821  -4.725  51.233  0.00  0.00    -0.469 NA
ATOM      5  C7  <0> A   1     -25.467  -3.623  51.578  0.00  0.00    +0.188 A 
ATOM      6  C8  <0> A   1     -26.784  -3.692  52.069  0.00  0.00    -0.100 A 
ENDROOT
BRANCH   5   7
ATOM      7  C16 <0> A   1     -24.802  -2.307  51.441  0.00  0.00    -0.062 A 
ATOM      8  C17 <0> A   1     -24.929  -1.578  50.258  0.00  0.00    +0.080 A 
ATOM      9  C18 <0> A   1     -24.308  -0.352  50.135  0.00  0.00    -0.020 A 
ATOM     10  C19 <0> A   1     -23.558   0.155  51.184  0.00  0.00    +0.114 A 
ATOM     11  C20 <0> A   1     -23.429  -0.565  52.361  0.00  0.00    -0.021 A 
ATOM     12  C21 <0> A   1     -24.050  -1.789  52.496  0.00  0.00    +0.088 A 
ATOM     13  F1  <0> A   1     -22.951   1.356  51.059  0.00  0.00    -0.137 F 
ENDBRANCH   5   7
BRANCH   3  14
ATOM     14  C22 <0> A   1     -24.612  -7.126  50.941  0.00  0.00    -0.052 A 
ATOM     15  C23 <0> A   1     -24.427  -7.420  49.591  0.00  0.00    +0.025 A 
ATOM     16  C24 <0> A   1     -23.711  -8.542  49.224  0.00  0.00    +0.003 A 
ATOM     17  C25 <0> A   1     -23.179  -9.374  50.192  0.00  0.00    +0.017 A 
ATOM     18  C26 <0> A   1     -23.360  -9.086  51.534  0.00  0.00    +0.001 A 
ATOM     19  C27 <0> A   1     -24.068  -7.965  51.912  0.00  0.00    +0.056 A 
ENDBRANCH   3  14
BRANCH   1  21
ATOM     20  C1  <0> A   1     -29.754  -5.373  51.565  0.00  0.00    +0.034 C 
ATOM     21  C2  <0> A   1     -28.802  -5.065  52.723  0.00  0.00    +0.028 C 
ATOM     22  C3  <0> A   1     -28.866  -6.196  53.752  0.00  0.00    +0.035 C 
ENDBRANCH   1  21
BRANCH   6  23
ATOM     23  C9  <0> A   1     -27.508  -2.463  52.448  0.00  0.00    +0.046 C 
ATOM     24  C10 <0> A   1     -28.281  -1.847  51.562  0.00  0.00    -0.008 C 
BRANCH  24  25
ATOM     25  C11 <0> A   1     -29.020  -0.593  51.950  0.00  0.00    +0.243 C 
ATOM     26  C12 <0> A   1     -28.371   0.613  51.267  0.00  0.00    +0.051 C 
ATOM     27  C13 <0> A   1     -29.099   1.892  51.695  0.00  0.00    +0.186 C 
ATOM     28  C14 <0> A   1     -29.002   2.029  53.221  0.00  0.00    +0.024 C 
ATOM     29  C15 <0> A   1     -29.471   0.733  53.844  0.00  0.00    +0.498 C 
ATOM     30  O1  <0> A   1     -30.279   0.733  54.741  0.00  0.00    -0.449 OA
ATOM     31  O2  <0> A   1     -28.958  -0.421  53.370  0.00  0.00    -0.370 OA
BRANCH  27  32
ATOM     32  O3  <0> A   1     -30.470   1.816  51.305  0.00  0.00    -0.563 OA
ATOM     33  H17 <0> A   1     -30.648   2.165  50.421  0.00  0.00    +0.387 HD
ENDBRANCH  27  32
ENDBRANCH  24  25
ENDBRANCH   6  23
TORSDOF 6
ENDMDL
MODEL 8
REMARK VINA RESULT:      -7.9      2.635      4.695
REMARK  Name = CHEMBL154698
REMARK  8 active torsions:
REMARK  status: ('A' for Active; 'I' for Inactive)
REMARK    1  A    between atoms: C1_1  and  C2_2
REMARK    2  A    between atoms: C2_2  and  C3_3
REMARK    3  A    between atoms: C2_2  and  C4_4
REMARK    4  A    between atoms: C6_6  and  C22_28
REMARK    5  A    between atoms: C7_8  and  C16_21
REMARK    6  A    between atoms: C8_9  and  C9_10
REMARK    7  A    between atoms: C10_11  and  C11_12
REMARK    8  A    between atoms: C13_14  and  O3_20
REMARK                            x       y       z     vdW  Elec       q    Type
REMARK                         _______ _______ _______ _____ _____    ______ ____
ROOT
ATOM      1  C4  <0> A   1     -26.933  -3.055  51.380  0.00  0.00    -0.012 A 
ATOM      2  C5  <0> A   1     -27.424  -1.764  51.386  0.00  0.00    -0.017 A 
ATOM      3  C6  <0> A   1     -26.563  -0.705  51.673  0.00  0.00    +0.179 A 
ATOM      4  N1  <0> A   1     -25.282  -0.920  51.941  0.00  0.00    -0.469 NA
ATOM      5  C7  <0> A   1     -24.769  -2.140  51.947  0.00  0.00    +0.188 A 
ATOM      6  C8  <0> A   1     -25.579  -3.256  51.671  0.00  0.00    -0.100 A 
ENDROOT
BRANCH   5   7
ATOM      7  C16 <0> A   1     -23.332  -2.332  52.251  0.00  0.00    -0.062 A 
ATOM      8  C17 <0> A   1     -22.852  -2.098  53.540  0.00  0.00    +0.080 A 
ATOM      9  C18 <0> A   1     -21.513  -2.278  53.819  0.00  0.00    -0.020 A 
ATOM     10  C19 <0> A   1     -20.645  -2.692  52.821  0.00  0.00    +0.114 A 
ATOM     11  C20 <0> A   1     -21.117  -2.926  51.539  0.00  0.00    -0.021 A 
ATOM     12  C21 <0> A   1     -22.455  -2.754  51.252  0.00  0.00    +0.088 A 
ATOM     13  F1  <0> A   1     -19.335  -2.868  53.099  0.00  0.00    -0.137 F 
ENDBRANCH   5   7
BRANCH   3  14
ATOM     14  C22 <0> A   1     -27.087   0.682  51.680  0.00  0.00    -0.052 A 
ATOM     15  C23 <0> A   1     -26.261   1.740  52.057  0.00  0.00    +0.025 A 
ATOM     16  C24 <0> A   1     -26.754   3.029  52.062  0.00  0.00    +0.003 A 
ATOM     17  C25 <0> A   1     -28.066   3.272  51.694  0.00  0.00    +0.017 A 
ATOM     18  C26 <0> A   1     -28.889   2.226  51.318  0.00  0.00    +0.001 A 
ATOM     19  C27 <0> A   1     -28.405   0.934  51.303  0.00  0.00    +0.056 A 
ENDBRANCH   3  14
BRANCH   1  21
ATOM     20  C1  <0> A   1     -28.702  -4.532  52.298  0.00  0.00    +0.034 C 
ATOM     21  C2  <0> A   1     -27.837  -4.222  51.074  0.00  0.00    +0.028 C 
ATOM     22  C3  <0> A   1     -28.738  -3.871  49.888  0.00  0.00    +0.035 C 
ENDBRANCH   1  21
BRANCH   6  23
ATOM     23  C9  <0> A   1     -25.009  -4.617  51.682  0.00  0.00    +0.046 C 
ATOM     24  C10 <0> A   1     -24.871  -5.289  50.546  0.00  0.00    -0.008 C 
BRANCH  24  25
ATOM     25  C11 <0> A   1     -24.289  -6.679  50.558  0.00  0.00    +0.243 C 
ATOM     26  C12 <0> A   1     -25.309  -7.665  49.984  0.00  0.00    +0.051 C 
ATOM     27  C13 <0> A   1     -24.730  -9.083  50.036  0.00  0.00    +0.186 C 
ATOM     28  C14 <0> A   1     -24.412  -9.435  51.495  0.00  0.00    +0.024 C 
ATOM     29  C15 <0> A   1     -23.563  -8.327  52.077  0.00  0.00    +0.498 C 
ATOM     30  O1  <0> A   1     -22.547  -8.575  52.681  0.00  0.00    -0.449 OA
ATOM     31  O2  <0> A   1     -23.975  -7.054  51.904  0.00  0.00    -0.370 OA
BRANCH  27  32
ATOM     32  O3  <0> A   1     -23.535  -9.140  49.257  0.00  0.00    -0.563 OA
ATOM     33  H17 <0> A   1     -22.788  -9.552  49.712  0.00  0.00    +0.387 HD
ENDBRANCH  27  32
ENDBRANCH  24  25
ENDBRANCH   6  23
TORSDOF 6
ENDMDL
MODEL 9
REMARK VINA RESULT:      -7.9      3.157      5.465
REMARK  Name = CHEMBL154698
REMARK  8 active torsions:
REMARK  status: ('A' for Active; 'I' for Inactive)
REMARK    1  A    between atoms: C1_1  and  C2_2
REMARK    2  A    between atoms: C2_2  and  C3_3
REMARK    3  A    between atoms: C2_2  and  C4_4
REMARK    4  A    between atoms: C6_6  and  C22_28
REMARK    5  A    between atoms: C7_8  and  C16_21
REMARK    6  A    between atoms: C8_9  and  C9_10
REMARK    7  A    between atoms: C10_11  and  C11_12
REMARK    8  A    between atoms: C13_14  and  O3_20
REMARK                            x       y       z     vdW  Elec       q    Type
REMARK                         _______ _______ _______ _____ _____    ______ ____
ROOT
ATOM      1  C4  <0> A   1     -27.262  -3.491  52.103  0.00  0.00    -0.012 A 
ATOM      2  C5  <0> A   1     -26.402  -2.411  52.051  0.00  0.00    -0.017 A 
ATOM      3  C6  <0> A   1     -25.074  -2.611  51.672  0.00  0.00    +0.179 A 
ATOM      4  N1  <0> A   1     -24.627  -3.821  51.364  0.00  0.00    -0.469 NA
ATOM      5  C7  <0> A   1     -25.415  -4.883  51.401  0.00  0.00    +0.188 A 
ATOM      6  C8  <0> A   1     -26.764  -4.757  51.778  0.00  0.00    -0.100 A 
ENDROOT
BRANCH   5   7
ATOM      7  C16 <0> A   1     -24.872  -6.215  51.048  0.00  0.00    -0.062 A 
ATOM      8  C17 <0> A   1     -24.332  -7.036  52.038  0.00  0.00    +0.080 A 
ATOM      9  C18 <0> A   1     -23.827  -8.276  51.705  0.00  0.00    -0.020 A 
ATOM     10  C19 <0> A   1     -23.856  -8.706  50.388  0.00  0.00    +0.114 A 
ATOM     11  C20 <0> A   1     -24.391  -7.894  49.400  0.00  0.00    -0.021 A 
ATOM     12  C21 <0> A   1     -24.903  -6.656  49.725  0.00  0.00    +0.088 A 
ATOM     13  F1  <0> A   1     -23.361  -9.921  50.066  0.00  0.00    -0.137 F 
ENDBRANCH   5   7
BRANCH   3  14
ATOM     14  C22 <0> A   1     -24.148  -1.454  51.614  0.00  0.00    -0.052 A 
ATOM     15  C23 <0> A   1     -22.919  -1.508  52.270  0.00  0.00    +0.025 A 
ATOM     16  C24 <0> A   1     -22.062  -0.429  52.213  0.00  0.00    +0.003 A 
ATOM     17  C25 <0> A   1     -22.420   0.707  51.508  0.00  0.00    +0.017 A 
ATOM     18  C26 <0> A   1     -23.639   0.766  50.856  0.00  0.00    +0.001 A 
ATOM     19  C27 <0> A   1     -24.501  -0.310  50.900  0.00  0.00    +0.056 A 
ENDBRANCH   3  14
BRANCH   1  21
ATOM     20  C1  <0> A   1     -28.812  -2.143  53.494  0.00  0.00    +0.034 C 
ATOM     21  C2  <0> A   1     -28.702  -3.309  52.509  0.00  0.00    +0.028 C 
ATOM     22  C3  <0> A   1     -29.547  -3.011  51.268  0.00  0.00    +0.035 C 
ENDBRANCH   1  21
BRANCH   6  23
ATOM     23  C9  <0> A   1     -27.643  -5.942  51.825  0.00  0.00    +0.046 C 
ATOM     24  C10 <0> A   1     -28.156  -6.343  52.982  0.00  0.00    -0.008 C 
BRANCH  24  25
ATOM     25  C11 <0> A   1     -29.054  -7.552  53.030  0.00  0.00    +0.243 C 
ATOM     26  C12 <0> A   1     -30.267  -7.323  52.126  0.00  0.00    +0.051 C 
ATOM     27  C13 <0> A   1     -31.198  -8.538  52.208  0.00  0.00    +0.186 C 
ATOM     28  C14 <0> A   1     -31.647  -8.720  53.664  0.00  0.00    +0.024 C 
ATOM     29  C15 <0> A   1     -30.415  -8.741  54.541  0.00  0.00    +0.498 C 
ATOM     30  O1  <0> A   1     -30.256  -9.607  55.368  0.00  0.00    -0.449 OA
ATOM     31  O2  <0> A   1     -29.499  -7.764  54.374  0.00  0.00    -0.370 OA
BRANCH  27  32
ATOM     32  O3  <0> A   1     -30.502  -9.705  51.770  0.00  0.00    -0.563 OA
ATOM     33  H17 <0> A   1     -31.079 -10.400  51.423  0.00  0.00    +0.387 HD
ENDBRANCH  27  32
ENDBRANCH  24  25
ENDBRANCH   6  23
TORSDOF 6
ENDMDL
MODEL 10
REMARK VINA RESULT:      -7.9     16.275     19.968
REMARK  Name = CHEMBL154698
REMARK  8 active torsions:
REMARK  status: ('A' for Active; 'I' for Inactive)
REMARK    1  A    between atoms: C1_1  and  C2_2
REMARK    2  A    between atoms: C2_2  and  C3_3
REMARK    3  A    between atoms: C2_2  and  C4_4
REMARK    4  A    between atoms: C6_6  and  C22_28
REMARK    5  A    between atoms: C7_8  and  C16_21
REMARK    6  A    between atoms: C8_9  and  C9_10
REMARK    7  A    between atoms: C10_11  and  C11_12
REMARK    8  A    between atoms: C13_14  and  O3_20
REMARK                            x       y       z     vdW  Elec       q    Type
REMARK                         _______ _______ _______ _____ _____    ______ ____
ROOT
ATOM      1  C4  <0> A   1     -14.423   6.995  44.538  0.00  0.00    -0.012 A 
ATOM      2  C5  <0> A   1     -14.078   7.224  43.220  0.00  0.00    -0.017 A 
ATOM      3  C6  <0> A   1     -13.562   8.467  42.854  0.00  0.00    +0.179 A 
ATOM      4  N1  <0> A   1     -13.401   9.431  43.751  0.00  0.00    -0.469 NA
ATOM      5  C7  <0> A   1     -13.718   9.255  45.024  0.00  0.00    +0.188 A 
ATOM      6  C8  <0> A   1     -14.248   8.028  45.464  0.00  0.00    -0.100 A 
ENDROOT
BRANCH   5   7
ATOM      7  C16 <0> A   1     -13.520  10.360  45.990  0.00  0.00    -0.062 A 
ATOM      8  C17 <0> A   1     -12.319  10.469  46.692  0.00  0.00    +0.080 A 
ATOM      9  C18 <0> A   1     -12.139  11.500  47.591  0.00  0.00    -0.020 A 
ATOM     10  C19 <0> A   1     -13.149  12.426  47.798  0.00  0.00    +0.114 A 
ATOM     11  C20 <0> A   1     -14.343  12.322  47.103  0.00  0.00    -0.021 A 
ATOM     12  C21 <0> A   1     -14.531  11.298  46.198  0.00  0.00    +0.088 A 
ATOM     13  F1  <0> A   1     -12.967  13.433  48.679  0.00  0.00    -0.137 F 
ENDBRANCH   5   7
BRANCH   3  14
ATOM     14  C22 <0> A   1     -13.190   8.716  41.440  0.00  0.00    -0.052 A 
ATOM     15  C23 <0> A   1     -13.327   9.992  40.896  0.00  0.00    +0.025 A 
ATOM     16  C24 <0> A   1     -12.979  10.218  39.579  0.00  0.00    +0.003 A 
ATOM     17  C25 <0> A   1     -12.497   9.182  38.800  0.00  0.00    +0.017 A 
ATOM     18  C26 <0> A   1     -12.359   7.913  39.336  0.00  0.00    +0.001 A 
ATOM     19  C27 <0> A   1     -12.697   7.677  40.652  0.00  0.00    +0.056 A 
ENDBRANCH   3  14
BRANCH   1  21
ATOM     20  C1  <0> A   1     -16.447   5.562  44.534  0.00  0.00    +0.034 C 
ATOM     21  C2  <0> A   1     -14.983   5.663  44.967  0.00  0.00    +0.028 C 
ATOM     22  C3  <0> A   1     -14.179   4.537  44.313  0.00  0.00    +0.035 C 
ENDBRANCH   1  21
BRANCH   6  23
ATOM     23  C9  <0> A   1     -14.607   7.834  46.882  0.00  0.00    +0.046 C 
ATOM     24  C10 <0> A   1     -15.854   8.044  47.286  0.00  0.00    -0.008 C 
BRANCH  24  25
ATOM     25  C11 <0> A   1     -16.222   7.844  48.733  0.00  0.00    +0.243 C 
ATOM     26  C12 <0> A   1     -16.403   6.350  49.012  0.00  0.00    +0.051 C 
ATOM     27  C13 <0> A   1     -16.817   6.154  50.475  0.00  0.00    +0.186 C 
ATOM     28  C14 <0> A   1     -18.131   6.905  50.723  0.00  0.00    +0.024 C 
ATOM     29  C15 <0> A   1     -17.961   8.330  50.246  0.00  0.00    +0.498 C 
ATOM     30  O1  <0> A   1     -18.278   9.261  50.946  0.00  0.00    -0.449 OA
ATOM     31  O2  <0> A   1     -17.446   8.530  49.015  0.00  0.00    -0.370 OA
BRANCH  27  32
ATOM     32  O3  <0> A   1     -15.799   6.669  51.334  0.00  0.00    -0.563 OA
ATOM     33  H17 <0> A   1     -16.094   6.830  52.240  0.00  0.00    +0.387 HD
ENDBRANCH  27  32
ENDBRANCH  24  25
ENDBRANCH   6  23
TORSDOF 6
ENDMDL
