MODEL 1
REMARK VINA RESULT:      -9.9      0.000      0.000
REMARK  Name = CHEMBL228528
REMARK  14 active torsions:
REMARK  status: ('A' for Active; 'I' for Inactive)
REMARK    1  A    between atoms: C1_1  and  C2_2
REMARK    2  A    between atoms: C2_2  and  C3_3
REMARK    3  A    between atoms: C2_2  and  N1_4
REMARK    4  A    between atoms: C4_5  and  C27_32
REMARK    5  A    between atoms: C5_6  and  C21_25
REMARK    6  A    between atoms: N2_11  and  C15_18
REMARK    7  A    between atoms: C27_32  and  C28_33
REMARK    8  A    between atoms: C28_33  and  C29_34
REMARK    9  A    between atoms: C29_34  and  C30_36
REMARK   10  A    between atoms: C29_34  and  O5_44
REMARK   11  A    between atoms: C30_36  and  C31_37
REMARK   12  A    between atoms: C31_37  and  C32_39
REMARK   13  A    between atoms: C31_37  and  O4_43
REMARK   14  A    between atoms: C32_39  and  C33_40
REMARK                            x       y       z     vdW  Elec       q    Type
REMARK                         _______ _______ _______ _____ _____    ______ ____
ROOT
ATOM      1  N1  <0> A   1     -14.653   6.514  45.355  0.00  0.00    -0.391 N 
ATOM      2  C4  <0> A   1     -13.846   7.574  45.097  0.00  0.00    +0.111 C 
ATOM      3  C5  <0> A   1     -14.149   8.592  45.951  0.00  0.00    -0.129 C 
ATOM      4  C6  <0> A   1     -15.232   8.114  46.801  0.00  0.00    -0.042 C 
ATOM      5  C7  <0> A   1     -15.514   6.813  46.386  0.00  0.00    -0.046 C 
ATOM      6  C8  <0> A   1     -16.537   6.086  47.034  0.00  0.00    +0.582 C 
ATOM      7  O1  <0> A   1     -16.781   4.948  46.672  0.00  0.00    -0.519 OA
ATOM      8  N2  <0> A   1     -17.250   6.620  48.040  0.00  0.00    -0.482 N 
ATOM      9  C9  <0> A   1     -17.021   7.907  48.497  0.00  0.00    +0.159 A 
ATOM     10  C10 <0> A   1     -16.012   8.690  47.906  0.00  0.00    -0.049 A 
ATOM     11  C11 <0> A   1     -15.781   9.985  48.362  0.00  0.00    +0.066 A 
ATOM     12  C12 <0> A   1     -16.534  10.490  49.401  0.00  0.00    -0.009 A 
ATOM     13  C13 <0> A   1     -17.518   9.713  49.992  0.00  0.00    +0.047 A 
ATOM     14  C14 <0> A   1     -17.772   8.435  49.540  0.00  0.00    -0.019 A 
ENDROOT
BRANCH   8  15
ATOM     15  C15 <0> A   1     -18.252   5.854  48.646  0.00  0.00    +0.157 A 
ATOM     16  C16 <0> A   1     -19.587   6.084  48.337  0.00  0.00    +0.025 A 
ATOM     17  C17 <0> A   1     -20.575   5.327  48.936  0.00  0.00    +0.063 A 
ATOM     18  C18 <0> A   1     -20.237   4.338  49.842  0.00  0.00    +0.001 A 
ATOM     19  C19 <0> A   1     -18.908   4.106  50.152  0.00  0.00    +0.110 A 
ATOM     20  C20 <0> A   1     -17.914   4.858  49.552  0.00  0.00    +0.003 A 
ATOM     21  F1  <0> A   1     -18.580   3.139  51.038  0.00  0.00    -0.133 F 
ENDBRANCH   8  15
BRANCH   3  22
ATOM     22  C21 <0> A   1     -13.503   9.927  46.004  0.00  0.00    -0.013 A 
ATOM     23  C22 <0> A   1     -12.399  10.136  46.827  0.00  0.00    +0.054 A 
ATOM     24  C23 <0> A   1     -11.800  11.378  46.874  0.00  0.00    -0.012 A 
ATOM     25  C24 <0> A   1     -12.296  12.418  46.103  0.00  0.00    +0.098 A 
ATOM     26  C25 <0> A   1     -13.394  12.215  45.284  0.00  0.00    -0.014 A 
ATOM     27  C26 <0> A   1     -13.995  10.973  45.227  0.00  0.00    +0.054 A 
ATOM     28  F2  <0> A   1     -11.708  13.633  46.152  0.00  0.00    -0.140 F 
ENDBRANCH   3  22
BRANCH   1  30
ATOM     29  C1  <0> A   1     -14.252   4.115  45.609  0.00  0.00    +0.045 C 
ATOM     30  C2  <0> A   1     -14.617   5.238  44.636  0.00  0.00    +0.229 C 
ATOM     31  C3  <0> A   1     -15.992   4.958  44.025  0.00  0.00    +0.046 C 
ENDBRANCH   1  30
BRANCH   2  32
ATOM     32  C27 <0> A   1     -12.780   7.616  44.033  0.00  0.00    +0.122 C 
BRANCH  32  33
ATOM     33  C28 <0> A   1     -13.419   7.964  42.685  0.00  0.00    -0.005 C 
BRANCH  33  34
ATOM     34  C29 <0> A   1     -12.382   7.796  41.572  0.00  0.00    +0.214 C 
BRANCH  34  35
ATOM     35  O5  <0> A   1     -11.858   6.468  41.604  0.00  0.00    -0.542 OA
ATOM     36  H31 <0> A   1     -11.987   6.014  42.449  0.00  0.00    +0.364 HD
ENDBRANCH  34  35
BRANCH  34  37
ATOM     37  C30 <0> A   1     -13.045   8.050  40.216  0.00  0.00    -0.051 C 
BRANCH  37  38
ATOM     38  C31 <0> A   1     -12.300   9.170  39.487  0.00  0.00    +0.231 C 
BRANCH  38  39
ATOM     39  O4  <0> A   1     -12.752   9.238  38.133  0.00  0.00    -0.528 OA
ATOM     40  H30 <0> A   1     -13.687   9.019  38.018  0.00  0.00    +0.349 HD
ENDBRANCH  38  39
BRANCH  38  41
ATOM     41  C32 <0> A   1     -12.576  10.504  40.183  0.00  0.00    -0.103 C 
BRANCH  41  42
ATOM     42  C33 <0> A   1     -13.031  11.517  39.166  0.00  0.00    +0.490 C 
ATOM     43  O2  <0> A   1     -12.209  12.155  38.530  0.00  0.00    -0.681 OA
ATOM     44  O3  <0> A   1     -14.222  11.701  38.978  0.00  0.00    -0.713 OA
ENDBRANCH  41  42
ENDBRANCH  38  41
ENDBRANCH  37  38
ENDBRANCH  34  37
ENDBRANCH  33  34
ENDBRANCH  32  33
ENDBRANCH   2  32
TORSDOF 12
ENDMDL
MODEL 2
REMARK VINA RESULT:      -9.7      0.750      1.019
REMARK  Name = CHEMBL228528
REMARK  14 active torsions:
REMARK  status: ('A' for Active; 'I' for Inactive)
REMARK    1  A    between atoms: C1_1  and  C2_2
REMARK    2  A    between atoms: C2_2  and  C3_3
REMARK    3  A    between atoms: C2_2  and  N1_4
REMARK    4  A    between atoms: C4_5  and  C27_32
REMARK    5  A    between atoms: C5_6  and  C21_25
REMARK    6  A    between atoms: N2_11  and  C15_18
REMARK    7  A    between atoms: C27_32  and  C28_33
REMARK    8  A    between atoms: C28_33  and  C29_34
REMARK    9  A    between atoms: C29_34  and  C30_36
REMARK   10  A    between atoms: C29_34  and  O5_44
REMARK   11  A    between atoms: C30_36  and  C31_37
REMARK   12  A    between atoms: C31_37  and  C32_39
REMARK   13  A    between atoms: C31_37  and  O4_43
REMARK   14  A    between atoms: C32_39  and  C33_40
REMARK                            x       y       z     vdW  Elec       q    Type
REMARK                         _______ _______ _______ _____ _____    ______ ____
ROOT
ATOM      1  N1  <0> A   1     -14.548   6.463  45.495  0.00  0.00    -0.391 N 
ATOM      2  C4  <0> A   1     -13.743   7.524  45.238  0.00  0.00    +0.111 C 
ATOM      3  C5  <0> A   1     -14.080   8.558  46.060  0.00  0.00    -0.129 C 
ATOM      4  C6  <0> A   1     -15.185   8.089  46.888  0.00  0.00    -0.042 C 
ATOM      5  C7  <0> A   1     -15.443   6.776  46.492  0.00  0.00    -0.046 C 
ATOM      6  C8  <0> A   1     -16.480   6.054  47.124  0.00  0.00    +0.582 C 
ATOM      7  O1  <0> A   1     -16.703   4.907  46.780  0.00  0.00    -0.519 OA
ATOM      8  N2  <0> A   1     -17.227   6.604  48.097  0.00  0.00    -0.482 N 
ATOM      9  C9  <0> A   1     -17.023   7.903  48.532  0.00  0.00    +0.159 A 
ATOM     10  C10 <0> A   1     -16.004   8.681  47.956  0.00  0.00    -0.049 A 
ATOM     11  C11 <0> A   1     -15.797   9.988  48.390  0.00  0.00    +0.066 A 
ATOM     12  C12 <0> A   1     -16.586  10.508  49.394  0.00  0.00    -0.009 A 
ATOM     13  C13 <0> A   1     -17.580   9.736  49.972  0.00  0.00    +0.047 A 
ATOM     14  C14 <0> A   1     -17.810   8.446  49.540  0.00  0.00    -0.019 A 
ENDROOT
BRANCH   8  15
ATOM     15  C15 <0> A   1     -18.241   5.842  48.688  0.00  0.00    +0.157 A 
ATOM     16  C16 <0> A   1     -19.569   6.066  48.347  0.00  0.00    +0.025 A 
ATOM     17  C17 <0> A   1     -20.569   5.313  48.932  0.00  0.00    +0.063 A 
ATOM     18  C18 <0> A   1     -20.249   4.335  49.856  0.00  0.00    +0.001 A 
ATOM     19  C19 <0> A   1     -18.927   4.109  50.198  0.00  0.00    +0.110 A 
ATOM     20  C20 <0> A   1     -17.922   4.856  49.612  0.00  0.00    +0.003 A 
ATOM     21  F1  <0> A   1     -18.618   3.152  51.101  0.00  0.00    -0.133 F 
ENDBRANCH   8  15
BRANCH   3  22
ATOM     22  C21 <0> A   1     -13.447   9.899  46.104  0.00  0.00    -0.013 A 
ATOM     23  C22 <0> A   1     -12.347  10.126  46.929  0.00  0.00    +0.054 A 
ATOM     24  C23 <0> A   1     -11.761  11.374  46.967  0.00  0.00    -0.012 A 
ATOM     25  C24 <0> A   1     -12.265  12.402  46.186  0.00  0.00    +0.098 A 
ATOM     26  C25 <0> A   1     -13.358  12.182  45.365  0.00  0.00    -0.014 A 
ATOM     27  C26 <0> A   1     -13.947  10.934  45.316  0.00  0.00    +0.054 A 
ATOM     28  F2  <0> A   1     -11.688  13.623  46.226  0.00  0.00    -0.140 F 
ENDBRANCH   3  22
BRANCH   1  30
ATOM     29  C1  <0> A   1     -14.193   4.065  45.822  0.00  0.00    +0.045 C 
ATOM     30  C2  <0> A   1     -14.480   5.172  44.805  0.00  0.00    +0.229 C 
ATOM     31  C3  <0> A   1     -15.815   4.894  44.111  0.00  0.00    +0.046 C 
ENDBRANCH   1  30
BRANCH   2  32
ATOM     32  C27 <0> A   1     -12.645   7.553  44.206  0.00  0.00    +0.122 C 
BRANCH  32  33
ATOM     33  C28 <0> A   1     -13.255   7.418  42.809  0.00  0.00    -0.005 C 
BRANCH  33  34
ATOM     34  C29 <0> A   1     -12.759   8.562  41.923  0.00  0.00    +0.214 C 
BRANCH  34  35
ATOM     35  O5  <0> A   1     -12.573   8.086  40.589  0.00  0.00    -0.542 OA
ATOM     36  H31 <0> A   1     -12.153   8.726  39.998  0.00  0.00    +0.364 HD
ENDBRANCH  34  35
BRANCH  34  37
ATOM     37  C30 <0> A   1     -13.791   9.691  41.922  0.00  0.00    -0.051 C 
BRANCH  37  38
ATOM     38  C31 <0> A   1     -13.137  10.980  41.421  0.00  0.00    +0.231 C 
BRANCH  38  39
ATOM     39  O4  <0> A   1     -11.740  10.757  41.220  0.00  0.00    -0.528 OA
ATOM     40  H30 <0> A   1     -11.315  10.256  41.930  0.00  0.00    +0.349 HD
ENDBRANCH  38  39
BRANCH  38  41
ATOM     41  C32 <0> A   1     -13.782  11.398  40.098  0.00  0.00    -0.103 C 
BRANCH  41  42
ATOM     42  C33 <0> A   1     -12.784  11.239  38.980  0.00  0.00    +0.490 C 
ATOM     43  O2  <0> A   1     -12.532  10.129  38.541  0.00  0.00    -0.681 OA
ATOM     44  O3  <0> A   1     -12.228  12.219  38.515  0.00  0.00    -0.713 OA
ENDBRANCH  41  42
ENDBRANCH  38  41
ENDBRANCH  37  38
ENDBRANCH  34  37
ENDBRANCH  33  34
ENDBRANCH  32  33
ENDBRANCH   2  32
TORSDOF 12
ENDMDL
MODEL 3
REMARK VINA RESULT:      -9.1      1.405      1.996
REMARK  Name = CHEMBL228528
REMARK  14 active torsions:
REMARK  status: ('A' for Active; 'I' for Inactive)
REMARK    1  A    between atoms: C1_1  and  C2_2
REMARK    2  A    between atoms: C2_2  and  C3_3
REMARK    3  A    between atoms: C2_2  and  N1_4
REMARK    4  A    between atoms: C4_5  and  C27_32
REMARK    5  A    between atoms: C5_6  and  C21_25
REMARK    6  A    between atoms: N2_11  and  C15_18
REMARK    7  A    between atoms: C27_32  and  C28_33
REMARK    8  A    between atoms: C28_33  and  C29_34
REMARK    9  A    between atoms: C29_34  and  C30_36
REMARK   10  A    between atoms: C29_34  and  O5_44
REMARK   11  A    between atoms: C30_36  and  C31_37
REMARK   12  A    between atoms: C31_37  and  C32_39
REMARK   13  A    between atoms: C31_37  and  O4_43
REMARK   14  A    between atoms: C32_39  and  C33_40
REMARK                            x       y       z     vdW  Elec       q    Type
REMARK                         _______ _______ _______ _____ _____    ______ ____
ROOT
ATOM      1  N1  <0> A   1     -15.448   6.530  45.973  0.00  0.00    -0.391 N 
ATOM      2  C4  <0> A   1     -14.671   7.509  45.444  0.00  0.00    +0.111 C 
ATOM      3  C5  <0> A   1     -14.625   8.565  46.305  0.00  0.00    -0.129 C 
ATOM      4  C6  <0> A   1     -15.444   8.201  47.454  0.00  0.00    -0.042 C 
ATOM      5  C7  <0> A   1     -15.941   6.924  47.195  0.00  0.00    -0.046 C 
ATOM      6  C8  <0> A   1     -16.783   6.303  48.145  0.00  0.00    +0.582 C 
ATOM      7  O1  <0> A   1     -17.214   5.186  47.919  0.00  0.00    -0.519 OA
ATOM      8  N2  <0> A   1     -17.121   6.917  49.291  0.00  0.00    -0.482 N 
ATOM      9  C9  <0> A   1     -16.665   8.186  49.605  0.00  0.00    +0.159 A 
ATOM     10  C10 <0> A   1     -15.815   8.864  48.713  0.00  0.00    -0.049 A 
ATOM     11  C11 <0> A   1     -15.356  10.141  49.026  0.00  0.00    +0.066 A 
ATOM     12  C12 <0> A   1     -15.726  10.729  50.216  0.00  0.00    -0.009 A 
ATOM     13  C13 <0> A   1     -16.551  10.055  51.102  0.00  0.00    +0.047 A 
ATOM     14  C14 <0> A   1     -17.030   8.797  50.798  0.00  0.00    -0.019 A 
ENDROOT
BRANCH   8  15
ATOM     15  C15 <0> A   1     -17.959   6.255  50.196  0.00  0.00    +0.157 A 
ATOM     16  C16 <0> A   1     -17.414   5.490  51.219  0.00  0.00    +0.025 A 
ATOM     17  C17 <0> A   1     -18.243   4.838  52.111  0.00  0.00    +0.063 A 
ATOM     18  C18 <0> A   1     -19.616   4.946  51.988  0.00  0.00    +0.001 A 
ATOM     19  C19 <0> A   1     -20.164   5.707  50.969  0.00  0.00    +0.110 A 
ATOM     20  C20 <0> A   1     -19.338   6.367  50.076  0.00  0.00    +0.003 A 
ATOM     21  F1  <0> A   1     -21.506   5.811  50.850  0.00  0.00    -0.133 F 
ENDBRANCH   8  15
BRANCH   3  22
ATOM     22  C21 <0> A   1     -13.886   9.836  46.109  0.00  0.00    -0.013 A 
ATOM     23  C22 <0> A   1     -14.440  10.856  45.337  0.00  0.00    +0.054 A 
ATOM     24  C23 <0> A   1     -13.750  12.036  45.158  0.00  0.00    -0.012 A 
ATOM     25  C24 <0> A   1     -12.506  12.210  45.744  0.00  0.00    +0.098 A 
ATOM     26  C25 <0> A   1     -11.950  11.199  46.511  0.00  0.00    -0.014 A 
ATOM     27  C26 <0> A   1     -12.637  10.018  46.701  0.00  0.00    +0.054 A 
ATOM     28  F2  <0> A   1     -11.833  13.367  45.565  0.00  0.00    -0.140 F 
ENDBRANCH   3  22
BRANCH   1  30
ATOM     29  C1  <0> A   1     -16.361   5.488  43.958  0.00  0.00    +0.045 C 
ATOM     30  C2  <0> A   1     -15.730   5.244  45.330  0.00  0.00    +0.229 C 
ATOM     31  C3  <0> A   1     -14.426   4.463  45.159  0.00  0.00    +0.046 C 
ENDBRANCH   1  30
BRANCH   2  32
ATOM     32  C27 <0> A   1     -13.966   7.437  44.115  0.00  0.00    +0.122 C 
BRANCH  32  33
ATOM     33  C28 <0> A   1     -12.473   7.710  44.313  0.00  0.00    -0.005 C 
BRANCH  33  34
ATOM     34  C29 <0> A   1     -11.965   8.609  43.185  0.00  0.00    +0.214 C 
BRANCH  34  35
ATOM     35  O5  <0> A   1     -11.076   7.869  42.347  0.00  0.00    -0.542 OA
ATOM     36  H31 <0> A   1     -10.803   7.018  42.718  0.00  0.00    +0.364 HD
ENDBRANCH  34  35
BRANCH  34  37
ATOM     37  C30 <0> A   1     -13.151   9.107  42.356  0.00  0.00    -0.051 C 
BRANCH  37  38
ATOM     38  C31 <0> A   1     -12.839  10.498  41.802  0.00  0.00    +0.231 C 
BRANCH  38  39
ATOM     39  O4  <0> A   1     -11.475  10.545  41.376  0.00  0.00    -0.528 OA
ATOM     40  H30 <0> A   1     -11.356  10.869  40.473  0.00  0.00    +0.349 HD
ENDBRANCH  38  39
BRANCH  38  41
ATOM     41  C32 <0> A   1     -13.754  10.791  40.612  0.00  0.00    -0.103 C 
BRANCH  41  42
ATOM     42  C33 <0> A   1     -12.929  10.895  39.356  0.00  0.00    +0.490 C 
ATOM     43  O2  <0> A   1     -12.609   9.886  38.751  0.00  0.00    -0.681 OA
ATOM     44  O3  <0> A   1     -12.579  11.989  38.945  0.00  0.00    -0.713 OA
ENDBRANCH  41  42
ENDBRANCH  38  41
ENDBRANCH  37  38
ENDBRANCH  34  37
ENDBRANCH  33  34
ENDBRANCH  32  33
ENDBRANCH   2  32
TORSDOF 12
ENDMDL
MODEL 4
REMARK VINA RESULT:      -8.8     15.424     20.766
REMARK  Name = CHEMBL228528
REMARK  14 active torsions:
REMARK  status: ('A' for Active; 'I' for Inactive)
REMARK    1  A    between atoms: C1_1  and  C2_2
REMARK    2  A    between atoms: C2_2  and  C3_3
REMARK    3  A    between atoms: C2_2  and  N1_4
REMARK    4  A    between atoms: C4_5  and  C27_32
REMARK    5  A    between atoms: C5_6  and  C21_25
REMARK    6  A    between atoms: N2_11  and  C15_18
REMARK    7  A    between atoms: C27_32  and  C28_33
REMARK    8  A    between atoms: C28_33  and  C29_34
REMARK    9  A    between atoms: C29_34  and  C30_36
REMARK   10  A    between atoms: C29_34  and  O5_44
REMARK   11  A    between atoms: C30_36  and  C31_37
REMARK   12  A    between atoms: C31_37  and  C32_39
REMARK   13  A    between atoms: C31_37  and  O4_43
REMARK   14  A    between atoms: C32_39  and  C33_40
REMARK                            x       y       z     vdW  Elec       q    Type
REMARK                         _______ _______ _______ _____ _____    ______ ____
ROOT
ATOM      1  N1  <0> A   1     -28.228  -4.737  52.494  0.00  0.00    -0.391 N 
ATOM      2  C4  <0> A   1     -27.660  -5.902  52.093  0.00  0.00    +0.111 C 
ATOM      3  C5  <0> A   1     -26.396  -5.658  51.644  0.00  0.00    -0.129 C 
ATOM      4  C6  <0> A   1     -26.174  -4.224  51.781  0.00  0.00    -0.042 C 
ATOM      5  C7  <0> A   1     -27.350  -3.693  52.311  0.00  0.00    -0.046 C 
ATOM      6  C8  <0> A   1     -27.434  -2.304  52.554  0.00  0.00    +0.582 C 
ATOM      7  O1  <0> A   1     -28.461  -1.841  53.019  0.00  0.00    -0.519 OA
ATOM      8  N2  <0> A   1     -26.408  -1.480  52.282  0.00  0.00    -0.482 N 
ATOM      9  C9  <0> A   1     -25.216  -1.945  51.752  0.00  0.00    +0.159 A 
ATOM     10  C10 <0> A   1     -25.055  -3.317  51.491  0.00  0.00    -0.049 A 
ATOM     11  C11 <0> A   1     -23.858  -3.787  50.957  0.00  0.00    +0.066 A 
ATOM     12  C12 <0> A   1     -22.830  -2.904  50.698  0.00  0.00    -0.009 A 
ATOM     13  C13 <0> A   1     -22.985  -1.554  50.969  0.00  0.00    +0.047 A 
ATOM     14  C14 <0> A   1     -24.171  -1.070  51.481  0.00  0.00    -0.019 A 
ENDROOT
BRANCH   8  15
ATOM     15  C15 <0> A   1     -26.547  -0.112  52.542  0.00  0.00    +0.157 A 
ATOM     16  C16 <0> A   1     -26.167   0.405  53.775  0.00  0.00    +0.025 A 
ATOM     17  C17 <0> A   1     -26.304   1.755  54.029  0.00  0.00    +0.063 A 
ATOM     18  C18 <0> A   1     -26.819   2.595  53.059  0.00  0.00    +0.001 A 
ATOM     19  C19 <0> A   1     -27.198   2.084  51.829  0.00  0.00    +0.110 A 
ATOM     20  C20 <0> A   1     -27.058   0.733  51.566  0.00  0.00    +0.003 A 
ATOM     21  F1  <0> A   1     -27.700   2.907  50.882  0.00  0.00    -0.133 F 
ENDBRANCH   8  15
BRANCH   3  22
ATOM     22  C21 <0> A   1     -25.434  -6.658  51.117  0.00  0.00    -0.013 A 
ATOM     23  C22 <0> A   1     -25.318  -6.861  49.744  0.00  0.00    +0.054 A 
ATOM     24  C23 <0> A   1     -24.423  -7.791  49.258  0.00  0.00    -0.012 A 
ATOM     25  C24 <0> A   1     -23.640  -8.525  50.135  0.00  0.00    +0.098 A 
ATOM     26  C25 <0> A   1     -23.752  -8.328  51.501  0.00  0.00    -0.014 A 
ATOM     27  C26 <0> A   1     -24.640  -7.394  51.995  0.00  0.00    +0.054 A 
ATOM     28  F2  <0> A   1     -22.765  -9.436  49.656  0.00  0.00    -0.140 F 
ENDBRANCH   3  22
BRANCH   1  30
ATOM     29  C1  <0> A   1     -30.603  -4.852  51.920  0.00  0.00    +0.045 C 
ATOM     30  C2  <0> A   1     -29.583  -4.607  53.035  0.00  0.00    +0.229 C 
ATOM     31  C3  <0> A   1     -29.789  -5.636  54.148  0.00  0.00    +0.046 C 
ENDBRANCH   1  30
BRANCH   2  32
ATOM     32  C27 <0> A   1     -28.323  -7.254  52.139  0.00  0.00    +0.122 C 
BRANCH  32  33
ATOM     33  C28 <0> A   1     -28.705  -7.683  50.720  0.00  0.00    -0.005 C 
BRANCH  33  34
ATOM     34  C29 <0> A   1     -29.141  -9.150  50.732  0.00  0.00    +0.214 C 
BRANCH  34  35
ATOM     35  O5  <0> A   1     -27.987  -9.991  50.757  0.00  0.00    -0.542 OA
ATOM     36  H31 <0> A   1     -28.010 -10.671  51.444  0.00  0.00    +0.364 HD
ENDBRANCH  34  35
BRANCH  34  37
ATOM     37  C30 <0> A   1     -29.995  -9.418  51.974  0.00  0.00    -0.051 C 
BRANCH  37  38
ATOM     38  C31 <0> A   1     -30.817 -10.690  51.762  0.00  0.00    +0.231 C 
BRANCH  38  39
ATOM     39  O4  <0> A   1     -30.482 -11.269  50.499  0.00  0.00    -0.528 OA
ATOM     40  H30 <0> A   1     -30.113 -10.640  49.863  0.00  0.00    +0.349 HD
ENDBRANCH  38  39
BRANCH  38  41
ATOM     41  C32 <0> A   1     -30.507 -11.689  52.878  0.00  0.00    -0.103 C 
BRANCH  41  42
ATOM     42  C33 <0> A   1     -29.660 -12.808  52.330  0.00  0.00    +0.490 C 
ATOM     43  O2  <0> A   1     -28.469 -12.633  52.138  0.00  0.00    -0.681 OA
ATOM     44  O3  <0> A   1     -30.166 -13.889  52.078  0.00  0.00    -0.713 OA
ENDBRANCH  41  42
ENDBRANCH  38  41
ENDBRANCH  37  38
ENDBRANCH  34  37
ENDBRANCH  33  34
ENDBRANCH  32  33
ENDBRANCH   2  32
TORSDOF 12
ENDMDL
MODEL 5
REMARK VINA RESULT:      -8.6     16.178     21.017
REMARK  Name = CHEMBL228528
REMARK  14 active torsions:
REMARK  status: ('A' for Active; 'I' for Inactive)
REMARK    1  A    between atoms: C1_1  and  C2_2
REMARK    2  A    between atoms: C2_2  and  C3_3
REMARK    3  A    between atoms: C2_2  and  N1_4
REMARK    4  A    between atoms: C4_5  and  C27_32
REMARK    5  A    between atoms: C5_6  and  C21_25
REMARK    6  A    between atoms: N2_11  and  C15_18
REMARK    7  A    between atoms: C27_32  and  C28_33
REMARK    8  A    between atoms: C28_33  and  C29_34
REMARK    9  A    between atoms: C29_34  and  C30_36
REMARK   10  A    between atoms: C29_34  and  O5_44
REMARK   11  A    between atoms: C30_36  and  C31_37
REMARK   12  A    between atoms: C31_37  and  C32_39
REMARK   13  A    between atoms: C31_37  and  O4_43
REMARK   14  A    between atoms: C32_39  and  C33_40
REMARK                            x       y       z     vdW  Elec       q    Type
REMARK                         _______ _______ _______ _____ _____    ______ ____
ROOT
ATOM      1  N1  <0> A   1     -28.839  -5.403  50.345  0.00  0.00    -0.391 N 
ATOM      2  C4  <0> A   1     -28.087  -6.519  50.168  0.00  0.00    +0.111 C 
ATOM      3  C5  <0> A   1     -26.770  -6.208  50.340  0.00  0.00    -0.129 C 
ATOM      4  C6  <0> A   1     -26.714  -4.784  50.646  0.00  0.00    -0.042 C 
ATOM      5  C7  <0> A   1     -28.032  -4.326  50.631  0.00  0.00    -0.046 C 
ATOM      6  C8  <0> A   1     -28.294  -2.963  50.893  0.00  0.00    +0.582 C 
ATOM      7  O1  <0> A   1     -29.446  -2.565  50.882  0.00  0.00    -0.519 OA
ATOM      8  N2  <0> A   1     -27.302  -2.094  51.152  0.00  0.00    -0.482 N 
ATOM      9  C9  <0> A   1     -25.974  -2.486  51.178  0.00  0.00    +0.159 A 
ATOM     10  C10 <0> A   1     -25.635  -3.828  50.935  0.00  0.00    -0.049 A 
ATOM     11  C11 <0> A   1     -24.300  -4.224  50.959  0.00  0.00    +0.066 A 
ATOM     12  C12 <0> A   1     -23.317  -3.298  51.234  0.00  0.00    -0.009 A 
ATOM     13  C13 <0> A   1     -23.652  -1.978  51.488  0.00  0.00    +0.047 A 
ATOM     14  C14 <0> A   1     -24.968  -1.566  51.450  0.00  0.00    -0.019 A 
ENDROOT
BRANCH   8  15
ATOM     15  C15 <0> A   1     -27.620  -0.755  51.404  0.00  0.00    +0.157 A 
ATOM     16  C16 <0> A   1     -27.541   0.184  50.383  0.00  0.00    +0.025 A 
ATOM     17  C17 <0> A   1     -27.855   1.505  50.634  0.00  0.00    +0.063 A 
ATOM     18  C18 <0> A   1     -28.249   1.896  51.900  0.00  0.00    +0.001 A 
ATOM     19  C19 <0> A   1     -28.329   0.963  52.921  0.00  0.00    +0.110 A 
ATOM     20  C20 <0> A   1     -28.021  -0.362  52.674  0.00  0.00    +0.003 A 
ATOM     21  F1  <0> A   1     -28.715   1.348  54.158  0.00  0.00    -0.133 F 
ENDBRANCH   8  15
BRANCH   3  22
ATOM     22  C21 <0> A   1     -25.619  -7.139  50.236  0.00  0.00    -0.013 A 
ATOM     23  C22 <0> A   1     -25.084  -7.721  51.384  0.00  0.00    +0.054 A 
ATOM     24  C23 <0> A   1     -24.015  -8.586  51.283  0.00  0.00    -0.012 A 
ATOM     25  C24 <0> A   1     -23.471  -8.876  50.042  0.00  0.00    +0.098 A 
ATOM     26  C25 <0> A   1     -23.998  -8.299  48.898  0.00  0.00    -0.014 A 
ATOM     27  C26 <0> A   1     -25.072  -7.438  48.990  0.00  0.00    +0.054 A 
ATOM     28  F2  <0> A   1     -22.422  -9.722  49.947  0.00  0.00    -0.140 F 
ENDBRANCH   3  22
BRANCH   1  30
ATOM     29  C1  <0> A   1     -30.748  -6.142  49.006  0.00  0.00    +0.045 C 
ATOM     30  C2  <0> A   1     -30.299  -5.352  50.237  0.00  0.00    +0.229 C 
ATOM     31  C3  <0> A   1     -30.925  -5.963  51.492  0.00  0.00    +0.046 C 
ENDBRANCH   1  30
BRANCH   2  32
ATOM     32  C27 <0> A   1     -28.623  -7.887  49.837  0.00  0.00    +0.122 C 
BRANCH  32  33
ATOM     33  C28 <0> A   1     -28.669  -8.738  51.108  0.00  0.00    -0.005 C 
BRANCH  33  34
ATOM     34  C29 <0> A   1     -29.933  -9.600  51.098  0.00  0.00    +0.214 C 
BRANCH  34  35
ATOM     35  O5  <0> A   1     -29.954 -10.405  49.918  0.00  0.00    -0.542 OA
ATOM     36  H31 <0> A   1     -30.440 -11.235  50.016  0.00  0.00    +0.364 HD
ENDBRANCH  34  35
BRANCH  34  37
ATOM     37  C30 <0> A   1     -29.942 -10.506  52.332  0.00  0.00    -0.051 C 
BRANCH  37  38
ATOM     38  C31 <0> A   1     -31.325 -10.465  52.985  0.00  0.00    +0.231 C 
BRANCH  38  39
ATOM     39  O4  <0> A   1     -31.407 -11.479  53.989  0.00  0.00    -0.528 OA
ATOM     40  H30 <0> A   1     -31.624 -11.143  54.870  0.00  0.00    +0.349 HD
ENDBRANCH  38  39
BRANCH  38  41
ATOM     41  C32 <0> A   1     -31.546  -9.094  53.626  0.00  0.00    -0.103 C 
BRANCH  41  42
ATOM     42  C33 <0> A   1     -30.435  -8.811  54.604  0.00  0.00    +0.490 C 
ATOM     43  O2  <0> A   1     -29.739  -7.819  54.466  0.00  0.00    -0.681 OA
ATOM     44  O3  <0> A   1     -30.231  -9.574  55.533  0.00  0.00    -0.713 OA
ENDBRANCH  41  42
ENDBRANCH  38  41
ENDBRANCH  37  38
ENDBRANCH  34  37
ENDBRANCH  33  34
ENDBRANCH  32  33
ENDBRANCH   2  32
TORSDOF 12
ENDMDL
MODEL 6
REMARK VINA RESULT:      -8.6      9.734     16.102
REMARK  Name = CHEMBL228528
REMARK  14 active torsions:
REMARK  status: ('A' for Active; 'I' for Inactive)
REMARK    1  A    between atoms: C1_1  and  C2_2
REMARK    2  A    between atoms: C2_2  and  C3_3
REMARK    3  A    between atoms: C2_2  and  N1_4
REMARK    4  A    between atoms: C4_5  and  C27_32
REMARK    5  A    between atoms: C5_6  and  C21_25
REMARK    6  A    between atoms: N2_11  and  C15_18
REMARK    7  A    between atoms: C27_32  and  C28_33
REMARK    8  A    between atoms: C28_33  and  C29_34
REMARK    9  A    between atoms: C29_34  and  C30_36
REMARK   10  A    between atoms: C29_34  and  O5_44
REMARK   11  A    between atoms: C30_36  and  C31_37
REMARK   12  A    between atoms: C31_37  and  C32_39
REMARK   13  A    between atoms: C31_37  and  O4_43
REMARK   14  A    between atoms: C32_39  and  C33_40
REMARK                            x       y       z     vdW  Elec       q    Type
REMARK                         _______ _______ _______ _____ _____    ______ ____
ROOT
ATOM      1  N1  <0> A   1     -23.902  -2.241  52.465  0.00  0.00    -0.391 N 
ATOM      2  C4  <0> A   1     -24.683  -1.132  52.456  0.00  0.00    +0.111 C 
ATOM      3  C5  <0> A   1     -25.856  -1.410  51.819  0.00  0.00    -0.129 C 
ATOM      4  C6  <0> A   1     -25.784  -2.805  51.404  0.00  0.00    -0.042 C 
ATOM      5  C7  <0> A   1     -24.541  -3.278  51.825  0.00  0.00    -0.046 C 
ATOM      6  C8  <0> A   1     -24.182  -4.617  51.555  0.00  0.00    +0.582 C 
ATOM      7  O1  <0> A   1     -23.097  -5.029  51.926  0.00  0.00    -0.519 OA
ATOM      8  N2  <0> A   1     -25.009  -5.447  50.897  0.00  0.00    -0.482 N 
ATOM      9  C9  <0> A   1     -26.254  -5.038  50.449  0.00  0.00    +0.159 A 
ATOM     10  C10 <0> A   1     -26.685  -3.721  50.688  0.00  0.00    -0.049 A 
ATOM     11  C11 <0> A   1     -27.935  -3.306  50.238  0.00  0.00    +0.066 A 
ATOM     12  C12 <0> A   1     -28.752  -4.194  49.571  0.00  0.00    -0.009 A 
ATOM     13  C13 <0> A   1     -28.333  -5.496  49.348  0.00  0.00    +0.047 A 
ATOM     14  C14 <0> A   1     -27.089  -5.917  49.771  0.00  0.00    -0.019 A 
ENDROOT
BRANCH   8  15
ATOM     15  C15 <0> A   1     -24.601  -6.764  50.656  0.00  0.00    +0.157 A 
ATOM     16  C16 <0> A   1     -24.362  -7.193  49.357  0.00  0.00    +0.025 A 
ATOM     17  C17 <0> A   1     -23.959  -8.493  49.121  0.00  0.00    +0.063 A 
ATOM     18  C18 <0> A   1     -23.792  -9.369  50.178  0.00  0.00    +0.001 A 
ATOM     19  C19 <0> A   1     -24.029  -8.945  51.475  0.00  0.00    +0.110 A 
ATOM     20  C20 <0> A   1     -24.428  -7.643  51.717  0.00  0.00    +0.003 A 
ATOM     21  F1  <0> A   1     -23.866  -9.803  52.506  0.00  0.00    -0.133 F 
ENDBRANCH   8  15
BRANCH   3  22
ATOM     22  C21 <0> A   1     -26.986  -0.475  51.593  0.00  0.00    -0.013 A 
ATOM     23  C22 <0> A   1     -26.974   0.383  50.496  0.00  0.00    +0.054 A 
ATOM     24  C23 <0> A   1     -28.026   1.252  50.289  0.00  0.00    -0.012 A 
ATOM     25  C24 <0> A   1     -29.093   1.272  51.172  0.00  0.00    +0.098 A 
ATOM     26  C25 <0> A   1     -29.109   0.422  52.265  0.00  0.00    -0.014 A 
ATOM     27  C26 <0> A   1     -28.064  -0.454  52.476  0.00  0.00    +0.054 A 
ATOM     28  F2  <0> A   1     -30.121   2.124  50.967  0.00  0.00    -0.140 F 
ENDBRANCH   3  22
BRANCH   1  30
ATOM     29  C1  <0> A   1     -21.535  -1.757  52.080  0.00  0.00    +0.045 C 
ATOM     30  C2  <0> A   1     -22.566  -2.320  53.061  0.00  0.00    +0.229 C 
ATOM     31  C3  <0> A   1     -22.536  -1.506  54.356  0.00  0.00    +0.046 C 
ENDBRANCH   1  30
BRANCH   2  32
ATOM     32  C27 <0> A   1     -24.313   0.198  53.059  0.00  0.00    +0.122 C 
BRANCH  32  33
ATOM     33  C28 <0> A   1     -23.774   1.122  51.963  0.00  0.00    -0.005 C 
BRANCH  33  34
ATOM     34  C29 <0> A   1     -22.811   2.138  52.581  0.00  0.00    +0.214 C 
BRANCH  34  35
ATOM     35  O5  <0> A   1     -21.490   1.597  52.593  0.00  0.00    -0.542 OA
ATOM     36  H31 <0> A   1     -21.419   0.740  53.036  0.00  0.00    +0.364 HD
ENDBRANCH  34  35
BRANCH  34  37
ATOM     37  C30 <0> A   1     -22.828   3.425  51.753  0.00  0.00    -0.051 C 
BRANCH  37  38
ATOM     38  C31 <0> A   1     -21.515   3.551  50.979  0.00  0.00    +0.231 C 
BRANCH  38  39
ATOM     39  O4  <0> A   1     -21.550   2.688  49.840  0.00  0.00    -0.528 OA
ATOM     40  H30 <0> A   1     -21.451   3.149  48.995  0.00  0.00    +0.349 HD
ENDBRANCH  38  39
BRANCH  38  41
ATOM     41  C32 <0> A   1     -21.331   4.997  50.518  0.00  0.00    -0.103 C 
BRANCH  41  42
ATOM     42  C33 <0> A   1     -20.497   5.023  49.263  0.00  0.00    +0.490 C 
ATOM     43  O2  <0> A   1     -19.308   4.759  49.317  0.00  0.00    -0.681 OA
ATOM     44  O3  <0> A   1     -21.011   5.308  48.195  0.00  0.00    -0.713 OA
ENDBRANCH  41  42
ENDBRANCH  38  41
ENDBRANCH  37  38
ENDBRANCH  34  37
ENDBRANCH  33  34
ENDBRANCH  32  33
ENDBRANCH   2  32
TORSDOF 12
ENDMDL
MODEL 7
REMARK VINA RESULT:      -8.6     14.921     18.710
REMARK  Name = CHEMBL228528
REMARK  14 active torsions:
REMARK  status: ('A' for Active; 'I' for Inactive)
REMARK    1  A    between atoms: C1_1  and  C2_2
REMARK    2  A    between atoms: C2_2  and  C3_3
REMARK    3  A    between atoms: C2_2  and  N1_4
REMARK    4  A    between atoms: C4_5  and  C27_32
REMARK    5  A    between atoms: C5_6  and  C21_25
REMARK    6  A    between atoms: N2_11  and  C15_18
REMARK    7  A    between atoms: C27_32  and  C28_33
REMARK    8  A    between atoms: C28_33  and  C29_34
REMARK    9  A    between atoms: C29_34  and  C30_36
REMARK   10  A    between atoms: C29_34  and  O5_44
REMARK   11  A    between atoms: C30_36  and  C31_37
REMARK   12  A    between atoms: C31_37  and  C32_39
REMARK   13  A    between atoms: C31_37  and  O4_43
REMARK   14  A    between atoms: C32_39  and  C33_40
REMARK                            x       y       z     vdW  Elec       q    Type
REMARK                         _______ _______ _______ _____ _____    ______ ____
ROOT
ATOM      1  N1  <0> A   1     -25.111  -1.901  51.748  0.00  0.00    -0.391 N 
ATOM      2  C4  <0> A   1     -26.132  -1.112  52.167  0.00  0.00    +0.111 C 
ATOM      3  C5  <0> A   1     -27.228  -1.883  52.416  0.00  0.00    -0.129 C 
ATOM      4  C6  <0> A   1     -26.844  -3.259  52.124  0.00  0.00    -0.042 C 
ATOM      5  C7  <0> A   1     -25.514  -3.216  51.704  0.00  0.00    -0.046 C 
ATOM      6  C8  <0> A   1     -24.863  -4.417  51.344  0.00  0.00    +0.582 C 
ATOM      7  O1  <0> A   1     -23.701  -4.378  50.980  0.00  0.00    -0.519 OA
ATOM      8  N2  <0> A   1     -25.497  -5.601  51.391  0.00  0.00    -0.482 N 
ATOM      9  C9  <0> A   1     -26.817  -5.709  51.795  0.00  0.00    +0.159 A 
ATOM     10  C10 <0> A   1     -27.529  -4.559  52.177  0.00  0.00    -0.049 A 
ATOM     11  C11 <0> A   1     -28.857  -4.665  52.582  0.00  0.00    +0.066 A 
ATOM     12  C12 <0> A   1     -29.464  -5.902  52.619  0.00  0.00    -0.009 A 
ATOM     13  C13 <0> A   1     -28.758  -7.038  52.256  0.00  0.00    +0.047 A 
ATOM     14  C14 <0> A   1     -27.448  -6.947  51.835  0.00  0.00    -0.019 A 
ENDROOT
BRANCH   8  15
ATOM     15  C15 <0> A   1     -24.803  -6.758  51.022  0.00  0.00    +0.157 A 
ATOM     16  C16 <0> A   1     -24.209  -7.554  51.994  0.00  0.00    +0.025 A 
ATOM     17  C17 <0> A   1     -23.525  -8.697  51.627  0.00  0.00    +0.063 A 
ATOM     18  C18 <0> A   1     -23.431  -9.051  50.294  0.00  0.00    +0.001 A 
ATOM     19  C19 <0> A   1     -24.022  -8.261  49.322  0.00  0.00    +0.110 A 
ATOM     20  C20 <0> A   1     -24.713  -7.119  49.684  0.00  0.00    +0.003 A 
ATOM     21  F1  <0> A   1     -23.930  -8.610  48.020  0.00  0.00    -0.133 F 
ENDBRANCH   8  15
BRANCH   3  22
ATOM     22  C21 <0> A   1     -28.552  -1.414  52.892  0.00  0.00    -0.013 A 
ATOM     23  C22 <0> A   1     -29.580  -1.180  51.981  0.00  0.00    +0.054 A 
ATOM     24  C23 <0> A   1     -30.811  -0.744  52.427  0.00  0.00    -0.012 A 
ATOM     25  C24 <0> A   1     -31.025  -0.538  53.780  0.00  0.00    +0.098 A 
ATOM     26  C25 <0> A   1     -30.006  -0.767  54.690  0.00  0.00    -0.014 A 
ATOM     27  C26 <0> A   1     -28.775  -1.210  54.253  0.00  0.00    +0.054 A 
ATOM     28  F2  <0> A   1     -32.231  -0.110  54.213  0.00  0.00    -0.140 F 
ENDBRANCH   3  22
BRANCH   1  30
ATOM     29  C1  <0> A   1     -23.856  -0.621  50.085  0.00  0.00    +0.045 C 
ATOM     30  C2  <0> A   1     -23.775  -1.422  51.386  0.00  0.00    +0.229 C 
ATOM     31  C3  <0> A   1     -23.233  -0.527  52.502  0.00  0.00    +0.046 C 
ENDBRANCH   1  30
BRANCH   2  32
ATOM     32  C27 <0> A   1     -26.063   0.384  52.333  0.00  0.00    +0.122 C 
BRANCH  32  33
ATOM     33  C28 <0> A   1     -26.642   1.062  51.089  0.00  0.00    -0.005 C 
BRANCH  33  34
ATOM     34  C29 <0> A   1     -27.635   2.146  51.516  0.00  0.00    +0.214 C 
BRANCH  34  35
ATOM     35  O5  <0> A   1     -28.903   1.897  50.907  0.00  0.00    -0.542 OA
ATOM     36  H31 <0> A   1     -28.860   1.328  50.126  0.00  0.00    +0.364 HD
ENDBRANCH  34  35
BRANCH  34  37
ATOM     37  C30 <0> A   1     -27.787   2.127  53.038  0.00  0.00    -0.051 C 
BRANCH  37  38
ATOM     38  C31 <0> A   1     -28.526   3.387  53.492  0.00  0.00    +0.231 C 
BRANCH  38  39
ATOM     39  O4  <0> A   1     -28.807   4.209  52.357  0.00  0.00    -0.528 OA
ATOM     40  H30 <0> A   1     -28.272   5.014  52.312  0.00  0.00    +0.349 HD
ENDBRANCH  38  39
BRANCH  38  41
ATOM     41  C32 <0> A   1     -29.838   2.992  54.172  0.00  0.00    -0.103 C 
BRANCH  41  42
ATOM     42  C33 <0> A   1     -30.998   3.387  53.295  0.00  0.00    +0.490 C 
ATOM     43  O2  <0> A   1     -31.683   4.352  53.589  0.00  0.00    -0.681 OA
ATOM     44  O3  <0> A   1     -31.252   2.742  52.292  0.00  0.00    -0.713 OA
ENDBRANCH  41  42
ENDBRANCH  38  41
ENDBRANCH  37  38
ENDBRANCH  34  37
ENDBRANCH  33  34
ENDBRANCH  32  33
ENDBRANCH   2  32
TORSDOF 12
ENDMDL
MODEL 8
REMARK VINA RESULT:      -8.6      2.363      4.461
REMARK  Name = CHEMBL228528
REMARK  14 active torsions:
REMARK  status: ('A' for Active; 'I' for Inactive)
REMARK    1  A    between atoms: C1_1  and  C2_2
REMARK    2  A    between atoms: C2_2  and  C3_3
REMARK    3  A    between atoms: C2_2  and  N1_4
REMARK    4  A    between atoms: C4_5  and  C27_32
REMARK    5  A    between atoms: C5_6  and  C21_25
REMARK    6  A    between atoms: N2_11  and  C15_18
REMARK    7  A    between atoms: C27_32  and  C28_33
REMARK    8  A    between atoms: C28_33  and  C29_34
REMARK    9  A    between atoms: C29_34  and  C30_36
REMARK   10  A    between atoms: C29_34  and  O5_44
REMARK   11  A    between atoms: C30_36  and  C31_37
REMARK   12  A    between atoms: C31_37  and  C32_39
REMARK   13  A    between atoms: C31_37  and  O4_43
REMARK   14  A    between atoms: C32_39  and  C33_40
REMARK                            x       y       z     vdW  Elec       q    Type
REMARK                         _______ _______ _______ _____ _____    ______ ____
ROOT
ATOM      1  N1  <0> A   1     -14.218   9.876  47.493  0.00  0.00    -0.391 N 
ATOM      2  C4  <0> A   1     -13.083   9.868  46.750  0.00  0.00    +0.111 C 
ATOM      3  C5  <0> A   1     -12.971   8.671  46.107  0.00  0.00    -0.129 C 
ATOM      4  C6  <0> A   1     -14.134   7.882  46.491  0.00  0.00    -0.042 C 
ATOM      5  C7  <0> A   1     -14.879   8.677  47.362  0.00  0.00    -0.046 C 
ATOM      6  C8  <0> A   1     -16.078   8.168  47.909  0.00  0.00    +0.582 C 
ATOM      7  O1  <0> A   1     -16.730   8.865  48.668  0.00  0.00    -0.519 OA
ATOM      8  N2  <0> A   1     -16.517   6.933  47.613  0.00  0.00    -0.482 N 
ATOM      9  C9  <0> A   1     -15.822   6.094  46.759  0.00  0.00    +0.159 A 
ATOM     10  C10 <0> A   1     -14.624   6.534  46.169  0.00  0.00    -0.049 A 
ATOM     11  C11 <0> A   1     -13.921   5.691  45.310  0.00  0.00    +0.066 A 
ATOM     12  C12 <0> A   1     -14.413   4.434  45.032  0.00  0.00    -0.009 A 
ATOM     13  C13 <0> A   1     -15.601   4.006  45.602  0.00  0.00    +0.047 A 
ATOM     14  C14 <0> A   1     -16.298   4.821  46.470  0.00  0.00    -0.019 A 
ENDROOT
BRANCH   8  15
ATOM     15  C15 <0> A   1     -17.712   6.481  48.184  0.00  0.00    +0.157 A 
ATOM     16  C16 <0> A   1     -18.931   6.827  47.616  0.00  0.00    +0.025 A 
ATOM     17  C17 <0> A   1     -20.109   6.379  48.181  0.00  0.00    +0.063 A 
ATOM     18  C18 <0> A   1     -20.077   5.584  49.312  0.00  0.00    +0.001 A 
ATOM     19  C19 <0> A   1     -18.864   5.236  49.882  0.00  0.00    +0.110 A 
ATOM     20  C20 <0> A   1     -17.681   5.678  49.317  0.00  0.00    +0.003 A 
ATOM     21  F1  <0> A   1     -18.835   4.459  50.987  0.00  0.00    -0.133 F 
ENDBRANCH   8  15
BRANCH   3  22
ATOM     22  C21 <0> A   1     -11.877   8.254  45.196  0.00  0.00    -0.013 A 
ATOM     23  C22 <0> A   1     -12.114   8.137  43.828  0.00  0.00    +0.054 A 
ATOM     24  C23 <0> A   1     -11.095   7.749  42.983  0.00  0.00    -0.012 A 
ATOM     25  C24 <0> A   1      -9.836   7.474  43.493  0.00  0.00    +0.098 A 
ATOM     26  C25 <0> A   1      -9.596   7.587  44.853  0.00  0.00    -0.014 A 
ATOM     27  C26 <0> A   1     -10.608   7.981  45.704  0.00  0.00    +0.054 A 
ATOM     28  F2  <0> A   1      -8.841   7.093  42.663  0.00  0.00    -0.140 F 
ENDBRANCH   3  22
BRANCH   1  30
ATOM     29  C1  <0> A   1     -13.490  11.540  49.131  0.00  0.00    +0.045 C 
ATOM     30  C2  <0> A   1     -14.669  10.997  48.322  0.00  0.00    +0.229 C 
ATOM     31  C3  <0> A   1     -15.226  12.104  47.425  0.00  0.00    +0.046 C 
ENDBRANCH   1  30
BRANCH   2  32
ATOM     32  C27 <0> A   1     -12.101  11.007  46.650  0.00  0.00    +0.122 C 
BRANCH  32  33
ATOM     33  C28 <0> A   1     -11.920  11.396  45.181  0.00  0.00    -0.005 C 
BRANCH  33  34
ATOM     34  C29 <0> A   1     -13.180  12.108  44.684  0.00  0.00    +0.214 C 
BRANCH  34  35
ATOM     35  O5  <0> A   1     -12.825  13.373  44.124  0.00  0.00    -0.542 OA
ATOM     36  H31 <0> A   1     -11.878  13.476  43.955  0.00  0.00    +0.364 HD
ENDBRANCH  34  35
BRANCH  34  37
ATOM     37  C30 <0> A   1     -13.862  11.251  43.615  0.00  0.00    -0.051 C 
BRANCH  37  38
ATOM     38  C31 <0> A   1     -13.462  11.754  42.227  0.00  0.00    +0.231 C 
BRANCH  38  39
ATOM     39  O4  <0> A   1     -12.264  11.094  41.809  0.00  0.00    -0.528 OA
ATOM     40  H30 <0> A   1     -12.030  11.254  40.884  0.00  0.00    +0.349 HD
ENDBRANCH  38  39
BRANCH  38  41
ATOM     41  C32 <0> A   1     -14.583  11.451  41.232  0.00  0.00    -0.103 C 
BRANCH  41  42
ATOM     42  C33 <0> A   1     -13.988  10.976  39.931  0.00  0.00    +0.490 C 
ATOM     43  O2  <0> A   1     -13.766   9.790  39.761  0.00  0.00    -0.681 OA
ATOM     44  O3  <0> A   1     -13.727  11.779  39.051  0.00  0.00    -0.713 OA
ENDBRANCH  41  42
ENDBRANCH  38  41
ENDBRANCH  37  38
ENDBRANCH  34  37
ENDBRANCH  33  34
ENDBRANCH  32  33
ENDBRANCH   2  32
TORSDOF 12
ENDMDL
MODEL 9
REMARK VINA RESULT:      -8.5      2.868      5.045
REMARK  Name = CHEMBL228528
REMARK  14 active torsions:
REMARK  status: ('A' for Active; 'I' for Inactive)
REMARK    1  A    between atoms: C1_1  and  C2_2
REMARK    2  A    between atoms: C2_2  and  C3_3
REMARK    3  A    between atoms: C2_2  and  N1_4
REMARK    4  A    between atoms: C4_5  and  C27_32
REMARK    5  A    between atoms: C5_6  and  C21_25
REMARK    6  A    between atoms: N2_11  and  C15_18
REMARK    7  A    between atoms: C27_32  and  C28_33
REMARK    8  A    between atoms: C28_33  and  C29_34
REMARK    9  A    between atoms: C29_34  and  C30_36
REMARK   10  A    between atoms: C29_34  and  O5_44
REMARK   11  A    between atoms: C30_36  and  C31_37
REMARK   12  A    between atoms: C31_37  and  C32_39
REMARK   13  A    between atoms: C31_37  and  O4_43
REMARK   14  A    between atoms: C32_39  and  C33_40
REMARK                            x       y       z     vdW  Elec       q    Type
REMARK                         _______ _______ _______ _____ _____    ______ ____
ROOT
ATOM      1  N1  <0> A   1     -15.156   9.922  48.026  0.00  0.00    -0.391 N 
ATOM      2  C4  <0> A   1     -14.582   9.089  47.122  0.00  0.00    +0.111 C 
ATOM      3  C5  <0> A   1     -15.207   7.877  47.162  0.00  0.00    -0.129 C 
ATOM      4  C6  <0> A   1     -16.248   7.980  48.177  0.00  0.00    -0.042 C 
ATOM      5  C7  <0> A   1     -16.171   9.274  48.691  0.00  0.00    -0.046 C 
ATOM      6  C8  <0> A   1     -17.067   9.669  49.709  0.00  0.00    +0.582 C 
ATOM      7  O1  <0> A   1     -17.001  10.801  50.156  0.00  0.00    -0.519 OA
ATOM      8  N2  <0> A   1     -17.991   8.824  50.198  0.00  0.00    -0.482 N 
ATOM      9  C9  <0> A   1     -18.116   7.526  49.733  0.00  0.00    +0.159 A 
ATOM     10  C10 <0> A   1     -17.264   7.063  48.714  0.00  0.00    -0.049 A 
ATOM     11  C11 <0> A   1     -17.386   5.757  48.245  0.00  0.00    +0.066 A 
ATOM     12  C12 <0> A   1     -18.352   4.928  48.774  0.00  0.00    -0.009 A 
ATOM     13  C13 <0> A   1     -19.201   5.389  49.768  0.00  0.00    +0.047 A 
ATOM     14  C14 <0> A   1     -19.080   6.673  50.256  0.00  0.00    -0.019 A 
ENDROOT
BRANCH   8  15
ATOM     15  C15 <0> A   1     -18.853   9.268  51.207  0.00  0.00    +0.157 A 
ATOM     16  C16 <0> A   1     -18.414   9.324  52.524  0.00  0.00    +0.025 A 
ATOM     17  C17 <0> A   1     -19.266   9.764  53.518  0.00  0.00    +0.063 A 
ATOM     18  C18 <0> A   1     -20.557  10.149  53.205  0.00  0.00    +0.001 A 
ATOM     19  C19 <0> A   1     -20.998  10.095  51.893  0.00  0.00    +0.110 A 
ATOM     20  C20 <0> A   1     -20.147   9.661  50.893  0.00  0.00    +0.003 A 
ATOM     21  F1  <0> A   1     -22.260  10.472  51.590  0.00  0.00    -0.133 F 
ENDBRANCH   8  15
BRANCH   3  22
ATOM     22  C21 <0> A   1     -14.888   6.688  46.335  0.00  0.00    -0.013 A 
ATOM     23  C22 <0> A   1     -13.926   5.775  46.763  0.00  0.00    +0.054 A 
ATOM     24  C23 <0> A   1     -13.633   4.670  45.992  0.00  0.00    -0.012 A 
ATOM     25  C24 <0> A   1     -14.293   4.467  44.790  0.00  0.00    +0.098 A 
ATOM     26  C25 <0> A   1     -15.248   5.372  44.359  0.00  0.00    -0.014 A 
ATOM     27  C26 <0> A   1     -15.553   6.477  45.128  0.00  0.00    +0.054 A 
ATOM     28  F2  <0> A   1     -14.002   3.385  44.036  0.00  0.00    -0.140 F 
ENDBRANCH   3  22
BRANCH   1  30
ATOM     29  C1  <0> A   1     -13.229  11.367  48.452  0.00  0.00    +0.045 C 
ATOM     30  C2  <0> A   1     -14.747  11.308  48.266  0.00  0.00    +0.229 C 
ATOM     31  C3  <0> A   1     -15.149  12.173  47.069  0.00  0.00    +0.046 C 
ENDBRANCH   1  30
BRANCH   2  32
ATOM     32  C27 <0> A   1     -13.435   9.448  46.213  0.00  0.00    +0.122 C 
BRANCH  32  33
ATOM     33  C28 <0> A   1     -13.963   9.688  44.796  0.00  0.00    -0.005 C 
BRANCH  33  34
ATOM     34  C29 <0> A   1     -12.908   9.250  43.778  0.00  0.00    +0.214 C 
BRANCH  34  35
ATOM     35  O5  <0> A   1     -12.562   7.883  44.009  0.00  0.00    -0.542 OA
ATOM     36  H31 <0> A   1     -13.023   7.481  44.758  0.00  0.00    +0.364 HD
ENDBRANCH  34  35
BRANCH  34  37
ATOM     37  C30 <0> A   1     -13.471   9.402  42.363  0.00  0.00    -0.051 C 
BRANCH  37  38
ATOM     38  C31 <0> A   1     -12.981  10.718  41.758  0.00  0.00    +0.231 C 
BRANCH  38  39
ATOM     39  O4  <0> A   1     -11.608  10.587  41.384  0.00  0.00    -0.528 OA
ATOM     40  H30 <0> A   1     -11.445   9.911  40.711  0.00  0.00    +0.349 HD
ENDBRANCH  38  39
BRANCH  38  41
ATOM     41  C32 <0> A   1     -13.816  11.053  40.521  0.00  0.00    -0.103 C 
BRANCH  41  42
ATOM     42  C33 <0> A   1     -12.938  11.017  39.297  0.00  0.00    +0.490 C 
ATOM     43  O2  <0> A   1     -12.487  12.054  38.840  0.00  0.00    -0.681 OA
ATOM     44  O3  <0> A   1     -12.680   9.952  38.762  0.00  0.00    -0.713 OA
ENDBRANCH  41  42
ENDBRANCH  38  41
ENDBRANCH  37  38
ENDBRANCH  34  37
ENDBRANCH  33  34
ENDBRANCH  32  33
ENDBRANCH   2  32
TORSDOF 12
ENDMDL
MODEL 10
REMARK VINA RESULT:      -8.4      1.658      2.315
REMARK  Name = CHEMBL228528
REMARK  14 active torsions:
REMARK  status: ('A' for Active; 'I' for Inactive)
REMARK    1  A    between atoms: C1_1  and  C2_2
REMARK    2  A    between atoms: C2_2  and  C3_3
REMARK    3  A    between atoms: C2_2  and  N1_4
REMARK    4  A    between atoms: C4_5  and  C27_32
REMARK    5  A    between atoms: C5_6  and  C21_25
REMARK    6  A    between atoms: N2_11  and  C15_18
REMARK    7  A    between atoms: C27_32  and  C28_33
REMARK    8  A    between atoms: C28_33  and  C29_34
REMARK    9  A    between atoms: C29_34  and  C30_36
REMARK   10  A    between atoms: C29_34  and  O5_44
REMARK   11  A    between atoms: C30_36  and  C31_37
REMARK   12  A    between atoms: C31_37  and  C32_39
REMARK   13  A    between atoms: C31_37  and  O4_43
REMARK   14  A    between atoms: C32_39  and  C33_40
REMARK                            x       y       z     vdW  Elec       q    Type
REMARK                         _______ _______ _______ _____ _____    ______ ____
ROOT
ATOM      1  N1  <0> A   1     -15.542   6.783  46.390  0.00  0.00    -0.391 N 
ATOM      2  C4  <0> A   1     -14.896   7.973  46.308  0.00  0.00    +0.111 C 
ATOM      3  C5  <0> A   1     -15.299   8.778  47.332  0.00  0.00    -0.129 C 
ATOM      4  C6  <0> A   1     -16.274   8.016  48.102  0.00  0.00    -0.042 C 
ATOM      5  C7  <0> A   1     -16.396   6.779  47.469  0.00  0.00    -0.046 C 
ATOM      6  C8  <0> A   1     -17.286   5.816  47.995  0.00  0.00    +0.582 C 
ATOM      7  O1  <0> A   1     -17.389   4.735  47.444  0.00  0.00    -0.519 OA
ATOM      8  N2  <0> A   1     -18.024   6.066  49.090  0.00  0.00    -0.482 N 
ATOM      9  C9  <0> A   1     -17.952   7.276  49.761  0.00  0.00    +0.159 A 
ATOM     10  C10 <0> A   1     -17.081   8.280  49.302  0.00  0.00    -0.049 A 
ATOM     11  C11 <0> A   1     -17.008   9.498  49.974  0.00  0.00    +0.066 A 
ATOM     12  C12 <0> A   1     -17.781   9.708  51.096  0.00  0.00    -0.009 A 
ATOM     13  C13 <0> A   1     -18.628   8.712  51.557  0.00  0.00    +0.047 A 
ATOM     14  C14 <0> A   1     -18.726   7.508  50.892  0.00  0.00    -0.019 A 
ENDROOT
BRANCH   8  15
ATOM     15  C15 <0> A   1     -18.890   5.077  49.568  0.00  0.00    +0.157 A 
ATOM     16  C16 <0> A   1     -20.221   5.065  49.171  0.00  0.00    +0.025 A 
ATOM     17  C17 <0> A   1     -21.074   4.087  49.643  0.00  0.00    +0.063 A 
ATOM     18  C18 <0> A   1     -20.605   3.118  50.510  0.00  0.00    +0.001 A 
ATOM     19  C19 <0> A   1     -19.279   3.125  50.908  0.00  0.00    +0.110 A 
ATOM     20  C20 <0> A   1     -18.419   4.099  50.434  0.00  0.00    +0.003 A 
ATOM     21  F1  <0> A   1     -18.823   2.176  51.755  0.00  0.00    -0.133 F 
ENDBRANCH   8  15
BRANCH   3  22
ATOM     22  C21 <0> A   1     -14.836  10.160  47.608  0.00  0.00    -0.013 A 
ATOM     23  C22 <0> A   1     -13.751  10.378  48.454  0.00  0.00    +0.054 A 
ATOM     24  C23 <0> A   1     -13.323  11.665  48.707  0.00  0.00    -0.012 A 
ATOM     25  C24 <0> A   1     -13.971  12.740  48.123  0.00  0.00    +0.098 A 
ATOM     26  C25 <0> A   1     -15.052  12.529  47.282  0.00  0.00    -0.014 A 
ATOM     27  C26 <0> A   1     -15.482  11.245  47.017  0.00  0.00    +0.054 A 
ATOM     28  F2  <0> A   1     -13.550  13.999  48.375  0.00  0.00    -0.140 F 
ENDBRANCH   3  22
BRANCH   1  30
ATOM     29  C1  <0> A   1     -15.439   6.186  44.020  0.00  0.00    +0.045 C 
ATOM     30  C2  <0> A   1     -15.364   5.666  45.458  0.00  0.00    +0.229 C 
ATOM     31  C3  <0> A   1     -14.000   5.016  45.695  0.00  0.00    +0.046 C 
ENDBRANCH   1  30
BRANCH   2  32
ATOM     32  C27 <0> A   1     -13.888   8.344  45.252  0.00  0.00    +0.122 C 
BRANCH  32  33
ATOM     33  C28 <0> A   1     -12.474   8.134  45.800  0.00  0.00    -0.005 C 
BRANCH  33  34
ATOM     34  C29 <0> A   1     -11.474   8.131  44.642  0.00  0.00    +0.214 C 
BRANCH  34  35
ATOM     35  O5  <0> A   1     -10.281   7.457  45.044  0.00  0.00    -0.542 OA
ATOM     36  H31 <0> A   1      -9.558   8.050  45.293  0.00  0.00    +0.364 HD
ENDBRANCH  34  35
BRANCH  34  37
ATOM     37  C30 <0> A   1     -12.088   7.409  43.440  0.00  0.00    -0.051 C 
BRANCH  37  38
ATOM     38  C31 <0> A   1     -11.792   8.200  42.165  0.00  0.00    +0.231 C 
BRANCH  38  39
ATOM     39  O4  <0> A   1     -11.174   7.340  41.204  0.00  0.00    -0.528 OA
ATOM     40  H30 <0> A   1     -10.442   7.749  40.722  0.00  0.00    +0.349 HD
ENDBRANCH  38  39
BRANCH  38  41
ATOM     41  C32 <0> A   1     -13.099   8.749  41.591  0.00  0.00    -0.103 C 
BRANCH  41  42
ATOM     42  C33 <0> A   1     -13.014  10.251  41.496  0.00  0.00    +0.490 C 
ATOM     43  O2  <0> A   1     -13.863  10.871  40.878  0.00  0.00    -0.681 OA
ATOM     44  O3  <0> A   1     -12.097  10.845  42.037  0.00  0.00    -0.713 OA
ENDBRANCH  41  42
ENDBRANCH  38  41
ENDBRANCH  37  38
ENDBRANCH  34  37
ENDBRANCH  33  34
ENDBRANCH  32  33
ENDBRANCH   2  32
TORSDOF 12
ENDMDL
