REMARK VINA RESULT:      -7.7     30.106     32.199
REMARK  Name = CHEMBL300495
REMARK  6 active torsions:
REMARK  status: ('A' for Active; 'I' for Inactive)
REMARK    1  A    between atoms: C4_4  and  C7_7
REMARK    2  A    between atoms: C7_7  and  C8_8
REMARK    3  A    between atoms: C13_13  and  C14_14
REMARK    4  A    between atoms: C14_14  and  C15_15
REMARK    5  A    between atoms: C15_15  and  C16_16
REMARK    6  A    between atoms: C18_18  and  O3_24
REMARK                            x       y       z     vdW  Elec       q    Type
REMARK                         _______ _______ _______ _____ _____    ______ ____
ROOT
ATOM      1  C8  <0> A   1     -28.201  -2.966  50.912  0.00  0.00    -0.048 A 
ATOM      2  C9  <0> A   1     -29.122  -2.289  51.689  0.00  0.00    +0.045 A 
ATOM      3  C10 <0> A   1     -29.627  -2.878  52.835  0.00  0.00    -0.024 A 
ATOM      4  C11 <0> A   1     -29.211  -4.146  53.202  0.00  0.00    +0.039 A 
ATOM      5  C12 <0> A   1     -28.289  -4.822  52.423  0.00  0.00    -0.021 A 
ATOM      6  C13 <0> A   1     -27.789  -4.234  51.275  0.00  0.00    -0.068 A 
ATOM      7 Cl1  <0> A   1     -27.765  -6.412  52.884  0.00  0.00    -0.053 Cl
ATOM      8 Cl2  <0> A   1     -30.783  -2.027  53.812  0.00  0.00    -0.057 Cl
ENDROOT
BRANCH   1   9
ATOM      9  C7  <0> A   1     -27.653  -2.324  49.665  0.00  0.00    +0.148 C 
BRANCH   9  13
ATOM     10  C1  <0> A   1     -24.788   0.657  50.742  0.00  0.00    +0.002 A 
ATOM     11  C2  <0> A   1     -26.139   0.944  50.800  0.00  0.00    +0.005 A 
ATOM     12  C3  <0> A   1     -27.066  -0.021  50.452  0.00  0.00    +0.008 A 
ATOM     13  C4  <0> A   1     -26.642  -1.272  50.044  0.00  0.00    -0.086 A 
ATOM     14  C5  <0> A   1     -25.291  -1.559  49.985  0.00  0.00    +0.008 A 
ATOM     15  C6  <0> A   1     -24.364  -0.594  50.335  0.00  0.00    +0.006 A 
ENDBRANCH   9  13
ENDBRANCH   1   9
BRANCH   6  16
ATOM     16  C14 <0> A   1     -26.790  -4.974  50.424  0.00  0.00    +0.086 C 
BRANCH  16  17
ATOM     17  C15 <0> A   1     -25.420  -4.948  51.105  0.00  0.00    +0.062 C 
BRANCH  17  18
ATOM     18  C16 <0> A   1     -24.610  -6.169  50.667  0.00  0.00    +0.199 C 
ATOM     19  C17 <0> A   1     -25.352  -6.899  49.545  0.00  0.00    +0.042 C 
ATOM     20  C18 <0> A   1     -24.557  -8.144  49.136  0.00  0.00    +0.184 C 
ATOM     21  C19 <0> A   1     -24.408  -9.060  50.358  0.00  0.00    +0.021 C 
ATOM     22  C20 <0> A   1     -23.854  -8.239  51.502  0.00  0.00    +0.496 C 
ATOM     23  O1  <0> A   1     -22.912  -8.631  52.149  0.00  0.00    -0.452 OA
ATOM     24  O2  <0> A   1     -24.442  -7.056  51.778  0.00  0.00    -0.368 OA
BRANCH  20  25
ATOM     25  O3  <0> A   1     -23.266  -7.754  48.665  0.00  0.00    -0.564 OA
ATOM     26  H20 <0> A   1     -22.570  -8.400  48.849  0.00  0.00    +0.387 HD
ENDBRANCH  20  25
ENDBRANCH  17  18
ENDBRANCH  16  17
ENDBRANCH   6  16
TORSDOF 6
