REMARK VINA RESULT:      -7.9      1.783      2.313
REMARK  Name = CHEMBL392897
REMARK  17 active torsions:
REMARK  status: ('A' for Active; 'I' for Inactive)
REMARK    1  A    between atoms: C1_1  and  C2_2
REMARK    2  A    between atoms: C2_2  and  N1_3
REMARK    3  A    between atoms: C3_4  and  C21_27
REMARK    4  A    between atoms: C4_5  and  C15_20
REMARK    5  A    between atoms: C5_6  and  C14_19
REMARK    6  A    between atoms: C6_7  and  C7_8
REMARK    7  A    between atoms: N2_10  and  C8_11
REMARK    8  A    between atoms: C8_11  and  C9_12
REMARK    9  A    between atoms: C11_15  and  C13_18
REMARK   10  A    between atoms: C21_27  and  C22_28
REMARK   11  A    between atoms: C22_28  and  C23_29
REMARK   12  A    between atoms: C23_29  and  C24_31
REMARK   13  A    between atoms: C23_29  and  O5_39
REMARK   14  A    between atoms: C24_31  and  C25_32
REMARK   15  A    between atoms: C25_32  and  C26_34
REMARK   16  A    between atoms: C25_32  and  O4_38
REMARK   17  A    between atoms: C26_34  and  C27_35
REMARK                            x       y       z     vdW  Elec       q    Type
REMARK                         _______ _______ _______ _____ _____    ______ ____
ROOT
ATOM      1  N1  <0> A   1     -15.412   6.707  46.122  0.00  0.00    -0.407 N 
ATOM      2  C3  <0> A   1     -14.417   7.570  45.833  0.00  0.00    +0.078 C 
ATOM      3  C4  <0> A   1     -14.729   8.789  46.364  0.00  0.00    -0.142 C 
ATOM      4  C5  <0> A   1     -15.973   8.662  47.010  0.00  0.00    -0.087 C 
ATOM      5  C6  <0> A   1     -16.381   7.368  46.843  0.00  0.00    -0.052 C 
ATOM      6  C14 <0> A   1     -16.719   9.749  47.740  0.00  0.00    +0.109 C 
ENDROOT
BRANCH   3   7
ATOM      7  C15 <0> A   1     -13.904  10.021  46.279  0.00  0.00    -0.008 A 
ATOM      8  C16 <0> A   1     -12.905  10.260  47.219  0.00  0.00    +0.049 A 
ATOM      9  C17 <0> A   1     -12.141  11.407  47.136  0.00  0.00    -0.016 A 
ATOM     10  C18 <0> A   1     -12.368  12.320  46.118  0.00  0.00    +0.093 A 
ATOM     11  C19 <0> A   1     -13.361  12.085  45.181  0.00  0.00    -0.017 A 
ATOM     12  C20 <0> A   1     -14.125  10.939  45.254  0.00  0.00    +0.053 A 
ATOM     13  F1  <0> A   1     -11.619  13.441  46.040  0.00  0.00    -0.142 F 
ENDBRANCH   3   7
BRANCH   5  14
ATOM     14  C7  <0> A   1     -17.631   6.786  47.346  0.00  0.00    +0.602 C 
ATOM     15  O1  <0> A   1     -18.621   6.768  46.639  0.00  0.00    -0.518 OA
ATOM     16  N2  <0> A   1     -17.682   6.271  48.590  0.00  0.00    -0.718 N 
ATOM     17  H8  <0> A   1     -16.915   6.351  49.180  0.00  0.00    +0.405 HD
BRANCH  16  18
ATOM     18  C8  <0> A   1     -18.893   5.590  49.053  0.00  0.00    +0.361 C 
BRANCH  18  19
ATOM     19  C9  <0> A   1     -18.567   4.747  50.258  0.00  0.00    +0.046 A 
ATOM     20  C10 <0> A   1     -18.608   3.366  50.169  0.00  0.00    +0.252 A 
ATOM     21  N3  <0> A   1     -18.321   2.627  51.227  0.00  0.00    -0.439 NA
ATOM     22  C11 <0> A   1     -17.996   3.207  52.368  0.00  0.00    +0.088 A 
ATOM     23  C12 <0> A   1     -17.955   4.587  52.457  0.00  0.00    +0.226 A 
ATOM     24  N4  <0> A   1     -18.237   5.326  51.399  0.00  0.00    -0.418 NA
ATOM     25  C13 <0> A   1     -17.670   2.365  53.574  0.00  0.00    +0.146 C 
ENDBRANCH  18  19
ENDBRANCH  16  18
ENDBRANCH   5  14
BRANCH   1  27
ATOM     26  C1  <0> A   1     -16.254   5.154  44.432  0.00  0.00    +0.040 C 
ATOM     27  C2  <0> A   1     -15.457   5.296  45.730  0.00  0.00    +0.280 C 
ENDBRANCH   1  27
BRANCH   2  28
ATOM     28  C21 <0> A   1     -13.170   7.244  45.053  0.00  0.00    +0.116 C 
BRANCH  28  29
ATOM     29  C22 <0> A   1     -13.464   7.342  43.555  0.00  0.00    -0.007 C 
BRANCH  29  30
ATOM     30  C23 <0> A   1     -12.642   8.480  42.946  0.00  0.00    +0.212 C 
BRANCH  30  31
ATOM     31  O5  <0> A   1     -11.414   7.959  42.436  0.00  0.00    -0.542 OA
ATOM     32  H32 <0> A   1     -11.371   6.993  42.423  0.00  0.00    +0.363 HD
ENDBRANCH  30  31
BRANCH  30  33
ATOM     33  C24 <0> A   1     -13.433   9.128  41.809  0.00  0.00    -0.051 C 
BRANCH  33  34
ATOM     34  C25 <0> A   1     -12.953  10.568  41.610  0.00  0.00    +0.230 C 
BRANCH  34  35
ATOM     35  O4  <0> A   1     -11.551  10.567  41.330  0.00  0.00    -0.528 OA
ATOM     36  H31 <0> A   1     -11.327  10.246  40.446  0.00  0.00    +0.349 HD
ENDBRANCH  34  35
BRANCH  34  37
ATOM     37  C26 <0> A   1     -13.707  11.200  40.438  0.00  0.00    -0.103 C 
BRANCH  37  38
ATOM     38  C27 <0> A   1     -12.842  11.157  39.204  0.00  0.00    +0.491 C 
ATOM     39  O2  <0> A   1     -12.614  10.093  38.656  0.00  0.00    -0.681 OA
ATOM     40  O3  <0> A   1     -12.371  12.188  38.755  0.00  0.00    -0.713 OA
ENDBRANCH  37  38
ENDBRANCH  34  37
ENDBRANCH  33  34
ENDBRANCH  30  33
ENDBRANCH  29  30
ENDBRANCH  28  29
ENDBRANCH   2  28
TORSDOF 14
