REMARK VINA RESULT:      -7.5     13.799     17.284
REMARK  Name = CHEMBL511255
REMARK  12 active torsions:
REMARK  status: ('A' for Active; 'I' for Inactive)
REMARK    1  A    between atoms: C1_1  and  C2_2
REMARK    2  A    between atoms: C2_2  and  C3_3
REMARK    3  A    between atoms: C2_2  and  C4_4
REMARK    4  A    between atoms: C5_5  and  C17_23
REMARK    5  A    between atoms: C6_6  and  C11_16
REMARK    6  A    between atoms: C18_24  and  C19_25
REMARK    7  A    between atoms: C19_25  and  C20_27
REMARK    8  A    between atoms: C19_25  and  O5_35
REMARK    9  A    between atoms: C20_27  and  C21_28
REMARK   10  A    between atoms: C21_28  and  C22_30
REMARK   11  A    between atoms: C21_28  and  O4_34
REMARK   12  A    between atoms: C22_30  and  C23_31
REMARK                            x       y       z     vdW  Elec       q    Type
REMARK                         _______ _______ _______ _____ _____    ______ ____
ROOT
ATOM      1  C4  <0> A   1     -23.999   1.144  51.612  0.00  0.00    +0.240 A 
ATOM      2  C5  <0> A   1     -24.626  -0.089  51.410  0.00  0.00    -0.174 A 
ATOM      3  C6  <0> A   1     -26.033  -0.141  51.487  0.00  0.00    +0.264 A 
ATOM      4  N1  <0> A   1     -26.702   0.980  51.747  0.00  0.00    -0.544 NA
ATOM      5  C7  <0> A   1     -26.062   2.123  51.930  0.00  0.00    +0.564 A 
ATOM      6  N2  <0> A   1     -24.741   2.206  51.870  0.00  0.00    -0.543 NA
ATOM      7  N3  <0> A   1     -26.796   3.267  52.199  0.00  0.00    -0.595 N 
ATOM      8  C8  <0> A   1     -28.185   3.202  52.272  0.00  0.00    +0.348 C 
ATOM      9  C9  <0> A   1     -28.974   2.042  52.101  0.00  0.00    -0.091 C 
ATOM     10  C10 <0> A   1     -30.265   2.389  52.247  0.00  0.00    +0.258 C 
ATOM     11  O1  <0> A   1     -30.318   3.707  52.500  0.00  0.00    -0.076 OA
ATOM     12  N4  <0> A   1     -28.991   4.203  52.518  0.00  0.00    -0.362 NA
ATOM     13  H10 <0> A   1     -26.342   4.113  52.335  0.00  0.00    +0.435 HD
ENDROOT
BRANCH   3  14
ATOM     14  C11 <0> A   1     -26.753  -1.418  51.282  0.00  0.00    -0.075 A 
ATOM     15  C12 <0> A   1     -27.046  -2.239  52.372  0.00  0.00    +0.100 A 
ATOM     16  C13 <0> A   1     -27.717  -3.428  52.176  0.00  0.00    -0.012 A 
ATOM     17  C14 <0> A   1     -28.100  -3.808  50.899  0.00  0.00    +0.123 A 
ATOM     18  C15 <0> A   1     -27.810  -2.996  49.814  0.00  0.00    -0.022 A 
ATOM     19  C16 <0> A   1     -27.146  -1.802  50.000  0.00  0.00    +0.088 A 
ATOM     20  F1  <0> A   1     -28.757  -4.974  50.713  0.00  0.00    -0.134 F 
ENDBRANCH   3  14
BRANCH   1  22
ATOM     21  C1  <0> A   1     -22.119   2.525  50.770  0.00  0.00    +0.045 C 
ATOM     22  C2  <0> A   1     -22.498   1.258  51.541  0.00  0.00    +0.052 C 
ATOM     23  C3  <0> A   1     -21.925   1.333  52.958  0.00  0.00    +0.045 C 
ENDBRANCH   1  22
BRANCH   2  24
ATOM     24  C17 <0> A   1     -23.838  -1.304  51.124  0.00  0.00    +0.011 C 
ATOM     25  C18 <0> A   1     -23.406  -2.066  52.121  0.00  0.00    -0.033 C 
BRANCH  25  26
ATOM     26  C19 <0> A   1     -22.601  -3.305  51.828  0.00  0.00    +0.252 C 
BRANCH  26  27
ATOM     27  O5  <0> A   1     -22.845  -3.726  50.485  0.00  0.00    -0.537 OA
ATOM     28  H24 <0> A   1     -23.780  -3.722  50.235  0.00  0.00    +0.366 HD
ENDBRANCH  26  27
BRANCH  26  29
ATOM     29  C20 <0> A   1     -21.113  -3.000  52.005  0.00  0.00    -0.041 C 
BRANCH  29  30
ATOM     30  C21 <0> A   1     -20.671  -3.410  53.411  0.00  0.00    +0.232 C 
BRANCH  30  31
ATOM     31  O4  <0> A   1     -21.106  -4.745  53.677  0.00  0.00    -0.528 OA
ATOM     32  H23 <0> A   1     -21.911  -4.997  53.205  0.00  0.00    +0.350 HD
ENDBRANCH  30  31
BRANCH  30  33
ATOM     33  C22 <0> A   1     -19.146  -3.341  53.507  0.00  0.00    -0.102 C 
BRANCH  33  34
ATOM     34  C23 <0> A   1     -18.617  -4.644  54.050  0.00  0.00    +0.490 C 
ATOM     35  O2  <0> A   1     -18.486  -4.795  55.253  0.00  0.00    -0.681 OA
ATOM     36  O3  <0> A   1     -18.319  -5.547  53.287  0.00  0.00    -0.713 OA
ENDBRANCH  33  34
ENDBRANCH  30  33
ENDBRANCH  29  30
ENDBRANCH  26  29
ENDBRANCH  25  26
ENDBRANCH   2  24
TORSDOF 10
