MODEL 1
REMARK VINA RESULT:      -8.8      0.000      0.000
REMARK  Name = CHEMBL123826
REMARK  15 active torsions:
REMARK  status: ('A' for Active; 'I' for Inactive)
REMARK    1  A    between atoms: C1_1  and  C2_2
REMARK    2  A    between atoms: C2_2  and  C3_3
REMARK    3  A    between atoms: C2_2  and  C4_4
REMARK    4  A    between atoms: C2_2  and  C5_5
REMARK    5  A    between atoms: C8_8  and  C11_11
REMARK    6  A    between atoms: C11_11  and  C12_12
REMARK    7  A    between atoms: N2_19  and  C26_34
REMARK    8  A    between atoms: C18_20  and  C19_21
REMARK    9  A    between atoms: C20_22  and  C21_23
REMARK   10  A    between atoms: C21_23  and  C22_25
REMARK   11  A    between atoms: C21_23  and  O4_33
REMARK   12  A    between atoms: C22_25  and  C23_26
REMARK   13  A    between atoms: C23_26  and  C24_28
REMARK   14  A    between atoms: C23_26  and  O3_32
REMARK   15  A    between atoms: C24_28  and  C25_29
REMARK                            x       y       z     vdW  Elec       q    Type
REMARK                         _______ _______ _______ _____ _____    ______ ____
ROOT
ATOM      1  C12 <0> A   1     -16.663   6.574  47.305  0.00  0.00    +0.091 C 
ATOM      2  C13 <0> A   1     -16.381   5.087  47.056  0.00  0.00    +0.028 C 
ATOM      3  C14 <0> A   1     -16.110   4.853  45.568  0.00  0.00    +0.016 C 
ATOM      4  C15 <0> A   1     -14.742   5.437  45.195  0.00  0.00    +0.103 C 
ATOM      5  C16 <0> A   1     -14.680   6.855  45.704  0.00  0.00    -0.211 C 
ATOM      6  C17 <0> A   1     -15.556   7.378  46.665  0.00  0.00    +0.089 C 
ATOM      7  N1  <0> A   1     -15.241   8.624  46.883  0.00  0.00    -0.260 NA
ATOM      8  N2  <0> A   1     -14.146   8.960  46.073  0.00  0.00    -0.331 N 
ATOM      9  C18 <0> A   1     -13.807   7.851  45.346  0.00  0.00    +0.123 C 
ENDROOT
BRANCH   8  10
ATOM     10  C26 <0> A   1     -13.512  10.208  46.020  0.00  0.00    +0.150 A 
ATOM     11  C27 <0> A   1     -12.550  10.541  46.964  0.00  0.00    +0.047 A 
ATOM     12  C28 <0> A   1     -11.926  11.771  46.909  0.00  0.00    +0.016 A 
ATOM     13  C29 <0> A   1     -12.258  12.673  45.912  0.00  0.00    +0.097 A 
ATOM     14  C30 <0> A   1     -13.217  12.344  44.969  0.00  0.00    +0.006 A 
ATOM     15  C31 <0> A   1     -13.840  11.112  45.017  0.00  0.00    +0.057 A 
ATOM     16  F1  <0> A   1     -11.646  13.876  45.859  0.00  0.00    -0.135 F 
ENDBRANCH   8  10
BRANCH   9  17
ATOM     17  C19 <0> A   1     -12.714   7.747  44.364  0.00  0.00    +0.027 C 
ATOM     18  C20 <0> A   1     -12.992   7.629  43.071  0.00  0.00    -0.028 C 
BRANCH  18  19
ATOM     19  C21 <0> A   1     -11.873   7.523  42.067  0.00  0.00    +0.254 C 
BRANCH  19  20
ATOM     20  O4  <0> A   1     -11.484   6.155  41.928  0.00  0.00    -0.537 OA
ATOM     21  H32 <0> A   1     -11.734   5.759  41.082  0.00  0.00    +0.368 HD
ENDBRANCH  19  20
BRANCH  19  22
ATOM     22  C22 <0> A   1     -12.349   8.059  40.714  0.00  0.00    -0.040 C 
BRANCH  22  23
ATOM     23  C23 <0> A   1     -12.942   9.456  40.900  0.00  0.00    +0.232 C 
BRANCH  23  24
ATOM     24  O3  <0> A   1     -11.887  10.403  41.076  0.00  0.00    -0.528 OA
ATOM     25  H31 <0> A   1     -11.219  10.383  40.377  0.00  0.00    +0.351 HD
ENDBRANCH  23  24
BRANCH  23  26
ATOM     26  C24 <0> A   1     -13.762   9.831  39.664  0.00  0.00    -0.102 C 
BRANCH  26  27
ATOM     27  C25 <0> A   1     -13.857  11.331  39.559  0.00  0.00    +0.491 C 
ATOM     28  O1  <0> A   1     -14.605  11.948  40.298  0.00  0.00    -0.681 OA
ATOM     29  O2  <0> A   1     -13.184  11.929  38.736  0.00  0.00    -0.713 OA
ENDBRANCH  26  27
ENDBRANCH  23  26
ENDBRANCH  22  23
ENDBRANCH  19  22
ENDBRANCH  18  19
ENDBRANCH   9  17
BRANCH   1  30
ATOM     30  C11 <0> A   1     -16.698   6.848  48.809  0.00  0.00    +0.079 C 
BRANCH  30  34
ATOM     31  C5  <0> A   1     -20.011   4.792  50.553  0.00  0.00    -0.070 A 
ATOM     32  C6  <0> A   1     -20.211   5.641  49.482  0.00  0.00    -0.011 A 
ATOM     33  C7  <0> A   1     -19.139   6.307  48.917  0.00  0.00    +0.002 A 
ATOM     34  C8  <0> A   1     -17.867   6.124  49.425  0.00  0.00    -0.091 A 
ATOM     35  C9  <0> A   1     -17.666   5.275  50.497  0.00  0.00    +0.059 A 
ATOM     36  C10 <0> A   1     -18.739   4.612  51.065  0.00  0.00    -0.007 A 
BRANCH  31  38
ATOM     37  C1  <0> A   1     -22.249   5.079  51.580  0.00  0.00    +0.030 C 
ATOM     38  C2  <0> A   1     -21.179   4.066  51.169  0.00  0.00    -0.029 C 
ATOM     39  C3  <0> A   1     -20.707   3.293  52.403  0.00  0.00    +0.030 C 
ATOM     40  C4  <0> A   1     -21.766   3.089  50.149  0.00  0.00    +0.028 C 
ENDBRANCH  31  38
ENDBRANCH  30  34
ENDBRANCH   1  30
TORSDOF 12
ENDMDL
MODEL 2
REMARK VINA RESULT:      -8.7     15.659     19.159
REMARK  Name = CHEMBL123826
REMARK  15 active torsions:
REMARK  status: ('A' for Active; 'I' for Inactive)
REMARK    1  A    between atoms: C1_1  and  C2_2
REMARK    2  A    between atoms: C2_2  and  C3_3
REMARK    3  A    between atoms: C2_2  and  C4_4
REMARK    4  A    between atoms: C2_2  and  C5_5
REMARK    5  A    between atoms: C8_8  and  C11_11
REMARK    6  A    between atoms: C11_11  and  C12_12
REMARK    7  A    between atoms: N2_19  and  C26_34
REMARK    8  A    between atoms: C18_20  and  C19_21
REMARK    9  A    between atoms: C20_22  and  C21_23
REMARK   10  A    between atoms: C21_23  and  C22_25
REMARK   11  A    between atoms: C21_23  and  O4_33
REMARK   12  A    between atoms: C22_25  and  C23_26
REMARK   13  A    between atoms: C23_26  and  C24_28
REMARK   14  A    between atoms: C23_26  and  O3_32
REMARK   15  A    between atoms: C24_28  and  C25_29
REMARK                            x       y       z     vdW  Elec       q    Type
REMARK                         _______ _______ _______ _____ _____    ______ ____
ROOT
ATOM      1  C12 <0> A   1     -25.626  -1.355  50.785  0.00  0.00    +0.091 C 
ATOM      2  C13 <0> A   1     -24.234  -1.163  50.173  0.00  0.00    +0.028 C 
ATOM      3  C14 <0> A   1     -23.187  -1.874  51.032  0.00  0.00    +0.016 C 
ATOM      4  C15 <0> A   1     -23.330  -3.392  50.869  0.00  0.00    +0.103 C 
ATOM      5  C16 <0> A   1     -24.777  -3.755  51.084  0.00  0.00    -0.211 C 
ATOM      6  C17 <0> A   1     -25.828  -2.828  51.048  0.00  0.00    +0.089 C 
ATOM      7  N1  <0> A   1     -26.947  -3.457  51.274  0.00  0.00    -0.260 NA
ATOM      8  N2  <0> A   1     -26.669  -4.819  51.464  0.00  0.00    -0.331 N 
ATOM      9  C18 <0> A   1     -25.316  -4.991  51.341  0.00  0.00    +0.123 C 
ENDROOT
BRANCH   8  10
ATOM     10  C26 <0> A   1     -27.608  -5.824  51.729  0.00  0.00    +0.150 A 
ATOM     11  C27 <0> A   1     -28.018  -6.068  53.032  0.00  0.00    +0.047 A 
ATOM     12  C28 <0> A   1     -28.944  -7.057  53.291  0.00  0.00    +0.016 A 
ATOM     13  C29 <0> A   1     -29.466  -7.808  52.250  0.00  0.00    +0.097 A 
ATOM     14  C30 <0> A   1     -29.059  -7.567  50.949  0.00  0.00    +0.006 A 
ATOM     15  C31 <0> A   1     -28.136  -6.573  50.685  0.00  0.00    +0.057 A 
ATOM     16  F1  <0> A   1     -30.372  -8.776  52.505  0.00  0.00    -0.135 F 
ENDBRANCH   8  10
BRANCH   9  17
ATOM     17  C19 <0> A   1     -24.578  -6.259  51.466  0.00  0.00    +0.027 C 
ATOM     18  C20 <0> A   1     -24.441  -7.054  50.410  0.00  0.00    -0.028 C 
BRANCH  18  19
ATOM     19  C21 <0> A   1     -23.686  -8.352  50.538  0.00  0.00    +0.254 C 
BRANCH  19  20
ATOM     20  O4  <0> A   1     -24.497  -9.310  51.220  0.00  0.00    -0.537 OA
ATOM     21  H32 <0> A   1     -25.429  -9.289  50.966  0.00  0.00    +0.368 HD
ENDBRANCH  19  20
BRANCH  19  22
ATOM     22  C22 <0> A   1     -23.337  -8.878  49.144  0.00  0.00    -0.040 C 
BRANCH  22  23
ATOM     23  C23 <0> A   1     -24.462  -8.523  48.170  0.00  0.00    +0.232 C 
BRANCH  23  24
ATOM     24  O3  <0> A   1     -23.907  -7.918  47.001  0.00  0.00    -0.528 OA
ATOM     25  H31 <0> A   1     -23.926  -8.485  46.217  0.00  0.00    +0.351 HD
ENDBRANCH  23  24
BRANCH  23  26
ATOM     26  C24 <0> A   1     -25.216  -9.795  47.776  0.00  0.00    -0.102 C 
BRANCH  26  27
ATOM     27  C25 <0> A   1     -26.603  -9.758  48.362  0.00  0.00    +0.491 C 
ATOM     28  O1  <0> A   1     -27.573  -9.666  47.629  0.00  0.00    -0.681 OA
ATOM     29  O2  <0> A   1     -26.757  -9.822  49.571  0.00  0.00    -0.713 OA
ENDBRANCH  26  27
ENDBRANCH  23  26
ENDBRANCH  22  23
ENDBRANCH  19  22
ENDBRANCH  18  19
ENDBRANCH   9  17
BRANCH   1  30
ATOM     30  C11 <0> A   1     -26.693  -0.854  49.810  0.00  0.00    +0.079 C 
BRANCH  30  34
ATOM     31  C5  <0> A   1     -29.658   1.354  51.951  0.00  0.00    -0.070 A 
ATOM     32  C6  <0> A   1     -28.710   2.021  51.198  0.00  0.00    -0.011 A 
ATOM     33  C7  <0> A   1     -27.750   1.306  50.505  0.00  0.00    +0.002 A 
ATOM     34  C8  <0> A   1     -27.738  -0.075  50.566  0.00  0.00    -0.091 A 
ATOM     35  C9  <0> A   1     -28.686  -0.741  51.320  0.00  0.00    +0.059 A 
ATOM     36  C10 <0> A   1     -29.643  -0.027  52.016  0.00  0.00    -0.007 A 
BRANCH  31  38
ATOM     37  C1  <0> A   1     -32.072   1.912  52.056  0.00  0.00    +0.030 C 
ATOM     38  C2  <0> A   1     -30.704   2.133  52.706  0.00  0.00    -0.029 C 
ATOM     39  C3  <0> A   1     -30.356   3.623  52.670  0.00  0.00    +0.030 C 
ATOM     40  C4  <0> A   1     -30.746   1.654  54.158  0.00  0.00    +0.028 C 
ENDBRANCH  31  38
ENDBRANCH  30  34
ENDBRANCH   1  30
TORSDOF 12
ENDMDL
MODEL 3
REMARK VINA RESULT:      -8.7     15.681     19.188
REMARK  Name = CHEMBL123826
REMARK  15 active torsions:
REMARK  status: ('A' for Active; 'I' for Inactive)
REMARK    1  A    between atoms: C1_1  and  C2_2
REMARK    2  A    between atoms: C2_2  and  C3_3
REMARK    3  A    between atoms: C2_2  and  C4_4
REMARK    4  A    between atoms: C2_2  and  C5_5
REMARK    5  A    between atoms: C8_8  and  C11_11
REMARK    6  A    between atoms: C11_11  and  C12_12
REMARK    7  A    between atoms: N2_19  and  C26_34
REMARK    8  A    between atoms: C18_20  and  C19_21
REMARK    9  A    between atoms: C20_22  and  C21_23
REMARK   10  A    between atoms: C21_23  and  C22_25
REMARK   11  A    between atoms: C21_23  and  O4_33
REMARK   12  A    between atoms: C22_25  and  C23_26
REMARK   13  A    between atoms: C23_26  and  C24_28
REMARK   14  A    between atoms: C23_26  and  O3_32
REMARK   15  A    between atoms: C24_28  and  C25_29
REMARK                            x       y       z     vdW  Elec       q    Type
REMARK                         _______ _______ _______ _____ _____    ______ ____
ROOT
ATOM      1  C12 <0> A   1     -25.638  -1.359  50.816  0.00  0.00    +0.091 C 
ATOM      2  C13 <0> A   1     -24.244  -1.182  50.203  0.00  0.00    +0.028 C 
ATOM      3  C14 <0> A   1     -23.204  -1.904  51.061  0.00  0.00    +0.016 C 
ATOM      4  C15 <0> A   1     -23.363  -3.421  50.897  0.00  0.00    +0.103 C 
ATOM      5  C16 <0> A   1     -24.814  -3.769  51.113  0.00  0.00    -0.211 C 
ATOM      6  C17 <0> A   1     -25.855  -2.831  51.079  0.00  0.00    +0.089 C 
ATOM      7  N1  <0> A   1     -26.980  -3.449  51.306  0.00  0.00    -0.260 NA
ATOM      8  N2  <0> A   1     -26.716  -4.813  51.495  0.00  0.00    -0.331 N 
ATOM      9  C18 <0> A   1     -25.365  -4.999  51.371  0.00  0.00    +0.123 C 
ENDROOT
BRANCH   8  10
ATOM     10  C26 <0> A   1     -27.665  -5.808  51.760  0.00  0.00    +0.150 A 
ATOM     11  C27 <0> A   1     -28.183  -6.571  50.723  0.00  0.00    +0.047 A 
ATOM     12  C28 <0> A   1     -29.117  -7.552  50.987  0.00  0.00    +0.016 A 
ATOM     13  C29 <0> A   1     -29.539  -7.776  52.287  0.00  0.00    +0.097 A 
ATOM     14  C30 <0> A   1     -29.024  -7.017  53.324  0.00  0.00    +0.006 A 
ATOM     15  C31 <0> A   1     -28.084  -6.038  53.065  0.00  0.00    +0.057 A 
ATOM     16  F1  <0> A   1     -30.453  -8.737  52.544  0.00  0.00    -0.135 F 
ENDBRANCH   8  10
BRANCH   9  17
ATOM     17  C19 <0> A   1     -24.640  -6.275  51.494  0.00  0.00    +0.027 C 
ATOM     18  C20 <0> A   1     -24.461  -7.042  50.425  0.00  0.00    -0.028 C 
BRANCH  18  19
ATOM     19  C21 <0> A   1     -23.718  -8.348  50.552  0.00  0.00    +0.254 C 
BRANCH  19  20
ATOM     20  O4  <0> A   1     -24.551  -9.308  51.205  0.00  0.00    -0.537 OA
ATOM     21  H32 <0> A   1     -24.137 -10.175  51.318  0.00  0.00    +0.368 HD
ENDBRANCH  19  20
BRANCH  19  22
ATOM     22  C22 <0> A   1     -23.346  -8.860  49.158  0.00  0.00    -0.040 C 
BRANCH  22  23
ATOM     23  C23 <0> A   1     -24.467  -8.522  48.175  0.00  0.00    +0.232 C 
BRANCH  23  24
ATOM     24  O3  <0> A   1     -23.913  -7.904  47.012  0.00  0.00    -0.528 OA
ATOM     25  H31 <0> A   1     -22.998  -8.160  46.828  0.00  0.00    +0.351 HD
ENDBRANCH  23  24
BRANCH  23  26
ATOM     26  C24 <0> A   1     -25.196  -9.805  47.771  0.00  0.00    -0.102 C 
BRANCH  26  27
ATOM     27  C25 <0> A   1     -26.609  -9.766  48.293  0.00  0.00    +0.491 C 
ATOM     28  O1  <0> A   1     -26.815  -9.715  49.493  0.00  0.00    -0.681 OA
ATOM     29  O2  <0> A   1     -27.547  -9.784  47.514  0.00  0.00    -0.713 OA
ENDBRANCH  26  27
ENDBRANCH  23  26
ENDBRANCH  22  23
ENDBRANCH  19  22
ENDBRANCH  18  19
ENDBRANCH   9  17
BRANCH   1  30
ATOM     30  C11 <0> A   1     -26.701  -0.847  49.843  0.00  0.00    +0.079 C 
BRANCH  30  34
ATOM     31  C5  <0> A   1     -29.634   1.395  51.992  0.00  0.00    -0.070 A 
ATOM     32  C6  <0> A   1     -29.661   0.014  52.022  0.00  0.00    -0.011 A 
ATOM     33  C7  <0> A   1     -28.712  -0.713  51.327  0.00  0.00    +0.002 A 
ATOM     34  C8  <0> A   1     -27.736  -0.057  50.600  0.00  0.00    -0.091 A 
ATOM     35  C9  <0> A   1     -27.709   1.325  50.569  0.00  0.00    +0.059 A 
ATOM     36  C10 <0> A   1     -28.660   2.051  51.262  0.00  0.00    -0.007 A 
BRANCH  31  38
ATOM     37  C1  <0> A   1     -30.749   1.672  54.189  0.00  0.00    +0.030 C 
ATOM     38  C2  <0> A   1     -30.668   2.186  52.750  0.00  0.00    -0.029 C 
ATOM     39  C3  <0> A   1     -32.031   2.026  52.073  0.00  0.00    +0.030 C 
ATOM     40  C4  <0> A   1     -30.273   3.664  52.758  0.00  0.00    +0.028 C 
ENDBRANCH  31  38
ENDBRANCH  30  34
ENDBRANCH   1  30
TORSDOF 12
ENDMDL
MODEL 4
REMARK VINA RESULT:      -8.6     16.407     19.686
REMARK  Name = CHEMBL123826
REMARK  15 active torsions:
REMARK  status: ('A' for Active; 'I' for Inactive)
REMARK    1  A    between atoms: C1_1  and  C2_2
REMARK    2  A    between atoms: C2_2  and  C3_3
REMARK    3  A    between atoms: C2_2  and  C4_4
REMARK    4  A    between atoms: C2_2  and  C5_5
REMARK    5  A    between atoms: C8_8  and  C11_11
REMARK    6  A    between atoms: C11_11  and  C12_12
REMARK    7  A    between atoms: N2_19  and  C26_34
REMARK    8  A    between atoms: C18_20  and  C19_21
REMARK    9  A    between atoms: C20_22  and  C21_23
REMARK   10  A    between atoms: C21_23  and  C22_25
REMARK   11  A    between atoms: C21_23  and  O4_33
REMARK   12  A    between atoms: C22_25  and  C23_26
REMARK   13  A    between atoms: C23_26  and  C24_28
REMARK   14  A    between atoms: C23_26  and  O3_32
REMARK   15  A    between atoms: C24_28  and  C25_29
REMARK                            x       y       z     vdW  Elec       q    Type
REMARK                         _______ _______ _______ _____ _____    ______ ____
ROOT
ATOM      1  C12 <0> A   1     -25.704  -1.793  50.840  0.00  0.00    +0.091 C 
ATOM      2  C13 <0> A   1     -24.260  -1.396  50.511  0.00  0.00    +0.028 C 
ATOM      3  C14 <0> A   1     -23.289  -2.220  51.359  0.00  0.00    +0.016 C 
ATOM      4  C15 <0> A   1     -23.273  -3.671  50.861  0.00  0.00    +0.103 C 
ATOM      5  C16 <0> A   1     -24.699  -4.151  50.761  0.00  0.00    -0.211 C 
ATOM      6  C17 <0> A   1     -25.811  -3.297  50.753  0.00  0.00    +0.089 C 
ATOM      7  N1  <0> A   1     -26.891  -4.021  50.661  0.00  0.00    -0.260 NA
ATOM      8  N2  <0> A   1     -26.524  -5.373  50.604  0.00  0.00    -0.331 N 
ATOM      9  C18 <0> A   1     -25.158  -5.440  50.666  0.00  0.00    +0.123 C 
ENDROOT
BRANCH   8  10
ATOM     10  C26 <0> A   1     -27.400  -6.462  50.499  0.00  0.00    +0.150 A 
ATOM     11  C27 <0> A   1     -27.958  -7.018  51.642  0.00  0.00    +0.047 A 
ATOM     12  C28 <0> A   1     -28.822  -8.090  51.537  0.00  0.00    +0.016 A 
ATOM     13  C29 <0> A   1     -29.133  -8.611  50.292  0.00  0.00    +0.097 A 
ATOM     14  C30 <0> A   1     -28.577  -8.058  49.150  0.00  0.00    +0.006 A 
ATOM     15  C31 <0> A   1     -27.717  -6.982  49.251  0.00  0.00    +0.057 A 
ATOM     16  F1  <0> A   1     -29.978  -9.659  50.191  0.00  0.00    -0.135 F 
ENDBRANCH   8  10
BRANCH   9  17
ATOM     17  C19 <0> A   1     -24.338  -6.663  50.637  0.00  0.00    +0.027 C 
ATOM     18  C20 <0> A   1     -24.193  -7.391  51.739  0.00  0.00    -0.028 C 
BRANCH  18  19
ATOM     19  C21 <0> A   1     -23.353  -8.643  51.709  0.00  0.00    +0.254 C 
BRANCH  19  20
ATOM     20  O4  <0> A   1     -23.869  -9.585  52.650  0.00  0.00    -0.537 OA
ATOM     21  H32 <0> A   1     -23.985  -9.228  53.541  0.00  0.00    +0.368 HD
ENDBRANCH  19  20
BRANCH  19  22
ATOM     22  C22 <0> A   1     -23.393  -9.249  50.304  0.00  0.00    -0.040 C 
BRANCH  22  23
ATOM     23  C23 <0> A   1     -24.142 -10.582  50.346  0.00  0.00    +0.232 C 
BRANCH  23  24
ATOM     24  O3  <0> A   1     -25.547 -10.343  50.244  0.00  0.00    -0.528 OA
ATOM     25  H31 <0> A   1     -25.833  -9.503  50.628  0.00  0.00    +0.351 HD
ENDBRANCH  23  24
BRANCH  23  26
ATOM     26  C24 <0> A   1     -23.688 -11.459  49.178  0.00  0.00    -0.102 C 
BRANCH  26  27
ATOM     27  C25 <0> A   1     -24.808 -12.385  48.779  0.00  0.00    +0.491 C 
ATOM     28  O1  <0> A   1     -25.102 -13.329  49.492  0.00  0.00    -0.681 OA
ATOM     29  O2  <0> A   1     -25.421 -12.189  47.743  0.00  0.00    -0.713 OA
ENDBRANCH  26  27
ENDBRANCH  23  26
ENDBRANCH  22  23
ENDBRANCH  19  22
ENDBRANCH  18  19
ENDBRANCH   9  17
BRANCH   1  30
ATOM     30  C11 <0> A   1     -26.659  -1.149  49.834  0.00  0.00    +0.079 C 
BRANCH  30  34
ATOM     31  C5  <0> A   1     -29.557   1.195  51.920  0.00  0.00    -0.070 A 
ATOM     32  C6  <0> A   1     -28.650   1.808  51.078  0.00  0.00    -0.011 A 
ATOM     33  C7  <0> A   1     -27.711   1.050  50.403  0.00  0.00    +0.002 A 
ATOM     34  C8  <0> A   1     -27.681  -0.322  50.571  0.00  0.00    -0.091 A 
ATOM     35  C9  <0> A   1     -28.588  -0.935  51.414  0.00  0.00    +0.059 A 
ATOM     36  C10 <0> A   1     -29.524  -0.176  52.092  0.00  0.00    -0.007 A 
BRANCH  31  38
ATOM     37  C1  <0> A   1     -31.956   1.815  52.019  0.00  0.00    +0.030 C 
ATOM     38  C2  <0> A   1     -30.580   2.022  52.656  0.00  0.00    -0.029 C 
ATOM     39  C3  <0> A   1     -30.196   3.501  52.573  0.00  0.00    +0.030 C 
ATOM     40  C4  <0> A   1     -30.626   1.588  54.122  0.00  0.00    +0.028 C 
ENDBRANCH  31  38
ENDBRANCH  30  34
ENDBRANCH   1  30
TORSDOF 12
ENDMDL
MODEL 5
REMARK VINA RESULT:      -8.5     16.230     19.576
REMARK  Name = CHEMBL123826
REMARK  15 active torsions:
REMARK  status: ('A' for Active; 'I' for Inactive)
REMARK    1  A    between atoms: C1_1  and  C2_2
REMARK    2  A    between atoms: C2_2  and  C3_3
REMARK    3  A    between atoms: C2_2  and  C4_4
REMARK    4  A    between atoms: C2_2  and  C5_5
REMARK    5  A    between atoms: C8_8  and  C11_11
REMARK    6  A    between atoms: C11_11  and  C12_12
REMARK    7  A    between atoms: N2_19  and  C26_34
REMARK    8  A    between atoms: C18_20  and  C19_21
REMARK    9  A    between atoms: C20_22  and  C21_23
REMARK   10  A    between atoms: C21_23  and  C22_25
REMARK   11  A    between atoms: C21_23  and  O4_33
REMARK   12  A    between atoms: C22_25  and  C23_26
REMARK   13  A    between atoms: C23_26  and  C24_28
REMARK   14  A    between atoms: C23_26  and  O3_32
REMARK   15  A    between atoms: C24_28  and  C25_29
REMARK                            x       y       z     vdW  Elec       q    Type
REMARK                         _______ _______ _______ _____ _____    ______ ____
ROOT
ATOM      1  C12 <0> A   1     -25.622  -1.971  50.911  0.00  0.00    +0.091 C 
ATOM      2  C13 <0> A   1     -24.159  -1.584  50.660  0.00  0.00    +0.028 C 
ATOM      3  C14 <0> A   1     -23.241  -2.418  51.556  0.00  0.00    +0.016 C 
ATOM      4  C15 <0> A   1     -23.210  -3.867  51.055  0.00  0.00    +0.103 C 
ATOM      5  C16 <0> A   1     -24.632  -4.336  50.879  0.00  0.00    -0.211 C 
ATOM      6  C17 <0> A   1     -25.735  -3.474  50.814  0.00  0.00    +0.089 C 
ATOM      7  N1  <0> A   1     -26.815  -4.189  50.663  0.00  0.00    -0.260 NA
ATOM      8  N2  <0> A   1     -26.456  -5.544  50.621  0.00  0.00    -0.331 N 
ATOM      9  C18 <0> A   1     -25.095  -5.621  50.755  0.00  0.00    +0.123 C 
ENDROOT
BRANCH   8  10
ATOM     10  C26 <0> A   1     -27.333  -6.626  50.468  0.00  0.00    +0.150 A 
ATOM     11  C27 <0> A   1     -27.619  -7.115  49.200  0.00  0.00    +0.047 A 
ATOM     12  C28 <0> A   1     -28.483  -8.182  49.051  0.00  0.00    +0.016 A 
ATOM     13  C29 <0> A   1     -29.064  -8.764  50.165  0.00  0.00    +0.097 A 
ATOM     14  C30 <0> A   1     -28.781  -8.278  51.431  0.00  0.00    +0.006 A 
ATOM     15  C31 <0> A   1     -27.912  -7.214  51.585  0.00  0.00    +0.057 A 
ATOM     16  F1  <0> A   1     -29.909  -9.808  50.018  0.00  0.00    -0.135 F 
ENDBRANCH   8  10
BRANCH   9  17
ATOM     17  C19 <0> A   1     -24.284  -6.850  50.767  0.00  0.00    +0.027 C 
ATOM     18  C20 <0> A   1     -24.080  -7.501  51.907  0.00  0.00    -0.028 C 
BRANCH  18  19
ATOM     19  C21 <0> A   1     -23.250  -8.759  51.918  0.00  0.00    +0.254 C 
BRANCH  19  20
ATOM     20  O4  <0> A   1     -22.415  -8.769  53.077  0.00  0.00    -0.537 OA
ATOM     21  H32 <0> A   1     -22.744  -8.223  53.804  0.00  0.00    +0.368 HD
ENDBRANCH  19  20
BRANCH  19  22
ATOM     22  C22 <0> A   1     -24.174  -9.979  51.943  0.00  0.00    -0.040 C 
BRANCH  22  23
ATOM     23  C23 <0> A   1     -24.214 -10.615  50.553  0.00  0.00    +0.232 C 
BRANCH  23  24
ATOM     24  O3  <0> A   1     -24.242 -12.038  50.680  0.00  0.00    -0.528 OA
ATOM     25  H31 <0> A   1     -23.826 -12.507  49.943  0.00  0.00    +0.351 HD
ENDBRANCH  23  24
BRANCH  23  26
ATOM     26  C24 <0> A   1     -25.469 -10.145  49.813  0.00  0.00    -0.102 C 
BRANCH  26  27
ATOM     27  C25 <0> A   1     -25.282 -10.343  48.331  0.00  0.00    +0.491 C 
ATOM     28  O1  <0> A   1     -25.468 -11.441  47.834  0.00  0.00    -0.681 OA
ATOM     29  O2  <0> A   1     -24.946  -9.405  47.628  0.00  0.00    -0.713 OA
ENDBRANCH  26  27
ENDBRANCH  23  26
ENDBRANCH  22  23
ENDBRANCH  19  22
ENDBRANCH  18  19
ENDBRANCH   9  17
BRANCH   1  30
ATOM     30  C11 <0> A   1     -26.517  -1.317  49.858  0.00  0.00    +0.079 C 
BRANCH  30  34
ATOM     31  C5  <0> A   1     -29.548   0.987  51.795  0.00  0.00    -0.070 A 
ATOM     32  C6  <0> A   1     -28.556   1.620  51.071  0.00  0.00    -0.011 A 
ATOM     33  C7  <0> A   1     -27.575   0.874  50.444  0.00  0.00    +0.002 A 
ATOM     34  C8  <0> A   1     -27.586  -0.504  50.542  0.00  0.00    -0.091 A 
ATOM     35  C9  <0> A   1     -28.577  -1.138  51.267  0.00  0.00    +0.059 A 
ATOM     36  C10 <0> A   1     -29.557  -0.392  51.897  0.00  0.00    -0.007 A 
BRANCH  31  38
ATOM     37  C1  <0> A   1     -30.688   1.410  53.956  0.00  0.00    +0.030 C 
ATOM     38  C2  <0> A   1     -30.618   1.799  52.478  0.00  0.00    -0.029 C 
ATOM     39  C3  <0> A   1     -31.969   1.526  51.814  0.00  0.00    +0.030 C 
ATOM     40  C4  <0> A   1     -30.283   3.287  52.358  0.00  0.00    +0.028 C 
ENDBRANCH  31  38
ENDBRANCH  30  34
ENDBRANCH   1  30
TORSDOF 12
ENDMDL
MODEL 6
REMARK VINA RESULT:      -8.5      1.933      2.479
REMARK  Name = CHEMBL123826
REMARK  15 active torsions:
REMARK  status: ('A' for Active; 'I' for Inactive)
REMARK    1  A    between atoms: C1_1  and  C2_2
REMARK    2  A    between atoms: C2_2  and  C3_3
REMARK    3  A    between atoms: C2_2  and  C4_4
REMARK    4  A    between atoms: C2_2  and  C5_5
REMARK    5  A    between atoms: C8_8  and  C11_11
REMARK    6  A    between atoms: C11_11  and  C12_12
REMARK    7  A    between atoms: N2_19  and  C26_34
REMARK    8  A    between atoms: C18_20  and  C19_21
REMARK    9  A    between atoms: C20_22  and  C21_23
REMARK   10  A    between atoms: C21_23  and  C22_25
REMARK   11  A    between atoms: C21_23  and  O4_33
REMARK   12  A    between atoms: C22_25  and  C23_26
REMARK   13  A    between atoms: C23_26  and  C24_28
REMARK   14  A    between atoms: C23_26  and  O3_32
REMARK   15  A    between atoms: C24_28  and  C25_29
REMARK                            x       y       z     vdW  Elec       q    Type
REMARK                         _______ _______ _______ _____ _____    ______ ____
ROOT
ATOM      1  C12 <0> A   1     -16.563   6.810  47.875  0.00  0.00    +0.091 C 
ATOM      2  C13 <0> A   1     -16.370   5.313  47.609  0.00  0.00    +0.028 C 
ATOM      3  C14 <0> A   1     -16.296   5.059  46.102  0.00  0.00    +0.016 C 
ATOM      4  C15 <0> A   1     -14.965   5.589  45.553  0.00  0.00    +0.103 C 
ATOM      5  C16 <0> A   1     -14.788   7.007  46.035  0.00  0.00    -0.211 C 
ATOM      6  C17 <0> A   1     -15.517   7.568  47.093  0.00  0.00    +0.089 C 
ATOM      7  N1  <0> A   1     -15.131   8.803  47.256  0.00  0.00    -0.260 NA
ATOM      8  N2  <0> A   1     -14.135   9.092  46.311  0.00  0.00    -0.331 N 
ATOM      9  C18 <0> A   1     -13.931   7.966  45.559  0.00  0.00    +0.123 C 
ENDROOT
BRANCH   8  10
ATOM     10  C26 <0> A   1     -13.468  10.315  46.165  0.00  0.00    +0.150 A 
ATOM     11  C27 <0> A   1     -13.878  11.221  45.196  0.00  0.00    +0.047 A 
ATOM     12  C28 <0> A   1     -13.219  12.426  45.055  0.00  0.00    +0.016 A 
ATOM     13  C29 <0> A   1     -12.149  12.732  45.879  0.00  0.00    +0.097 A 
ATOM     14  C30 <0> A   1     -11.737  11.830  46.847  0.00  0.00    +0.006 A 
ATOM     15  C31 <0> A   1     -12.398  10.626  46.995  0.00  0.00    +0.057 A 
ATOM     16  F1  <0> A   1     -11.506  13.911  45.740  0.00  0.00    -0.135 F 
ENDBRANCH   8  10
BRANCH   9  17
ATOM     17  C19 <0> A   1     -12.975   7.815  44.449  0.00  0.00    +0.027 C 
ATOM     18  C20 <0> A   1     -13.400   7.877  43.193  0.00  0.00    -0.028 C 
BRANCH  18  19
ATOM     19  C21 <0> A   1     -12.421   7.723  42.058  0.00  0.00    +0.254 C 
BRANCH  19  20
ATOM     20  O4  <0> A   1     -11.874   6.403  42.076  0.00  0.00    -0.537 OA
ATOM     21  H32 <0> A   1     -12.473   5.724  41.738  0.00  0.00    +0.368 HD
ENDBRANCH  19  20
BRANCH  19  22
ATOM     22  C22 <0> A   1     -13.141   7.959  40.728  0.00  0.00    -0.040 C 
BRANCH  22  23
ATOM     23  C23 <0> A   1     -12.442   9.085  39.964  0.00  0.00    +0.232 C 
BRANCH  23  24
ATOM     24  O3  <0> A   1     -12.755   8.985  38.574  0.00  0.00    -0.528 OA
ATOM     25  H31 <0> A   1     -12.200   8.358  38.089  0.00  0.00    +0.351 HD
ENDBRANCH  23  24
BRANCH  23  26
ATOM     26  C24 <0> A   1     -12.921  10.437  40.498  0.00  0.00    -0.102 C 
BRANCH  26  27
ATOM     27  C25 <0> A   1     -13.245  11.348  39.342  0.00  0.00    +0.491 C 
ATOM     28  O1  <0> A   1     -14.400  11.483  38.977  0.00  0.00    -0.681 OA
ATOM     29  O2  <0> A   1     -12.351  11.952  38.773  0.00  0.00    -0.713 OA
ENDBRANCH  26  27
ENDBRANCH  23  26
ENDBRANCH  22  23
ENDBRANCH  19  22
ENDBRANCH  18  19
ENDBRANCH   9  17
BRANCH   1  30
ATOM     30  C11 <0> A   1     -16.398   7.095  49.368  0.00  0.00    +0.079 C 
BRANCH  30  34
ATOM     31  C5  <0> A   1     -20.023   8.744  50.914  0.00  0.00    -0.070 A 
ATOM     32  C6  <0> A   1     -20.064   7.632  50.095  0.00  0.00    -0.011 A 
ATOM     33  C7  <0> A   1     -18.891   7.098  49.594  0.00  0.00    +0.002 A 
ATOM     34  C8  <0> A   1     -17.677   7.677  49.913  0.00  0.00    -0.091 A 
ATOM     35  C9  <0> A   1     -17.636   8.790  50.732  0.00  0.00    +0.059 A 
ATOM     36  C10 <0> A   1     -18.809   9.326  51.230  0.00  0.00    -0.007 A 
BRANCH  31  38
ATOM     37  C1  <0> A   1     -20.971  10.354  52.544  0.00  0.00    +0.030 C 
ATOM     38  C2  <0> A   1     -21.301   9.325  51.461  0.00  0.00    -0.029 C 
ATOM     39  C3  <0> A   1     -22.155   8.207  52.061  0.00  0.00    +0.030 C 
ATOM     40  C4  <0> A   1     -22.075  10.006  50.330  0.00  0.00    +0.028 C 
ENDBRANCH  31  38
ENDBRANCH  30  34
ENDBRANCH   1  30
TORSDOF 12
ENDMDL
MODEL 7
REMARK VINA RESULT:      -8.1     15.883     19.212
REMARK  Name = CHEMBL123826
REMARK  15 active torsions:
REMARK  status: ('A' for Active; 'I' for Inactive)
REMARK    1  A    between atoms: C1_1  and  C2_2
REMARK    2  A    between atoms: C2_2  and  C3_3
REMARK    3  A    between atoms: C2_2  and  C4_4
REMARK    4  A    between atoms: C2_2  and  C5_5
REMARK    5  A    between atoms: C8_8  and  C11_11
REMARK    6  A    between atoms: C11_11  and  C12_12
REMARK    7  A    between atoms: N2_19  and  C26_34
REMARK    8  A    between atoms: C18_20  and  C19_21
REMARK    9  A    between atoms: C20_22  and  C21_23
REMARK   10  A    between atoms: C21_23  and  C22_25
REMARK   11  A    between atoms: C21_23  and  O4_33
REMARK   12  A    between atoms: C22_25  and  C23_26
REMARK   13  A    between atoms: C23_26  and  C24_28
REMARK   14  A    between atoms: C23_26  and  O3_32
REMARK   15  A    between atoms: C24_28  and  C25_29
REMARK                            x       y       z     vdW  Elec       q    Type
REMARK                         _______ _______ _______ _____ _____    ______ ____
ROOT
ATOM      1  C12 <0> A   1     -24.642  -1.522  51.347  0.00  0.00    +0.091 C 
ATOM      2  C13 <0> A   1     -23.158  -1.826  51.107  0.00  0.00    +0.028 C 
ATOM      3  C14 <0> A   1     -22.754  -3.080  51.884  0.00  0.00    +0.016 C 
ATOM      4  C15 <0> A   1     -23.378  -4.318  51.227  0.00  0.00    +0.103 C 
ATOM      5  C16 <0> A   1     -24.850  -4.057  51.034  0.00  0.00    -0.211 C 
ATOM      6  C17 <0> A   1     -25.431  -2.783  51.089  0.00  0.00    +0.089 C 
ATOM      7  N1  <0> A   1     -26.713  -2.900  50.884  0.00  0.00    -0.260 NA
ATOM      8  N2  <0> A   1     -27.017  -4.255  50.687  0.00  0.00    -0.331 N 
ATOM      9  C18 <0> A   1     -25.849  -4.964  50.781  0.00  0.00    +0.123 C 
ENDROOT
BRANCH   8  10
ATOM     10  C26 <0> A   1     -28.288  -4.788  50.436  0.00  0.00    +0.150 A 
ATOM     11  C27 <0> A   1     -28.788  -4.816  49.141  0.00  0.00    +0.047 A 
ATOM     12  C28 <0> A   1     -30.040  -5.342  48.896  0.00  0.00    +0.016 A 
ATOM     13  C29 <0> A   1     -30.798  -5.843  49.941  0.00  0.00    +0.097 A 
ATOM     14  C30 <0> A   1     -30.303  -5.816  51.234  0.00  0.00    +0.006 A 
ATOM     15  C31 <0> A   1     -29.047  -5.295  51.482  0.00  0.00    +0.057 A 
ATOM     16  F1  <0> A   1     -32.023  -6.358  49.699  0.00  0.00    -0.135 F 
ENDBRANCH   8  10
BRANCH   9  17
ATOM     17  C19 <0> A   1     -25.694  -6.422  50.640  0.00  0.00    +0.027 C 
ATOM     18  C20 <0> A   1     -25.551  -6.961  49.434  0.00  0.00    -0.028 C 
BRANCH  18  19
ATOM     19  C21 <0> A   1     -25.392  -8.453  49.291  0.00  0.00    +0.254 C 
BRANCH  19  20
ATOM     20  O4  <0> A   1     -25.562  -8.821  47.921  0.00  0.00    -0.537 OA
ATOM     21  H32 <0> A   1     -25.350  -8.115  47.295  0.00  0.00    +0.368 HD
ENDBRANCH  19  20
BRANCH  19  22
ATOM     22  C22 <0> A   1     -23.995  -8.864  49.761  0.00  0.00    -0.040 C 
BRANCH  22  23
ATOM     23  C23 <0> A   1     -24.046 -10.282  50.331  0.00  0.00    +0.232 C 
BRANCH  23  24
ATOM     24  O3  <0> A   1     -25.394 -10.611  50.673  0.00  0.00    -0.528 OA
ATOM     25  H31 <0> A   1     -25.851 -11.142  50.005  0.00  0.00    +0.351 HD
ENDBRANCH  23  24
BRANCH  23  26
ATOM     26  C24 <0> A   1     -23.530 -11.272  49.285  0.00  0.00    -0.102 C 
BRANCH  26  27
ATOM     27  C25 <0> A   1     -24.657 -12.167  48.840  0.00  0.00    +0.491 C 
ATOM     28  O1  <0> A   1     -24.884 -13.205  49.437  0.00  0.00    -0.681 OA
ATOM     29  O2  <0> A   1     -25.343 -11.853  47.881  0.00  0.00    -0.713 OA
ENDBRANCH  26  27
ENDBRANCH  23  26
ENDBRANCH  22  23
ENDBRANCH  19  22
ENDBRANCH  18  19
ENDBRANCH   9  17
BRANCH   1  30
ATOM     30  C11 <0> A   1     -25.104  -0.420  50.392  0.00  0.00    +0.079 C 
BRANCH  30  34
ATOM     31  C5  <0> A   1     -28.530   1.536  52.031  0.00  0.00    -0.070 A 
ATOM     32  C6  <0> A   1     -28.414   1.376  50.663  0.00  0.00    -0.011 A 
ATOM     33  C7  <0> A   1     -27.305   0.743  50.132  0.00  0.00    +0.002 A 
ATOM     34  C8  <0> A   1     -26.312   0.271  50.970  0.00  0.00    -0.091 A 
ATOM     35  C9  <0> A   1     -26.428   0.431  52.338  0.00  0.00    +0.059 A 
ATOM     36  C10 <0> A   1     -27.535   1.067  52.868  0.00  0.00    -0.007 A 
BRANCH  31  38
ATOM     37  C1  <0> A   1     -30.990   1.788  51.845  0.00  0.00    +0.030 C 
ATOM     38  C2  <0> A   1     -29.739   2.225  52.609  0.00  0.00    -0.029 C 
ATOM     39  C3  <0> A   1     -29.569   3.741  52.487  0.00  0.00    +0.030 C 
ATOM     40  C4  <0> A   1     -29.884   1.846  54.084  0.00  0.00    +0.028 C 
ENDBRANCH  31  38
ENDBRANCH  30  34
ENDBRANCH   1  30
TORSDOF 12
ENDMDL
MODEL 8
REMARK VINA RESULT:      -8.1     14.744     21.079
REMARK  Name = CHEMBL123826
REMARK  15 active torsions:
REMARK  status: ('A' for Active; 'I' for Inactive)
REMARK    1  A    between atoms: C1_1  and  C2_2
REMARK    2  A    between atoms: C2_2  and  C3_3
REMARK    3  A    between atoms: C2_2  and  C4_4
REMARK    4  A    between atoms: C2_2  and  C5_5
REMARK    5  A    between atoms: C8_8  and  C11_11
REMARK    6  A    between atoms: C11_11  and  C12_12
REMARK    7  A    between atoms: N2_19  and  C26_34
REMARK    8  A    between atoms: C18_20  and  C19_21
REMARK    9  A    between atoms: C20_22  and  C21_23
REMARK   10  A    between atoms: C21_23  and  C22_25
REMARK   11  A    between atoms: C21_23  and  O4_33
REMARK   12  A    between atoms: C22_25  and  C23_26
REMARK   13  A    between atoms: C23_26  and  C24_28
REMARK   14  A    between atoms: C23_26  and  O3_32
REMARK   15  A    between atoms: C24_28  and  C25_29
REMARK                            x       y       z     vdW  Elec       q    Type
REMARK                         _______ _______ _______ _____ _____    ______ ____
ROOT
ATOM      1  C12 <0> A   1     -25.144  -3.762  50.858  0.00  0.00    +0.091 C 
ATOM      2  C13 <0> A   1     -26.001  -3.204  52.001  0.00  0.00    +0.028 C 
ATOM      3  C14 <0> A   1     -27.465  -3.591  51.787  0.00  0.00    +0.016 C 
ATOM      4  C15 <0> A   1     -27.645  -5.093  52.043  0.00  0.00    +0.103 C 
ATOM      5  C16 <0> A   1     -26.601  -5.835  51.248  0.00  0.00    -0.211 C 
ATOM      6  C17 <0> A   1     -25.459  -5.231  50.704  0.00  0.00    +0.089 C 
ATOM      7  N1  <0> A   1     -24.766  -6.139  50.077  0.00  0.00    -0.260 NA
ATOM      8  N2  <0> A   1     -25.429  -7.370  50.189  0.00  0.00    -0.331 N 
ATOM      9  C18 <0> A   1     -26.568  -7.167  50.921  0.00  0.00    +0.123 C 
ENDROOT
BRANCH   8  10
ATOM     10  C26 <0> A   1     -25.000  -8.590  49.650  0.00  0.00    +0.150 A 
ATOM     11  C27 <0> A   1     -25.427  -8.982  48.389  0.00  0.00    +0.047 A 
ATOM     12  C28 <0> A   1     -25.003 -10.184  47.860  0.00  0.00    +0.016 A 
ATOM     13  C29 <0> A   1     -24.150 -10.999  48.586  0.00  0.00    +0.097 A 
ATOM     14  C30 <0> A   1     -23.722 -10.611  49.844  0.00  0.00    +0.006 A 
ATOM     15  C31 <0> A   1     -24.140  -9.406  50.375  0.00  0.00    +0.057 A 
ATOM     16  F1  <0> A   1     -23.736 -12.175  48.066  0.00  0.00    -0.135 F 
ENDBRANCH   8  10
BRANCH   9  17
ATOM     17  C19 <0> A   1     -27.569  -8.184  51.286  0.00  0.00    +0.027 C 
ATOM     18  C20 <0> A   1     -28.702  -8.277  50.599  0.00  0.00    -0.028 C 
BRANCH  18  19
ATOM     19  C21 <0> A   1     -29.725  -9.318  50.973  0.00  0.00    +0.254 C 
BRANCH  19  20
ATOM     20  O4  <0> A   1     -29.180 -10.621  50.757  0.00  0.00    -0.537 OA
ATOM     21  H32 <0> A   1     -29.055 -11.134  51.568  0.00  0.00    +0.368 HD
ENDBRANCH  19  20
BRANCH  19  22
ATOM     22  C22 <0> A   1     -30.099  -9.159  52.449  0.00  0.00    -0.040 C 
BRANCH  22  23
ATOM     23  C23 <0> A   1     -31.324 -10.021  52.760  0.00  0.00    +0.232 C 
BRANCH  23  24
ATOM     24  O3  <0> A   1     -31.782 -10.649  51.561  0.00  0.00    -0.528 OA
ATOM     25  H31 <0> A   1     -32.037 -10.029  50.864  0.00  0.00    +0.351 HD
ENDBRANCH  23  24
BRANCH  23  26
ATOM     26  C24 <0> A   1     -30.946 -11.092  53.785  0.00  0.00    -0.102 C 
BRANCH  26  27
ATOM     27  C25 <0> A   1     -30.942 -12.445  53.120  0.00  0.00    +0.491 C 
ATOM     28  O1  <0> A   1     -30.004 -12.774  52.413  0.00  0.00    -0.681 OA
ATOM     29  O2  <0> A   1     -31.875 -13.211  53.290  0.00  0.00    -0.713 OA
ENDBRANCH  26  27
ENDBRANCH  23  26
ENDBRANCH  22  23
ENDBRANCH  19  22
ENDBRANCH  18  19
ENDBRANCH   9  17
BRANCH   1  30
ATOM     30  C11 <0> A   1     -23.661  -3.585  51.190  0.00  0.00    +0.079 C 
BRANCH  30  34
ATOM     31  C5  <0> A   1     -22.790   0.572  51.650  0.00  0.00    -0.070 A 
ATOM     32  C6  <0> A   1     -22.278  -0.344  52.548  0.00  0.00    -0.011 A 
ATOM     33  C7  <0> A   1     -22.560  -1.690  52.400  0.00  0.00    +0.002 A 
ATOM     34  C8  <0> A   1     -23.355  -2.118  51.353  0.00  0.00    -0.091 A 
ATOM     35  C9  <0> A   1     -23.868  -1.201  50.455  0.00  0.00    +0.059 A 
ATOM     36  C10 <0> A   1     -23.589   0.145  50.605  0.00  0.00    -0.007 A 
BRANCH  31  38
ATOM     37  C1  <0> A   1     -21.391   2.217  52.868  0.00  0.00    +0.030 C 
ATOM     38  C2  <0> A   1     -22.483   2.038  51.811  0.00  0.00    -0.029 C 
ATOM     39  C3  <0> A   1     -23.747   2.780  52.253  0.00  0.00    +0.030 C 
ATOM     40  C4  <0> A   1     -21.999   2.608  50.476  0.00  0.00    +0.028 C 
ENDBRANCH  31  38
ENDBRANCH  30  34
ENDBRANCH   1  30
TORSDOF 12
ENDMDL
MODEL 9
REMARK VINA RESULT:      -8.1     16.566     20.369
REMARK  Name = CHEMBL123826
REMARK  15 active torsions:
REMARK  status: ('A' for Active; 'I' for Inactive)
REMARK    1  A    between atoms: C1_1  and  C2_2
REMARK    2  A    between atoms: C2_2  and  C3_3
REMARK    3  A    between atoms: C2_2  and  C4_4
REMARK    4  A    between atoms: C2_2  and  C5_5
REMARK    5  A    between atoms: C8_8  and  C11_11
REMARK    6  A    between atoms: C11_11  and  C12_12
REMARK    7  A    between atoms: N2_19  and  C26_34
REMARK    8  A    between atoms: C18_20  and  C19_21
REMARK    9  A    between atoms: C20_22  and  C21_23
REMARK   10  A    between atoms: C21_23  and  C22_25
REMARK   11  A    between atoms: C21_23  and  O4_33
REMARK   12  A    between atoms: C22_25  and  C23_26
REMARK   13  A    between atoms: C23_26  and  C24_28
REMARK   14  A    between atoms: C23_26  and  O3_32
REMARK   15  A    between atoms: C24_28  and  C25_29
REMARK                            x       y       z     vdW  Elec       q    Type
REMARK                         _______ _______ _______ _____ _____    ______ ____
ROOT
ATOM      1  C12 <0> A   1     -24.594  -5.809  51.193  0.00  0.00    +0.091 C 
ATOM      2  C13 <0> A   1     -23.705  -4.566  51.326  0.00  0.00    +0.028 C 
ATOM      3  C14 <0> A   1     -24.408  -3.357  50.707  0.00  0.00    +0.016 C 
ATOM      4  C15 <0> A   1     -25.580  -2.928  51.599  0.00  0.00    +0.103 C 
ATOM      5  C16 <0> A   1     -26.415  -4.148  51.898  0.00  0.00    -0.211 C 
ATOM      6  C17 <0> A   1     -25.969  -5.463  51.713  0.00  0.00    +0.089 C 
ATOM      7  N1  <0> A   1     -26.925  -6.280  52.059  0.00  0.00    -0.260 NA
ATOM      8  N2  <0> A   1     -28.029  -5.527  52.484  0.00  0.00    -0.331 N 
ATOM      9  C18 <0> A   1     -27.698  -4.203  52.381  0.00  0.00    +0.123 C 
ENDROOT
BRANCH   8  10
ATOM     10  C26 <0> A   1     -29.252  -6.040  52.937  0.00  0.00    +0.150 A 
ATOM     11  C27 <0> A   1     -29.437  -6.307  54.287  0.00  0.00    +0.047 A 
ATOM     12  C28 <0> A   1     -30.643  -6.811  54.731  0.00  0.00    +0.016 A 
ATOM     13  C29 <0> A   1     -31.669  -7.050  53.831  0.00  0.00    +0.097 A 
ATOM     14  C30 <0> A   1     -31.486  -6.784  52.484  0.00  0.00    +0.006 A 
ATOM     15  C31 <0> A   1     -30.283  -6.275  52.037  0.00  0.00    +0.057 A 
ATOM     16  F1  <0> A   1     -32.848  -7.543  54.268  0.00  0.00    -0.135 F 
ENDBRANCH   8  10
BRANCH   9  17
ATOM     17  C19 <0> A   1     -28.557  -3.055  52.720  0.00  0.00    +0.027 C 
ATOM     18  C20 <0> A   1     -29.252  -2.442  51.769  0.00  0.00    -0.028 C 
BRANCH  18  19
ATOM     19  C21 <0> A   1     -30.131  -1.268  52.118  0.00  0.00    +0.254 C 
BRANCH  19  20
ATOM     20  O4  <0> A   1     -31.474  -1.717  52.304  0.00  0.00    -0.537 OA
ATOM     21  H32 <0> A   1     -31.753  -2.396  51.675  0.00  0.00    +0.368 HD
ENDBRANCH  19  20
BRANCH  19  22
ATOM     22  C22 <0> A   1     -29.625  -0.618  53.408  0.00  0.00    -0.040 C 
BRANCH  22  23
ATOM     23  C23 <0> A   1     -28.910   0.691  53.072  0.00  0.00    +0.232 C 
BRANCH  23  24
ATOM     24  O3  <0> A   1     -27.498   0.474  53.058  0.00  0.00    -0.528 OA
ATOM     25  H31 <0> A   1     -27.178   0.017  52.267  0.00  0.00    +0.351 HD
ENDBRANCH  23  24
BRANCH  23  26
ATOM     26  C24 <0> A   1     -29.364   1.182  51.695  0.00  0.00    -0.102 C 
BRANCH  26  27
ATOM     27  C25 <0> A   1     -28.175   1.707  50.932  0.00  0.00    +0.491 C 
ATOM     28  O1  <0> A   1     -27.738   2.819  51.173  0.00  0.00    -0.681 OA
ATOM     29  O2  <0> A   1     -27.651   1.019  50.072  0.00  0.00    -0.713 OA
ENDBRANCH  26  27
ENDBRANCH  23  26
ENDBRANCH  22  23
ENDBRANCH  19  22
ENDBRANCH  18  19
ENDBRANCH   9  17
BRANCH   1  30
ATOM     30  C11 <0> A   1     -24.005  -6.956  52.016  0.00  0.00    +0.079 C 
BRANCH  30  34
ATOM     31  C5  <0> A   1     -24.109 -10.554  49.715  0.00  0.00    -0.070 A 
ATOM     32  C6  <0> A   1     -23.973 -10.616  51.088  0.00  0.00    -0.011 A 
ATOM     33  C7  <0> A   1     -23.939  -9.451  51.834  0.00  0.00    +0.002 A 
ATOM     34  C8  <0> A   1     -24.040  -8.225  51.204  0.00  0.00    -0.091 A 
ATOM     35  C9  <0> A   1     -24.176  -8.163  49.830  0.00  0.00    +0.059 A 
ATOM     36  C10 <0> A   1     -24.206  -9.327  49.084  0.00  0.00    -0.007 A 
BRANCH  31  38
ATOM     37  C1  <0> A   1     -24.972 -11.593  47.636  0.00  0.00    +0.030 C 
ATOM     38  C2  <0> A   1     -24.146 -11.823  48.903  0.00  0.00    -0.029 C 
ATOM     39  C3  <0> A   1     -24.782 -12.941  49.732  0.00  0.00    +0.030 C 
ATOM     40  C4  <0> A   1     -22.720 -12.222  48.518  0.00  0.00    +0.028 C 
ENDBRANCH  31  38
ENDBRANCH  30  34
ENDBRANCH   1  30
TORSDOF 12
ENDMDL
MODEL 10
REMARK VINA RESULT:      -8.0     15.086     21.286
REMARK  Name = CHEMBL123826
REMARK  15 active torsions:
REMARK  status: ('A' for Active; 'I' for Inactive)
REMARK    1  A    between atoms: C1_1  and  C2_2
REMARK    2  A    between atoms: C2_2  and  C3_3
REMARK    3  A    between atoms: C2_2  and  C4_4
REMARK    4  A    between atoms: C2_2  and  C5_5
REMARK    5  A    between atoms: C8_8  and  C11_11
REMARK    6  A    between atoms: C11_11  and  C12_12
REMARK    7  A    between atoms: N2_19  and  C26_34
REMARK    8  A    between atoms: C18_20  and  C19_21
REMARK    9  A    between atoms: C20_22  and  C21_23
REMARK   10  A    between atoms: C21_23  and  C22_25
REMARK   11  A    between atoms: C21_23  and  O4_33
REMARK   12  A    between atoms: C22_25  and  C23_26
REMARK   13  A    between atoms: C23_26  and  C24_28
REMARK   14  A    between atoms: C23_26  and  O3_32
REMARK   15  A    between atoms: C24_28  and  C25_29
REMARK                            x       y       z     vdW  Elec       q    Type
REMARK                         _______ _______ _______ _____ _____    ______ ____
ROOT
ATOM      1  C12 <0> A   1     -25.893  -4.303  50.832  0.00  0.00    +0.091 C 
ATOM      2  C13 <0> A   1     -26.891  -3.769  51.866  0.00  0.00    +0.028 C 
ATOM      3  C14 <0> A   1     -28.308  -4.214  51.497  0.00  0.00    +0.016 C 
ATOM      4  C15 <0> A   1     -28.459  -5.719  51.753  0.00  0.00    +0.103 C 
ATOM      5  C16 <0> A   1     -27.306  -6.427  51.088  0.00  0.00    -0.211 C 
ATOM      6  C17 <0> A   1     -26.134  -5.785  50.665  0.00  0.00    +0.089 C 
ATOM      7  N1  <0> A   1     -25.342  -6.672  50.131  0.00  0.00    -0.260 NA
ATOM      8  N2  <0> A   1     -25.967  -7.926  50.186  0.00  0.00    -0.331 N 
ATOM      9  C18 <0> A   1     -27.187  -7.760  50.785  0.00  0.00    +0.123 C 
ENDROOT
BRANCH   8  10
ATOM     10  C26 <0> A   1     -25.436  -9.134  49.715  0.00  0.00    +0.150 A 
ATOM     11  C27 <0> A   1     -25.578  -9.482  48.379  0.00  0.00    +0.047 A 
ATOM     12  C28 <0> A   1     -25.052 -10.672  47.916  0.00  0.00    +0.016 A 
ATOM     13  C29 <0> A   1     -24.383 -11.519  48.785  0.00  0.00    +0.097 A 
ATOM     14  C30 <0> A   1     -24.240 -11.174  50.118  0.00  0.00    +0.006 A 
ATOM     15  C31 <0> A   1     -24.759  -9.981  50.584  0.00  0.00    +0.057 A 
ATOM     16  F1  <0> A   1     -23.870 -12.683  48.331  0.00  0.00    -0.135 F 
ENDBRANCH   8  10
BRANCH   9  17
ATOM     17  C19 <0> A   1     -28.183  -8.812  51.052  0.00  0.00    +0.027 C 
ATOM     18  C20 <0> A   1     -29.362  -8.780  50.442  0.00  0.00    -0.028 C 
BRANCH  18  19
ATOM     19  C21 <0> A   1     -30.381  -9.857  50.715  0.00  0.00    +0.254 C 
BRANCH  19  20
ATOM     20  O4  <0> A   1     -30.312 -10.849  49.689  0.00  0.00    -0.537 OA
ATOM     21  H32 <0> A   1     -30.457 -10.504  48.797  0.00  0.00    +0.368 HD
ENDBRANCH  19  20
BRANCH  19  22
ATOM     22  C22 <0> A   1     -30.088 -10.503  52.071  0.00  0.00    -0.040 C 
BRANCH  22  23
ATOM     23  C23 <0> A   1     -31.366 -10.528  52.910  0.00  0.00    +0.232 C 
BRANCH  23  24
ATOM     24  O3  <0> A   1     -31.252 -11.526  53.926  0.00  0.00    -0.528 OA
ATOM     25  H31 <0> A   1     -30.761 -12.313  53.651  0.00  0.00    +0.351 HD
ENDBRANCH  23  24
BRANCH  23  26
ATOM     26  C24 <0> A   1     -31.575  -9.159  53.561  0.00  0.00    -0.102 C 
BRANCH  26  27
ATOM     27  C25 <0> A   1     -30.423  -8.860  54.484  0.00  0.00    +0.491 C 
ATOM     28  O1  <0> A   1     -29.676  -7.926  54.244  0.00  0.00    -0.681 OA
ATOM     29  O2  <0> A   1     -30.236  -9.551  55.471  0.00  0.00    -0.713 OA
ENDBRANCH  26  27
ENDBRANCH  23  26
ENDBRANCH  22  23
ENDBRANCH  19  22
ENDBRANCH  18  19
ENDBRANCH   9  17
BRANCH   1  30
ATOM     30  C11 <0> A   1     -24.464  -4.065  51.322  0.00  0.00    +0.079 C 
BRANCH  30  34
ATOM     31  C5  <0> A   1     -23.822   0.125  51.851  0.00  0.00    -0.070 A 
ATOM     32  C6  <0> A   1     -24.210  -0.365  50.619  0.00  0.00    -0.011 A 
ATOM     33  C7  <0> A   1     -24.418  -1.721  50.447  0.00  0.00    +0.002 A 
ATOM     34  C8  <0> A   1     -24.237  -2.587  51.508  0.00  0.00    -0.091 A 
ATOM     35  C9  <0> A   1     -23.848  -2.098  52.741  0.00  0.00    +0.059 A 
ATOM     36  C10 <0> A   1     -23.637  -0.742  52.912  0.00  0.00    -0.007 A 
BRANCH  31  38
ATOM     37  C1  <0> A   1     -22.913   1.847  53.385  0.00  0.00    +0.030 C 
ATOM     38  C2  <0> A   1     -23.596   1.603  52.038  0.00  0.00    -0.029 C 
ATOM     39  C3  <0> A   1     -24.941   2.333  52.007  0.00  0.00    +0.030 C 
ATOM     40  C4  <0> A   1     -22.705   2.128  50.911  0.00  0.00    +0.028 C 
ENDBRANCH  31  38
ENDBRANCH  30  34
ENDBRANCH   1  30
TORSDOF 12
ENDMDL
