REMARK VINA RESULT:      -7.7     23.523     27.534
REMARK  Name = CHEMBL250180
REMARK  17 active torsions:
REMARK  status: ('A' for Active; 'I' for Inactive)
REMARK    1  A    between atoms: C1_1  and  C2_2
REMARK    2  A    between atoms: C2_2  and  C3_3
REMARK    3  A    between atoms: C2_2  and  C4_4
REMARK    4  A    between atoms: C5_5  and  C19_29
REMARK    5  A    between atoms: N2_7  and  C13_22
REMARK    6  A    between atoms: C6_8  and  O1_9
REMARK    7  A    between atoms: O1_9  and  C7_10
REMARK    8  A    between atoms: C7_10  and  C8_11
REMARK    9  A    between atoms: C8_11  and  C9_13
REMARK   10  A    between atoms: C8_11  and  O5_21
REMARK   11  A    between atoms: C9_13  and  C10_14
REMARK   12  A    between atoms: C10_14  and  C11_16
REMARK   13  A    between atoms: C10_14  and  O4_20
REMARK   14  A    between atoms: C11_16  and  C12_17
REMARK   15  A    between atoms: N3_31  and  C20_32
REMARK   16  A    between atoms: C20_32  and  C21_33
REMARK   17  A    between atoms: C21_33  and  C22_34
REMARK                            x       y       z     vdW  Elec       q    Type
REMARK                         _______ _______ _______ _____ _____    ______ ____
ROOT
ATOM      1  C4  <0> A   1       4.781  21.251  33.698  0.00  0.00    -0.161 C 
ATOM      2  C5  <0> A   1       4.434  20.895  32.377  0.00  0.00    +0.044 C 
ATOM      3  N1  <0> A   1       3.693  21.862  31.872  0.00  0.00    -0.238 NA
ATOM      4  N2  <0> A   1       3.547  22.857  32.849  0.00  0.00    -0.318 N 
ATOM      5  C6  <0> A   1       4.220  22.455  33.963  0.00  0.00    +0.260 C 
ENDROOT
BRANCH   4   6
ATOM      6  C13 <0> A   1       2.829  24.051  32.706  0.00  0.00    +0.126 A 
ATOM      7  C14 <0> A   1       1.690  24.273  33.469  0.00  0.00    +0.064 A 
ATOM      8  C15 <0> A   1       0.983  25.450  33.327  0.00  0.00    +0.005 A 
ATOM      9  C16 <0> A   1       1.409  26.410  32.423  0.00  0.00    +0.106 A 
ATOM     10  C17 <0> A   1       2.545  26.190  31.660  0.00  0.00    +0.020 A 
ATOM     11  C18 <0> A   1       3.257  25.016  31.805  0.00  0.00    +0.073 A 
ATOM     12  F1  <0> A   1       0.716  27.562  32.284  0.00  0.00    -0.133 F 
ENDBRANCH   4   6
BRANCH   2  13
ATOM     13  C19 <0> A   1       4.832  19.654  31.681  0.00  0.00    +0.605 C 
ATOM     14  O6  <0> A   1       5.653  19.697  30.784  0.00  0.00    -0.514 OA
ATOM     15  N3  <0> A   1       4.285  18.476  32.037  0.00  0.00    -0.718 N 
ATOM     16  H22 <0> A   1       3.629  18.442  32.751  0.00  0.00    +0.408 HD
BRANCH  15  17
ATOM     17  C20 <0> A   1       4.678  17.246  31.347  0.00  0.00    +0.273 C 
BRANCH  17  18
ATOM     18  C21 <0> A   1       3.742  17.003  30.161  0.00  0.00    +0.070 C 
BRANCH  18  19
ATOM     19  C22 <0> A   1       4.476  16.242  29.088  0.00  0.00    -0.083 A 
ATOM     20  C23 <0> A   1       5.715  15.690  29.356  0.00  0.00    +0.009 A 
ATOM     21  C24 <0> A   1       6.388  14.993  28.371  0.00  0.00    +0.004 A 
ATOM     22  C25 <0> A   1       5.823  14.846  27.117  0.00  0.00    -0.000 A 
ATOM     23  C26 <0> A   1       4.584  15.397  26.850  0.00  0.00    +0.004 A 
ATOM     24  C27 <0> A   1       3.908  16.090  27.837  0.00  0.00    +0.009 A 
ENDBRANCH  18  19
ENDBRANCH  17  18
ENDBRANCH  15  17
ENDBRANCH   2  13
BRANCH   1  26
ATOM     25  C1  <0> A   1       6.656  21.338  35.317  0.00  0.00    +0.029 C 
ATOM     26  C2  <0> A   1       5.621  20.434  34.646  0.00  0.00    +0.077 C 
ATOM     27  C3  <0> A   1       4.721  19.810  35.715  0.00  0.00    +0.021 C 
ENDBRANCH   1  26
BRANCH   5  28
ATOM     28  O1  <0> A   1       4.313  23.143  35.131  0.00  0.00    -0.282 OA
BRANCH  28  29
ATOM     29  C7  <0> A   1       3.710  22.551  36.282  0.00  0.00    +0.155 C 
BRANCH  29  30
ATOM     30  C8  <0> A   1       3.226  23.652  37.227  0.00  0.00    +0.232 C 
BRANCH  30  31
ATOM     31  O5  <0> A   1       4.132  24.756  37.175  0.00  0.00    -0.529 OA
ATOM     32  H17 <0> A   1       3.907  25.478  37.778  0.00  0.00    +0.363 HD
ENDBRANCH  30  31
BRANCH  30  33
ATOM     33  C9  <0> A   1       1.832  24.116  36.799  0.00  0.00    -0.040 C 
BRANCH  33  34
ATOM     34  C10 <0> A   1       0.873  22.924  36.810  0.00  0.00    +0.237 C 
BRANCH  34  35
ATOM     35  O4  <0> A   1       0.627  22.524  38.160  0.00  0.00    -0.526 OA
ATOM     36  H16 <0> A   1       0.918  21.625  38.363  0.00  0.00    +0.350 HD
ENDBRANCH  34  35
BRANCH  34  37
ATOM     37  C11 <0> A   1      -0.448  23.326  36.150  0.00  0.00    -0.101 C 
BRANCH  37  38
ATOM     38  C12 <0> A   1      -1.276  22.094  35.892  0.00  0.00    +0.491 C 
ATOM     39  O2  <0> A   1      -1.674  21.420  36.827  0.00  0.00    -0.680 OA
ATOM     40  O3  <0> A   1      -1.549  21.771  34.749  0.00  0.00    -0.712 OA
ENDBRANCH  37  38
ENDBRANCH  34  37
ENDBRANCH  33  34
ENDBRANCH  30  33
ENDBRANCH  29  30
ENDBRANCH  28  29
ENDBRANCH   5  28
TORSDOF 15
