REMARK VINA RESULT:      -7.7      2.084      3.440
REMARK  Name = CHEMBL168307
REMARK  4 active torsions:
REMARK  status: ('A' for Active; 'I' for Inactive)
REMARK    1  A    between atoms: C1_1  and  C2_2
REMARK    2  A    between atoms: C4_4  and  C21_25
REMARK    3  A    between atoms: C15_15  and  C16_16
REMARK    4  A    between atoms: C18_18  and  O3_24
REMARK                            x       y       z     vdW  Elec       q    Type
REMARK                         _______ _______ _______ _____ _____    ______ ____
ROOT
ATOM      1  C1  <0> A   1     -31.665  -4.417  54.574  0.00  0.00    +0.095 C 
ATOM      2  C2  <0> A   1     -30.535  -5.001  53.766  0.00  0.00    -0.072 A 
ATOM      3  C3  <0> A   1     -30.587  -6.327  53.370  0.00  0.00    +0.012 A 
ATOM      4  C4  <0> A   1     -29.559  -6.875  52.630  0.00  0.00    -0.048 A 
ATOM      5  C5  <0> A   1     -28.463  -6.092  52.280  0.00  0.00    -0.075 A 
ATOM      6  C6  <0> A   1     -28.407  -4.748  52.680  0.00  0.00    -0.039 A 
ATOM      7  C7  <0> A   1     -29.458  -4.210  53.423  0.00  0.00    +0.025 A 
ATOM      8  C8  <0> A   1     -27.148  -4.154  52.179  0.00  0.00    -0.048 A 
ATOM      9  C9  <0> A   1     -26.612  -2.873  52.297  0.00  0.00    +0.032 A 
ATOM     10  C10 <0> A   1     -25.393  -2.579  51.722  0.00  0.00    +0.018 A 
ATOM     11  C11 <0> A   1     -24.692  -3.550  51.026  0.00  0.00    +0.020 A 
ATOM     12  C12 <0> A   1     -25.207  -4.826  50.900  0.00  0.00    +0.039 A 
ATOM     13  C13 <0> A   1     -26.436  -5.137  51.474  0.00  0.00    -0.073 A 
ATOM     14  C14 <0> A   1     -27.231  -6.386  51.510  0.00  0.00    -0.015 C 
ATOM     15  C15 <0> A   1     -26.900  -7.560  50.952  0.00  0.00    +0.030 C 
ATOM     16  C21 <0> A   1     -29.622  -8.318  52.202  0.00  0.00    +0.096 C 
ENDROOT
BRANCH  15  17
ATOM     17  C16 <0> A   1     -25.490  -7.799  50.481  0.00  0.00    +0.233 C 
ATOM     18  C17 <0> A   1     -25.516  -8.549  49.146  0.00  0.00    +0.049 C 
ATOM     19  C18 <0> A   1     -24.079  -8.827  48.692  0.00  0.00    +0.189 C 
ATOM     20  C19 <0> A   1     -23.374  -9.670  49.761  0.00  0.00    +0.026 C 
ATOM     21  C20 <0> A   1     -23.549  -8.983  51.098  0.00  0.00    +0.496 C 
ATOM     22  O1  <0> A   1     -22.604  -8.797  51.828  0.00  0.00    -0.449 OA
ATOM     23  O2  <0> A   1     -24.788  -8.584  51.451  0.00  0.00    -0.365 OA
BRANCH  19  24
ATOM     24  O3  <0> A   1     -23.385  -7.590  48.518  0.00  0.00    -0.565 OA
ATOM     25  H17 <0> A   1     -22.676  -7.626  47.861  0.00  0.00    +0.388 HD
ENDBRANCH  19  24
ENDBRANCH  15  17
TORSDOF 2
