REMARK VINA RESULT:      -7.5      3.171      5.567
REMARK  Name = CHEMBL401949
REMARK  16 active torsions:
REMARK  status: ('A' for Active; 'I' for Inactive)
REMARK    1  A    between atoms: C1_1  and  C2_2
REMARK    2  A    between atoms: C2_2  and  C3_3
REMARK    3  A    between atoms: C2_2  and  C4_4
REMARK    4  A    between atoms: C5_5  and  S1_35
REMARK    5  A    between atoms: C6_6  and  C21_29
REMARK    6  A    between atoms: C7_7  and  C15_22
REMARK    7  A    between atoms: N1_8  and  C8_9
REMARK    8  A    between atoms: C8_9  and  C9_10
REMARK    9  A    between atoms: C9_10  and  C10_11
REMARK   10  A    between atoms: C10_11  and  C11_13
REMARK   11  A    between atoms: C10_11  and  O4_21
REMARK   12  A    between atoms: C11_13  and  C12_14
REMARK   13  A    between atoms: C12_14  and  C13_16
REMARK   14  A    between atoms: C12_14  and  O3_20
REMARK   15  A    between atoms: C13_16  and  C14_17
REMARK   16  A    between atoms: S1_35  and  N2_38
REMARK                            x       y       z     vdW  Elec       q    Type
REMARK                         _______ _______ _______ _____ _____    ______ ____
ROOT
ATOM      1  C4  <0> A   1     -13.487  10.130  46.254  0.00  0.00    +0.174 C 
ATOM      2  C5  <0> A   1     -13.951   9.918  47.501  0.00  0.00    -0.733 C 
ATOM      3  C6  <0> A   1     -14.580   8.651  47.515  0.00  0.00    -0.027 C 
ATOM      4  C7  <0> A   1     -14.466   8.131  46.237  0.00  0.00    +0.063 C 
ATOM      5  N1  <0> A   1     -13.797   9.053  45.474  0.00  0.00    -0.415 N 
ENDROOT
BRANCH   4   6
ATOM      6  C15 <0> A   1     -14.976   6.824  45.777  0.00  0.00    -0.029 A 
ATOM      7  C16 <0> A   1     -14.188   5.678  45.911  0.00  0.00    +0.046 A 
ATOM      8  C17 <0> A   1     -14.671   4.459  45.480  0.00  0.00    -0.007 A 
ATOM      9  C18 <0> A   1     -15.932   4.372  44.915  0.00  0.00    +0.106 A 
ATOM     10  C19 <0> A   1     -16.718   5.505  44.779  0.00  0.00    -0.008 A 
ATOM     11  C20 <0> A   1     -16.249   6.728  45.212  0.00  0.00    +0.075 A 
ATOM     12  F1  <0> A   1     -16.399   3.176  44.493  0.00  0.00    -0.137 F 
ENDBRANCH   4   6
BRANCH   3  13
ATOM     13  C21 <0> A   1     -15.235   8.003  48.676  0.00  0.00    -0.042 A 
ATOM     14  C22 <0> A   1     -14.490   7.211  49.548  0.00  0.00    +0.052 A 
ATOM     15  C23 <0> A   1     -15.105   6.611  50.628  0.00  0.00    +0.004 A 
ATOM     16  C24 <0> A   1     -16.459   6.793  50.845  0.00  0.00    +0.008 A 
ATOM     17  C25 <0> A   1     -17.205   7.577  49.983  0.00  0.00    -0.003 A 
ATOM     18  C26 <0> A   1     -16.599   8.188  48.903  0.00  0.00    +0.020 A 
ENDBRANCH   3  13
BRANCH   1  20
ATOM     19  C1  <0> A   1     -11.263  11.031  45.631  0.00  0.00    +0.045 C 
ATOM     20  C2  <0> A   1     -12.748  11.359  45.793  0.00  0.00    +0.043 C 
ATOM     21  C3  <0> A   1     -13.316  11.821  44.448  0.00  0.00    +0.050 C 
ENDBRANCH   1  20
BRANCH   2  22
ATOM     22  S1  <0> A   1     -13.803  11.021  48.866  0.00  0.00    +2.707 S 
ATOM     23  O5  <0> A   1     -14.242  12.293  48.412  0.00  0.00    -0.953 OA
ATOM     24  O6  <0> A   1     -14.390  10.366  49.983  0.00  0.00    -0.948 OA
BRANCH  22  25
ATOM     25  N2  <0> A   1     -12.187  11.171  49.202  0.00  0.00    -0.998 NA
ATOM     26  C27 <0> A   1     -11.534  12.490  49.208  0.00  0.00    +0.268 C 
ATOM     27  C28 <0> A   1     -10.751  12.636  50.517  0.00  0.00    +0.209 C 
ATOM     28  O7  <0> A   1      -9.897  11.503  50.686  0.00  0.00    -0.376 OA
ATOM     29  C29 <0> A   1     -10.590  10.258  50.800  0.00  0.00    +0.212 C 
ATOM     30  C30 <0> A   1     -11.365   9.990  49.510  0.00  0.00    +0.265 C 
ENDBRANCH  22  25
ENDBRANCH   2  22
BRANCH   5  31
ATOM     31  C8  <0> A   1     -13.468   8.907  44.055  0.00  0.00    +0.296 C 
BRANCH  31  32
ATOM     32  C9  <0> A   1     -12.236   8.010  43.908  0.00  0.00    -0.014 C 
BRANCH  32  33
ATOM     33  C10 <0> A   1     -11.966   7.756  42.423  0.00  0.00    +0.218 C 
BRANCH  33  34
ATOM     34  O4  <0> A   1     -11.780   6.355  42.206  0.00  0.00    -0.541 OA
ATOM     35  H19 <0> A   1     -12.603   5.846  42.198  0.00  0.00    +0.367 HD
ENDBRANCH  33  34
BRANCH  33  36
ATOM     36  C11 <0> A   1     -13.156   8.246  41.597  0.00  0.00    -0.047 C 
BRANCH  36  37
ATOM     37  C12 <0> A   1     -12.667   9.227  40.530  0.00  0.00    +0.231 C 
BRANCH  37  38
ATOM     38  O3  <0> A   1     -13.237   8.880  39.266  0.00  0.00    -0.528 OA
ATOM     39  H18 <0> A   1     -13.616   9.629  38.786  0.00  0.00    +0.350 HD
ENDBRANCH  37  38
BRANCH  37  40
ATOM     40  C13 <0> A   1     -13.095  10.646  40.908  0.00  0.00    -0.102 C 
BRANCH  40  41
ATOM     41  C14 <0> A   1     -13.852  11.266  39.762  0.00  0.00    +0.491 C 
ATOM     42  O1  <0> A   1     -15.069  11.191  39.724  0.00  0.00    -0.681 OA
ATOM     43  O2  <0> A   1     -13.249  11.843  38.873  0.00  0.00    -0.712 OA
ENDBRANCH  40  41
ENDBRANCH  37  40
ENDBRANCH  36  37
ENDBRANCH  33  36
ENDBRANCH  32  33
ENDBRANCH  31  32
ENDBRANCH   5  31
TORSDOF 14
