REMARK VINA RESULT:      -8.0      3.442      7.567
REMARK  Name = CHEMBL317142
REMARK  15 active torsions:
REMARK  status: ('A' for Active; 'I' for Inactive)
REMARK    1  A    between atoms: C1_1  and  C2_2
REMARK    2  A    between atoms: C2_2  and  C3_3
REMARK    3  A    between atoms: C2_2  and  C4_4
REMARK    4  A    between atoms: C12_12  and  C20_26
REMARK    5  A    between atoms: C13_13  and  O1_14
REMARK    6  A    between atoms: O1_14  and  C14_15
REMARK    7  A    between atoms: C14_15  and  C15_16
REMARK    8  A    between atoms: C15_16  and  C16_17
REMARK    9  A    between atoms: C15_16  and  O5_25
REMARK   10  A    between atoms: C16_17  and  C17_18
REMARK   11  A    between atoms: C17_18  and  C18_20
REMARK   12  A    between atoms: C17_18  and  O4_24
REMARK   13  A    between atoms: C18_20  and  C19_21
REMARK   14  A    between atoms: C20_26  and  C21_27
REMARK   15  A    between atoms: C20_26  and  C27_34
REMARK                            x       y       z     vdW  Elec       q    Type
REMARK                         _______ _______ _______ _____ _____    ______ ____
ROOT
ATOM      1  C4  <0> A   1     -12.800  11.773  46.704  0.00  0.00    -0.077 A 
ATOM      2  C5  <0> A   1     -14.160  11.962  46.999  0.00  0.00    -0.031 A 
ATOM      3  C6  <0> A   1     -14.570  12.838  48.019  0.00  0.00    +0.028 A 
ATOM      4  C7  <0> A   1     -15.897  12.996  48.278  0.00  0.00    +0.004 A 
ATOM      5  C8  <0> A   1     -16.858  12.300  47.546  0.00  0.00    +0.004 A 
ATOM      6  C9  <0> A   1     -16.499  11.444  46.550  0.00  0.00    +0.022 A 
ATOM      7  C10 <0> A   1     -15.137  11.256  46.254  0.00  0.00    -0.053 A 
ATOM      8  C11 <0> A   1     -14.729  10.380  45.233  0.00  0.00    +0.040 A 
ATOM      9  C12 <0> A   1     -13.404  10.220  44.972  0.00  0.00    -0.082 A 
ATOM     10  C13 <0> A   1     -12.438  10.919  45.702  0.00  0.00    +0.109 A 
ENDROOT
BRANCH   1  12
ATOM     11  C1  <0> A   1     -12.058  14.013  47.467  0.00  0.00    +0.029 C 
ATOM     12  C2  <0> A   1     -11.746  12.516  47.484  0.00  0.00    +0.037 C 
ATOM     13  C3  <0> A   1     -11.733  12.014  48.930  0.00  0.00    +0.024 C 
ENDBRANCH   1  12
BRANCH  10  14
ATOM     14  O1  <0> A   1     -11.122  10.743  45.414  0.00  0.00    -0.317 OA
BRANCH  14  15
ATOM     15  C14 <0> A   1     -10.352   9.978  46.342  0.00  0.00    +0.147 C 
BRANCH  15  16
ATOM     16  C15 <0> A   1     -10.726   8.499  46.219  0.00  0.00    +0.225 C 
BRANCH  16  17
ATOM     17  O5  <0> A   1      -9.540   7.722  46.044  0.00  0.00    -0.530 OA
ATOM     18  H22 <0> A   1      -9.037   7.582  46.858  0.00  0.00    +0.363 HD
ENDBRANCH  16  17
BRANCH  16  19
ATOM     19  C16 <0> A   1     -11.449   8.048  47.490  0.00  0.00    -0.043 C 
BRANCH  19  20
ATOM     20  C17 <0> A   1     -11.157   6.567  47.743  0.00  0.00    +0.235 C 
BRANCH  20  21
ATOM     21  O4  <0> A   1      -9.985   6.443  48.550  0.00  0.00    -0.527 OA
ATOM     22  H21 <0> A   1      -9.568   7.288  48.769  0.00  0.00    +0.350 HD
ENDBRANCH  20  21
BRANCH  20  23
ATOM     23  C18 <0> A   1     -12.345   5.930  48.468  0.00  0.00    -0.101 C 
BRANCH  23  24
ATOM     24  C19 <0> A   1     -11.978   5.678  49.908  0.00  0.00    +0.491 C 
ATOM     25  O2  <0> A   1     -11.426   4.640  50.223  0.00  0.00    -0.680 OA
ATOM     26  O3  <0> A   1     -12.235   6.515  50.757  0.00  0.00    -0.712 OA
ENDBRANCH  23  24
ENDBRANCH  20  23
ENDBRANCH  19  20
ENDBRANCH  16  19
ENDBRANCH  15  16
ENDBRANCH  14  15
ENDBRANCH  10  14
BRANCH   9  27
ATOM     27  C20 <0> A   1     -12.972   9.280  43.876  0.00  0.00    +0.144 C 
BRANCH  27  28
ATOM     28  C21 <0> A   1     -13.737   7.986  43.993  0.00  0.00    -0.087 A 
ATOM     29  C22 <0> A   1     -14.083   7.284  42.853  0.00  0.00    +0.057 A 
ATOM     30  C23 <0> A   1     -14.785   6.098  42.959  0.00  0.00    -0.014 A 
ATOM     31  C24 <0> A   1     -15.141   5.614  44.206  0.00  0.00    +0.097 A 
ATOM     32  C25 <0> A   1     -14.794   6.318  45.347  0.00  0.00    -0.016 A 
ATOM     33  C26 <0> A   1     -14.087   7.501  45.239  0.00  0.00    +0.050 A 
ATOM     34  F1  <0> A   1     -15.827   4.455  44.311  0.00  0.00    -0.141 F 
ENDBRANCH  27  28
BRANCH  27  35
ATOM     35  C27 <0> A   1     -13.249   9.908  42.535  0.00  0.00    -0.080 A 
ATOM     36  C28 <0> A   1     -12.536   9.504  41.422  0.00  0.00    +0.050 A 
ATOM     37  C29 <0> A   1     -12.789  10.079  40.192  0.00  0.00    -0.019 A 
ATOM     38  C30 <0> A   1     -13.758  11.061  40.074  0.00  0.00    +0.097 A 
ATOM     39  C31 <0> A   1     -14.471  11.467  41.189  0.00  0.00    -0.012 A 
ATOM     40  C32 <0> A   1     -14.220  10.886  42.418  0.00  0.00    +0.063 A 
ATOM     41  F2  <0> A   1     -14.006  11.624  38.871  0.00  0.00    -0.141 F 
ENDBRANCH  27  35
ENDBRANCH   9  27
TORSDOF 13
