REMARK VINA RESULT:      -8.5      3.275      7.072
REMARK  Name = CHEMBL416823
REMARK  7 active torsions:
REMARK  status: ('A' for Active; 'I' for Inactive)
REMARK    1  A    between atoms: C6_6  and  C7_7
REMARK    2  A    between atoms: C7_7  and  O1_8
REMARK    3  A    between atoms: O1_8  and  C8_9
REMARK    4  A    between atoms: C13_14  and  C14_15
REMARK    5  A    between atoms: C14_15  and  C15_16
REMARK    6  A    between atoms: C15_16  and  C16_17
REMARK    7  A    between atoms: C18_19  and  O4_25
REMARK                            x       y       z     vdW  Elec       q    Type
REMARK                         _______ _______ _______ _____ _____    ______ ____
ROOT
ATOM      1  C8  <0> A   1     -31.595  22.028  34.503  0.00  0.00    +0.161 A 
ATOM      2  C9  <0> A   1     -32.105  21.216  35.505  0.00  0.00    -0.052 A 
ATOM      3  C10 <0> A   1     -31.727  21.420  36.819  0.00  0.00    +0.013 A 
ATOM      4  C11 <0> A   1     -30.840  22.435  37.135  0.00  0.00    +0.009 A 
ATOM      5  C12 <0> A   1     -30.330  23.246  36.137  0.00  0.00    +0.013 A 
ATOM      6  C13 <0> A   1     -30.702  23.040  34.821  0.00  0.00    -0.101 A 
ATOM      7 Cl1  <0> A   1     -29.218  24.518  36.537  0.00  0.00    -0.042 Cl
ATOM      8 Cl2  <0> A   1     -32.365  20.404  38.074  0.00  0.00    -0.050 Cl
ENDROOT
BRANCH   1   9
ATOM      9  O1  <0> A   1     -31.966  21.829  33.211  0.00  0.00    -0.291 OA
BRANCH   9  10
ATOM     10  C7  <0> A   1     -32.939  20.812  32.965  0.00  0.00    +0.255 C 
BRANCH  10  16
ATOM     11  C1  <0> A   1     -31.443  18.863  32.486  0.00  0.00    +0.074 A 
ATOM     12  C2  <0> A   1     -30.915  17.921  31.623  0.00  0.00    -0.016 A 
ATOM     13  C3  <0> A   1     -31.311  17.899  30.296  0.00  0.00    +0.113 A 
ATOM     14  C4  <0> A   1     -32.233  18.822  29.835  0.00  0.00    -0.018 A 
ATOM     15  C5  <0> A   1     -32.760  19.764  30.699  0.00  0.00    +0.073 A 
ATOM     16  C6  <0> A   1     -32.364  19.784  32.024  0.00  0.00    -0.110 A 
ATOM     17  F1  <0> A   1     -30.795  16.979  29.452  0.00  0.00    -0.136 F 
ENDBRANCH  10  16
ENDBRANCH   9  10
ENDBRANCH   1   9
BRANCH   6  18
ATOM     18  C14 <0> A   1     -30.140  23.919  33.733  0.00  0.00    +0.097 C 
BRANCH  18  19
ATOM     19  C15 <0> A   1     -29.045  23.162  32.980  0.00  0.00    +0.062 C 
BRANCH  19  20
ATOM     20  C16 <0> A   1     -27.741  23.960  33.039  0.00  0.00    +0.198 C 
ATOM     21  C17 <0> A   1     -26.877  23.620  31.821  0.00  0.00    +0.041 C 
ATOM     22  C18 <0> A   1     -25.555  24.388  31.904  0.00  0.00    +0.184 C 
ATOM     23  C19 <0> A   1     -24.831  23.991  33.196  0.00  0.00    +0.020 C 
ATOM     24  C20 <0> A   1     -25.794  24.158  34.352  0.00  0.00    +0.496 C 
ATOM     25  O2  <0> A   1     -25.469  24.754  35.351  0.00  0.00    -0.453 OA
ATOM     26  O3  <0> A   1     -27.027  23.622  34.233  0.00  0.00    -0.364 OA
BRANCH  22  27
ATOM     27  O4  <0> A   1     -25.818  25.792  31.912  0.00  0.00    -0.563 OA
ATOM     28  H19 <0> A   1     -25.562  26.236  32.733  0.00  0.00    +0.386 HD
ENDBRANCH  22  27
ENDBRANCH  19  20
ENDBRANCH  18  19
ENDBRANCH   6  18
TORSDOF 7
