REMARK VINA RESULT:      -9.4     15.577     19.048
REMARK  Name = CHEMBL332812
REMARK  11 active torsions:
REMARK  status: ('A' for Active; 'I' for Inactive)
REMARK    1  A    between atoms: C6_6  and  C11_11
REMARK    2  A    between atoms: C11_11  and  C12_12
REMARK    3  A    between atoms: N2_19  and  C26_34
REMARK    4  A    between atoms: C18_20  and  C19_21
REMARK    5  A    between atoms: C20_22  and  C21_23
REMARK    6  A    between atoms: C21_23  and  C22_25
REMARK    7  A    between atoms: C21_23  and  O4_33
REMARK    8  A    between atoms: C22_25  and  C23_26
REMARK    9  A    between atoms: C23_26  and  C24_28
REMARK   10  A    between atoms: C23_26  and  O3_32
REMARK   11  A    between atoms: C24_28  and  C25_29
REMARK                            x       y       z     vdW  Elec       q    Type
REMARK                         _______ _______ _______ _____ _____    ______ ____
ROOT
ATOM      1  C12 <0> A   1     -25.346  -1.243  50.957  0.00  0.00    +0.092 C 
ATOM      2  C13 <0> A   1     -23.942  -1.097  50.361  0.00  0.00    +0.030 C 
ATOM      3  C14 <0> A   1     -22.935  -1.874  51.213  0.00  0.00    +0.016 C 
ATOM      4  C15 <0> A   1     -23.141  -3.380  51.012  0.00  0.00    +0.104 C 
ATOM      5  C16 <0> A   1     -24.606  -3.685  51.205  0.00  0.00    -0.211 C 
ATOM      6  C17 <0> A   1     -25.614  -2.712  51.182  0.00  0.00    +0.089 C 
ATOM      7  N1  <0> A   1     -26.762  -3.297  51.382  0.00  0.00    -0.263 NA
ATOM      8  N2  <0> A   1     -26.545  -4.673  51.542  0.00  0.00    -0.330 N 
ATOM      9  C18 <0> A   1     -25.200  -4.900  51.429  0.00  0.00    +0.124 C 
ENDROOT
BRANCH   8  10
ATOM     10  C26 <0> A   1     -27.530  -5.642  51.775  0.00  0.00    +0.149 A 
ATOM     11  C27 <0> A   1     -27.918  -5.940  53.076  0.00  0.00    +0.048 A 
ATOM     12  C28 <0> A   1     -28.889  -6.895  53.303  0.00  0.00    +0.017 A 
ATOM     13  C29 <0> A   1     -29.475  -7.556  52.236  0.00  0.00    +0.097 A 
ATOM     14  C30 <0> A   1     -29.089  -7.261  50.940  0.00  0.00    +0.007 A 
ATOM     15  C31 <0> A   1     -28.123  -6.302  50.707  0.00  0.00    +0.056 A 
ATOM     16  F1  <0> A   1     -30.425  -8.490  52.462  0.00  0.00    -0.135 F 
ENDBRANCH   8  10
BRANCH   9  17
ATOM     17  C19 <0> A   1     -24.519  -6.203  51.528  0.00  0.00    +0.027 C 
ATOM     18  C20 <0> A   1     -24.470  -7.010  50.473  0.00  0.00    -0.028 C 
BRANCH  18  19
ATOM     19  C21 <0> A   1     -23.774  -8.341  50.575  0.00  0.00    +0.254 C 
BRANCH  19  20
ATOM     20  O4  <0> A   1     -24.652  -9.294  51.179  0.00  0.00    -0.536 OA
ATOM     21  H26 <0> A   1     -24.217  -9.884  51.811  0.00  0.00    +0.368 HD
ENDBRANCH  19  20
BRANCH  19  22
ATOM     22  C22 <0> A   1     -23.384  -8.822  49.176  0.00  0.00    -0.040 C 
BRANCH  22  23
ATOM     23  C23 <0> A   1     -24.512  -8.500  48.193  0.00  0.00    +0.232 C 
BRANCH  23  24
ATOM     24  O3  <0> A   1     -23.964  -7.897  47.019  0.00  0.00    -0.528 OA
ATOM     25  H25 <0> A   1     -24.589  -7.343  46.532  0.00  0.00    +0.351 HD
ENDBRANCH  23  24
BRANCH  23  26
ATOM     26  C24 <0> A   1     -25.239  -9.791  47.811  0.00  0.00    -0.102 C 
BRANCH  26  27
ATOM     27  C25 <0> A   1     -26.676  -9.710  48.258  0.00  0.00    +0.491 C 
ATOM     28  O1  <0> A   1     -26.941  -9.623  49.445  0.00  0.00    -0.681 OA
ATOM     29  O2  <0> A   1     -27.573  -9.734  47.433  0.00  0.00    -0.713 OA
ENDBRANCH  26  27
ENDBRANCH  23  26
ENDBRANCH  22  23
ENDBRANCH  19  22
ENDBRANCH  18  19
ENDBRANCH   9  17
BRANCH   1  30
ATOM     30  C11 <0> A   1     -26.381  -0.673  49.985  0.00  0.00    +0.081 C 
BRANCH  30  36
ATOM     31  C1  <0> A   1     -30.509   3.502  52.675  0.00  0.00    -0.002 A 
ATOM     32  C2  <0> A   1     -31.208   2.374  52.247  0.00  0.00    -0.004 A 
ATOM     33  C3  <0> A   1     -30.564   1.340  51.643  0.00  0.00    +0.017 A 
ATOM     34  C4  <0> A   1     -29.173   1.405  51.445  0.00  0.00    -0.055 A 
ATOM     35  C5  <0> A   1     -28.474   0.356  50.825  0.00  0.00    +0.015 A 
ATOM     36  C6  <0> A   1     -27.128   0.454  50.649  0.00  0.00    -0.073 A 
ATOM     37  C7  <0> A   1     -26.429   1.582  51.077  0.00  0.00    +0.066 A 
ATOM     38  C8  <0> A   1     -27.073   2.618  51.682  0.00  0.00    +0.001 A 
ATOM     39  C9  <0> A   1     -28.463   2.552  51.879  0.00  0.00    -0.047 A 
ATOM     40  C10 <0> A   1     -29.163   3.601  52.500  0.00  0.00    +0.015 A 
ENDBRANCH  30  36
ENDBRANCH   1  30
TORSDOF 11
