REMARK VINA RESULT:      -8.2     16.233     19.955
REMARK  Name = CHEMBL350895
REMARK  8 active torsions:
REMARK  status: ('A' for Active; 'I' for Inactive)
REMARK    1  A    between atoms: C1_1  and  C2_2
REMARK    2  A    between atoms: C2_2  and  C3_3
REMARK    3  A    between atoms: C4_4  and  C20_22
REMARK    4  A    between atoms: C5_5  and  C14_15
REMARK    5  A    between atoms: C7_7  and  C8_9
REMARK    6  A    between atoms: C20_22  and  C21_23
REMARK    7  A    between atoms: C21_23  and  C22_24
REMARK    8  A    between atoms: C24_26  and  O3_32
REMARK                            x       y       z     vdW  Elec       q    Type
REMARK                         _______ _______ _______ _____ _____    ______ ____
ROOT
ATOM      1  C3  <0> A   1     -25.326  -3.339  51.564  0.00  0.00    +0.150 A 
ATOM      2  C4  <0> A   1     -26.042  -4.499  51.779  0.00  0.00    -0.120 A 
ATOM      3  C5  <0> A   1     -27.437  -4.437  51.857  0.00  0.00    +0.004 A 
ATOM      4  C6  <0> A   1     -28.052  -3.192  51.714  0.00  0.00    -0.015 A 
ATOM      5  C7  <0> A   1     -27.259  -2.071  51.499  0.00  0.00    +0.174 A 
ATOM      6  N1  <0> A   1     -25.937  -2.178  51.438  0.00  0.00    -0.472 NA
ENDROOT
BRANCH   3   7
ATOM      7  C14 <0> A   1     -28.242  -5.662  52.086  0.00  0.00    -0.061 A 
ATOM      8  C15 <0> A   1     -28.606  -6.026  53.381  0.00  0.00    +0.065 A 
ATOM      9  C16 <0> A   1     -29.354  -7.166  53.590  0.00  0.00    -0.010 A 
ATOM     10  C17 <0> A   1     -29.743  -7.949  52.514  0.00  0.00    +0.107 A 
ATOM     11  C18 <0> A   1     -29.383  -7.591  51.225  0.00  0.00    -0.011 A 
ATOM     12  C19 <0> A   1     -28.640  -6.449  51.007  0.00  0.00    +0.062 A 
ATOM     13  F1  <0> A   1     -30.473  -9.066  52.724  0.00  0.00    -0.136 F 
ENDBRANCH   3   7
BRANCH   5  14
ATOM     14  C8  <0> A   1     -27.895  -0.739  51.345  0.00  0.00    -0.051 A 
ATOM     15  C9  <0> A   1     -29.125  -0.478  51.946  0.00  0.00    +0.024 A 
ATOM     16  C10 <0> A   1     -29.713   0.762  51.799  0.00  0.00    +0.003 A 
ATOM     17  C11 <0> A   1     -29.085   1.744  51.054  0.00  0.00    +0.016 A 
ATOM     18  C12 <0> A   1     -27.865   1.490  50.454  0.00  0.00    +0.001 A 
ATOM     19  C13 <0> A   1     -27.265   0.256  50.600  0.00  0.00    +0.056 A 
ENDBRANCH   5  14
BRANCH   1  21
ATOM     20  C1  <0> A   1     -23.301  -2.149  50.769  0.00  0.00    +0.034 C 
ATOM     21  C2  <0> A   1     -23.823  -3.399  51.480  0.00  0.00    +0.090 C 
ENDBRANCH   1  21
BRANCH   2  22
ATOM     22  C20 <0> A   1     -25.329  -5.818  51.927  0.00  0.00    +0.086 C 
BRANCH  22  23
ATOM     23  C21 <0> A   1     -25.036  -6.398  50.541  0.00  0.00    +0.059 C 
BRANCH  23  24
ATOM     24  C22 <0> A   1     -24.241  -7.697  50.689  0.00  0.00    +0.198 C 
ATOM     25  C23 <0> A   1     -25.153  -8.891  50.393  0.00  0.00    +0.040 C 
ATOM     26  C24 <0> A   1     -24.366 -10.191  50.582  0.00  0.00    +0.184 C 
ATOM     27  C25 <0> A   1     -23.858 -10.257  52.028  0.00  0.00    +0.021 C 
ATOM     28  C26 <0> A   1     -23.130  -8.965  52.335  0.00  0.00    +0.496 C 
ATOM     29  O1  <0> A   1     -22.034  -8.975  52.842  0.00  0.00    -0.452 OA
ATOM     30  O2  <0> A   1     -23.744  -7.803  52.028  0.00  0.00    -0.366 OA
BRANCH  26  31
ATOM     31  O3  <0> A   1     -23.257 -10.215  49.682  0.00  0.00    -0.563 OA
ATOM     32  H26 <0> A   1     -23.464 -10.584  48.812  0.00  0.00    +0.387 HD
ENDBRANCH  26  31
ENDBRANCH  23  24
ENDBRANCH  22  23
ENDBRANCH   2  22
TORSDOF 7
