REMARK  Name = CHEMBL313129
REMARK  17 active torsions:
REMARK  status: ('A' for Active; 'I' for Inactive)
REMARK    1  A    between atoms: C1_1  and  C2_2
REMARK    2  A    between atoms: C2_2  and  C3_3
REMARK    3  A    between atoms: C3_3  and  C4_4
REMARK    4  A    between atoms: C3_3  and  C5_5
REMARK    5  A    between atoms: C3_3  and  C6_6
REMARK    6  A    between atoms: C6_6  and  O2_8
REMARK    7  A    between atoms: O2_8  and  C7_9
REMARK    8  A    between atoms: C9_12  and  C33_46
REMARK    9  A    between atoms: C10_14  and  O6_37
REMARK   10  A    between atoms: C13_19  and  C18_26
REMARK   11  A    between atoms: C14_21  and  C17_25
REMARK   12  A    between atoms: C18_26  and  C19_27
REMARK   13  A    between atoms: C19_27  and  C20_28
REMARK   14  A    between atoms: C22_30  and  O5_36
REMARK   15  A    between atoms: O6_37  and  C25_38
REMARK   16  A    between atoms: C25_38  and  C26_39
REMARK   17  A    between atoms: C26_39  and  C27_40
REMARK                            x       y       z     vdW  Elec       q    Type
REMARK                         _______ _______ _______ _____ _____    ______ ____
ROOT
ATOM      1  C7  <0> A   1      -3.066  -4.040  -0.504  0.00  0.00    +0.184 C 
ATOM      2  C8  <0> A   1      -2.989  -4.367   0.997  0.00  0.00    +0.014 C 
ATOM      3  C9  <0> A   1      -2.626  -5.840   1.179  0.00  0.00    +0.002 C 
ATOM      4  C10 <0> A   1      -3.702  -6.712   0.532  0.00  0.00    +0.163 C 
ATOM      5  C11 <0> A   1      -3.823  -6.379  -0.950  0.00  0.00    -0.020 C 
ATOM      6  C12 <0> A   1      -4.147  -4.891  -1.150  0.00  0.00    +0.029 C 
ATOM      7  C13 <0> A   1      -4.353  -4.649  -2.634  0.00  0.00    -0.008 C 
ATOM      8  C14 <0> A   1      -3.200  -5.099  -3.513  0.00  0.00    -0.020 C 
ATOM      9  C15 <0> A   1      -2.703  -6.497  -3.175  0.00  0.00    +0.012 C 
ATOM     10  C16 <0> A   1      -2.512  -6.691  -1.673  0.00  0.00    +0.013 C 
ATOM     11  C17 <0> A   1      -2.055  -4.091  -3.514  0.00  0.00    +0.014 C 
ATOM     12  C33 <0> A   1      -2.539  -6.164   2.673  0.00  0.00    +0.028 C 
ENDROOT
BRANCH   1  13
ATOM     13  O2  <0> A   1      -3.347  -2.644  -0.619  0.00  0.00    -0.335 OA
BRANCH  13  14
ATOM     14  C6  <0> A   1      -2.298  -1.807  -0.606  0.00  0.00    +0.472 C 
ATOM     15  O1  <0> A   1      -1.177  -2.246  -0.500  0.00  0.00    -0.509 OA
BRANCH  14  16
ATOM     16  C3  <0> A   1      -2.517  -0.321  -0.723  0.00  0.00    -0.057 C 
ATOM     17  C4  <0> A   1      -3.388   0.159   0.441  0.00  0.00    +0.056 C 
ATOM     18  C5  <0> A   1      -3.219  -0.012  -2.046  0.00  0.00    +0.077 C 
BRANCH  16  20
ATOM     19  C1  <0> A   1      -1.391   1.908  -0.799  0.00  0.00    +0.022 C 
ATOM     20  C2  <0> A   1      -1.168   0.399  -0.681  0.00  0.00    +0.033 C 
ENDBRANCH  16  20
ENDBRANCH  14  16
ENDBRANCH  13  14
ENDBRANCH   1  13
BRANCH   7  21
ATOM     21  C18 <0> A   1      -4.729  -3.202  -2.944  0.00  0.00    +0.035 C 
BRANCH  21  22
ATOM     22  C19 <0> A   1      -5.041  -3.064  -4.436  0.00  0.00    +0.042 C 
BRANCH  22  23
ATOM     23  C20 <0> A   1      -5.417  -1.614  -4.746  0.00  0.00    +0.196 C 
ATOM     24  C21 <0> A   1      -5.845  -1.500  -6.212  0.00  0.00    +0.037 C 
ATOM     25  C22 <0> A   1      -6.181  -0.039  -6.530  0.00  0.00    +0.182 C 
ATOM     26  C23 <0> A   1      -4.940   0.824  -6.270  0.00  0.00    +0.016 C 
ATOM     27  C24 <0> A   1      -4.438   0.525  -4.874  0.00  0.00    +0.495 C 
ATOM     28  O3  <0> A   1      -4.181   1.418  -4.101  0.00  0.00    -0.447 OA
ATOM     29  O4  <0> A   1      -4.286  -0.767  -4.516  0.00  0.00    -0.361 OA
BRANCH  25  30
ATOM     30  O5  <0> A   1      -7.255   0.398  -5.694  0.00  0.00    -0.563 OA
ATOM     31  H38 <0> A   1      -7.520   1.316  -5.842  0.00  0.00    +0.386 HD
ENDBRANCH  25  30
ENDBRANCH  22  23
ENDBRANCH  21  22
ENDBRANCH   7  21
BRANCH   4  32
ATOM     32  O6  <0> A   1      -4.955  -6.487   1.183  0.00  0.00    -0.371 OA
BRANCH  32  33
ATOM     33  C25 <0> A   1      -5.839  -7.610   1.146  0.00  0.00    +0.166 C 
BRANCH  33  34
ATOM     34  C26 <0> A   1      -7.095  -7.297   1.962  0.00  0.00    +0.083 C 
BRANCH  34  35
ATOM     35  C27 <0> A   1      -8.027  -8.481   1.923  0.00  0.00    -0.083 A 
ATOM     36  C28 <0> A   1      -8.976  -8.580   0.923  0.00  0.00    +0.007 A 
ATOM     37  C29 <0> A   1      -9.831  -9.666   0.887  0.00  0.00    +0.004 A 
ATOM     38  C30 <0> A   1      -9.736 -10.652   1.851  0.00  0.00    -0.000 A 
ATOM     39  C31 <0> A   1      -8.786 -10.553   2.851  0.00  0.00    +0.004 A 
ATOM     40  C32 <0> A   1      -7.929  -9.470   2.884  0.00  0.00    +0.007 A 
ENDBRANCH  34  35
ENDBRANCH  33  34
ENDBRANCH  32  33
ENDBRANCH   4  32
TORSDOF 12
