REMARK VINA RESULT:      -7.6     19.966     23.439
REMARK  Name = CHEMBL346446
REMARK  10 active torsions:
REMARK  status: ('A' for Active; 'I' for Inactive)
REMARK    1  A    between atoms: C1_1  and  C2_2
REMARK    2  A    between atoms: C2_2  and  C3_3
REMARK    3  A    between atoms: C2_2  and  C4_4
REMARK    4  A    between atoms: C5_5  and  C17_20
REMARK    5  A    between atoms: C6_6  and  C11_13
REMARK    6  A    between atoms: C7_8  and  C8_10
REMARK    7  A    between atoms: C8_10  and  C9_11
REMARK    8  A    between atoms: C8_10  and  C10_12
REMARK    9  A    between atoms: C18_21  and  C19_22
REMARK   10  A    between atoms: C21_24  and  O3_30
REMARK                            x       y       z     vdW  Elec       q    Type
REMARK                         _______ _______ _______ _____ _____    ______ ____
ROOT
ATOM      1  C4  <0> A   1     -28.266  -3.132  50.613  0.00  0.00    +0.204 A 
ATOM      2  C5  <0> A   1     -26.899  -3.030  50.882  0.00  0.00    -0.160 A 
ATOM      3  C6  <0> A   1     -26.433  -1.856  51.510  0.00  0.00    +0.230 A 
ATOM      4  N1  <0> A   1     -27.312  -0.904  51.816  0.00  0.00    -0.505 NA
ATOM      5  C7  <0> A   1     -28.591  -1.051  51.540  0.00  0.00    +0.334 A 
ATOM      6  N2  <0> A   1     -29.062  -2.132  50.949  0.00  0.00    -0.511 NA
ENDROOT
BRANCH   3   7
ATOM      7  C11 <0> A   1     -24.995  -1.686  51.822  0.00  0.00    -0.072 A 
ATOM      8  C12 <0> A   1     -24.088  -1.393  50.805  0.00  0.00    +0.086 A 
ATOM      9  C13 <0> A   1     -22.751  -1.237  51.100  0.00  0.00    -0.018 A 
ATOM     10  C14 <0> A   1     -22.307  -1.370  52.407  0.00  0.00    +0.120 A 
ATOM     11  C15 <0> A   1     -23.205  -1.661  53.421  0.00  0.00    -0.019 A 
ATOM     12  C16 <0> A   1     -24.546  -1.813  53.137  0.00  0.00    +0.096 A 
ATOM     13  F1  <0> A   1     -20.995  -1.217  52.692  0.00  0.00    -0.135 F 
ENDBRANCH   3   7
BRANCH   1  15
ATOM     14  C1  <0> A   1     -30.247  -4.614  50.445  0.00  0.00    +0.044 C 
ATOM     15  C2  <0> A   1     -28.823  -4.362  49.944  0.00  0.00    +0.045 C 
ATOM     16  C3  <0> A   1     -28.845  -4.153  48.428  0.00  0.00    +0.045 C 
ENDBRANCH   1  15
BRANCH   5  17
ATOM     17  C8  <0> A   1     -29.546   0.054  51.906  0.00  0.00    +0.070 C 
ATOM     18  C9  <0> A   1     -29.645   0.159  53.430  0.00  0.00    +0.045 C 
ATOM     19  C10 <0> A   1     -29.036   1.379  51.336  0.00  0.00    +0.045 C 
ENDBRANCH   5  17
BRANCH   2  20
ATOM     20  C17 <0> A   1     -25.968  -4.118  50.520  0.00  0.00    +0.052 C 
ATOM     21  C18 <0> A   1     -25.805  -5.150  51.336  0.00  0.00    -0.007 C 
BRANCH  21  22
ATOM     22  C19 <0> A   1     -24.856  -6.261  50.965  0.00  0.00    +0.244 C 
ATOM     23  C20 <0> A   1     -25.506  -7.156  49.907  0.00  0.00    +0.051 C 
ATOM     24  C21 <0> A   1     -24.555  -8.308  49.563  0.00  0.00    +0.186 C 
ATOM     25  C22 <0> A   1     -24.270  -9.113  50.838  0.00  0.00    +0.024 C 
ATOM     26  C23 <0> A   1     -23.818  -8.151  51.915  0.00  0.00    +0.498 C 
ATOM     27  O1  <0> A   1     -22.825  -8.370  52.568  0.00  0.00    -0.449 OA
ATOM     28  O2  <0> A   1     -24.558  -7.042  52.128  0.00  0.00    -0.370 OA
BRANCH  24  29
ATOM     29  O3  <0> A   1     -23.333  -7.780  49.043  0.00  0.00    -0.563 OA
ATOM     30  H27 <0> A   1     -23.436  -6.942  48.571  0.00  0.00    +0.388 HD
ENDBRANCH  24  29
ENDBRANCH  21  22
ENDBRANCH   2  20
TORSDOF 6
