REMARK VINA RESULT:      -7.9      2.314      4.548
REMARK  Name = CHEMBL63204
REMARK  12 active torsions:
REMARK  status: ('A' for Active; 'I' for Inactive)
REMARK    1  A    between atoms: C1_1  and  C2_2
REMARK    2  A    between atoms: C2_2  and  C3_3
REMARK    3  A    between atoms: C2_2  and  C4_4
REMARK    4  A    between atoms: C5_5  and  C18_22
REMARK    5  A    between atoms: C6_6  and  C12_15
REMARK    6  A    between atoms: C19_23  and  C20_24
REMARK    7  A    between atoms: C20_24  and  C21_25
REMARK    8  A    between atoms: C20_24  and  O4_33
REMARK    9  A    between atoms: C21_25  and  C22_26
REMARK   10  A    between atoms: C22_26  and  C23_28
REMARK   11  A    between atoms: C22_26  and  O3_32
REMARK   12  A    between atoms: C23_28  and  C24_29
REMARK                            x       y       z     vdW  Elec       q    Type
REMARK                         _______ _______ _______ _____ _____    ______ ____
ROOT
ATOM      1  C4  <0> A   1     -12.997   9.827  46.023  0.00  0.00    +0.116 C 
ATOM      2  C5  <0> A   1     -13.188   8.602  45.353  0.00  0.00    -0.169 C 
ATOM      3  C6  <0> A   1     -14.284   7.979  45.940  0.00  0.00    +0.148 C 
ATOM      4  N1  <0> A   1     -14.731   8.810  46.929  0.00  0.00    -0.321 N 
ATOM      5  N2  <0> A   1     -13.906   9.940  46.952  0.00  0.00    -0.275 NA
ATOM      6  C7  <0> A   1     -15.818   8.569  47.772  0.00  0.00    +0.368 A 
ATOM      7  C8  <0> A   1     -15.872   9.184  49.018  0.00  0.00    -0.015 A 
ATOM      8  C9  <0> A   1     -16.955   8.936  49.844  0.00  0.00    +0.089 A 
ATOM      9  C10 <0> A   1     -17.950   8.081  49.392  0.00  0.00    -0.041 A 
ATOM     10  C11 <0> A   1     -17.832   7.506  48.142  0.00  0.00    +0.295 A 
ATOM     11  N3  <0> A   1     -16.791   7.764  47.375  0.00  0.00    -0.490 NA
ENDROOT
BRANCH   3  12
ATOM     12  C12 <0> A   1     -14.857   6.670  45.566  0.00  0.00    -0.033 A 
ATOM     13  C13 <0> A   1     -15.781   6.582  44.522  0.00  0.00    +0.088 A 
ATOM     14  C14 <0> A   1     -16.313   5.358  44.177  0.00  0.00    -0.011 A 
ATOM     15  C15 <0> A   1     -15.932   4.216  44.863  0.00  0.00    +0.112 A 
ATOM     16  C16 <0> A   1     -15.014   4.297  45.900  0.00  0.00    -0.021 A 
ATOM     17  C17 <0> A   1     -14.472   5.515  46.250  0.00  0.00    +0.074 A 
ATOM     18  F1  <0> A   1     -16.456   3.019  44.521  0.00  0.00    -0.138 F 
ENDBRANCH   3  12
BRANCH   1  20
ATOM     19  C1  <0> A   1     -12.533  12.236  45.656  0.00  0.00    +0.037 C 
ATOM     20  C2  <0> A   1     -11.919  10.836  45.719  0.00  0.00    +0.081 C 
ATOM     21  C3  <0> A   1     -10.857  10.793  46.821  0.00  0.00    +0.038 C 
ENDBRANCH   1  20
BRANCH   2  22
ATOM     22  C18 <0> A   1     -12.377   8.077  44.238  0.00  0.00    +0.040 C 
ATOM     23  C19 <0> A   1     -12.806   8.200  42.989  0.00  0.00    -0.054 C 
BRANCH  23  24
ATOM     24  C20 <0> A   1     -11.977   7.664  41.850  0.00  0.00    +0.251 C 
BRANCH  24  25
ATOM     25  O4  <0> A   1     -11.571   6.326  42.145  0.00  0.00    -0.538 OA
ATOM     26  H25 <0> A   1     -12.240   5.658  41.940  0.00  0.00    +0.366 HD
ENDBRANCH  24  25
BRANCH  24  27
ATOM     27  C21 <0> A   1     -12.808   7.674  40.566  0.00  0.00    -0.042 C 
BRANCH  27  28
ATOM     28  C22 <0> A   1     -12.644   9.023  39.863  0.00  0.00    +0.230 C 
BRANCH  28  29
ATOM     29  O3  <0> A   1     -12.301   8.809  38.492  0.00  0.00    -0.528 OA
ATOM     30  H24 <0> A   1     -11.399   9.072  38.267  0.00  0.00    +0.350 HD
ENDBRANCH  28  29
BRANCH  28  31
ATOM     31  C23 <0> A   1     -13.958   9.803  39.943  0.00  0.00    -0.102 C 
BRANCH  31  32
ATOM     32  C24 <0> A   1     -13.669  11.281  39.892  0.00  0.00    +0.491 C 
ATOM     33  O1  <0> A   1     -14.532  12.083  40.206  0.00  0.00    -0.681 OA
ATOM     34  O2  <0> A   1     -12.571  11.675  39.536  0.00  0.00    -0.714 OA
ENDBRANCH  31  32
ENDBRANCH  28  31
ENDBRANCH  27  28
ENDBRANCH  24  27
ENDBRANCH  23  24
ENDBRANCH   2  22
TORSDOF 10
