REMARK VINA RESULT:      -7.8     13.148     18.829
REMARK  Name = CHEMBL77486
REMARK  14 active torsions:
REMARK  status: ('A' for Active; 'I' for Inactive)
REMARK    1  A    between atoms: C1_1  and  C2_2
REMARK    2  A    between atoms: C2_2  and  C3_3
REMARK    3  A    between atoms: C3_3  and  C4_5
REMARK    4  A    between atoms: C3_3  and  C5_6
REMARK    5  A    between atoms: C5_6  and  O2_8
REMARK    6  A    between atoms: O2_8  and  C6_9
REMARK    7  A    between atoms: C8_12  and  C24_38
REMARK    8  A    between atoms: C12_19  and  C17_26
REMARK    9  A    between atoms: C13_21  and  C16_25
REMARK   10  A    between atoms: C17_26  and  C18_27
REMARK   11  A    between atoms: C18_27  and  C19_28
REMARK   12  A    between atoms: C21_31  and  O5_37
REMARK   13  A    between atoms: C25_39  and  C26_40
REMARK   14  A    between atoms: C26_40  and  C27_41
REMARK                            x       y       z     vdW  Elec       q    Type
REMARK                         _______ _______ _______ _____ _____    ______ ____
ROOT
ATOM      1  C6  <0> A   1     -27.131  -4.931  51.682  0.00  0.00    +0.183 C 
ATOM      2  C7  <0> A   1     -27.848  -3.934  52.598  0.00  0.00    +0.020 C 
ATOM      3  C8  <0> A   1     -28.735  -3.004  51.768  0.00  0.00    +0.019 C 
ATOM      4  C9  <0> A   1     -29.762  -3.823  50.980  0.00  0.00    +0.034 C 
ATOM      5  C10 <0> A   1     -29.020  -4.795  50.067  0.00  0.00    +0.039 C 
ATOM      6  C11 <0> A   1     -28.176  -5.746  50.924  0.00  0.00    +0.017 C 
ATOM      7  C12 <0> A   1     -27.516  -6.772  50.002  0.00  0.00    +0.004 C 
ATOM      8  C13 <0> A   1     -28.615  -7.666  49.420  0.00  0.00    +0.023 C 
ATOM      9  C14 <0> A   1     -29.764  -6.843  48.922  0.00  0.00    -0.050 C 
ATOM     10  C15 <0> A   1     -29.959  -5.596  49.221  0.00  0.00    -0.043 C 
ATOM     11  C16 <0> A   1     -29.113  -8.622  50.505  0.00  0.00    +0.027 C 
ENDROOT
BRANCH   3  12
ATOM     12  C24 <0> A   1     -27.878  -2.222  50.806  0.00  0.00    -0.009 C 
ATOM     13  C25 <0> A   1     -27.593  -0.967  51.053  0.00  0.00    -0.061 C 
BRANCH  13  14
ATOM     14  C26 <0> A   1     -26.842  -0.150  50.033  0.00  0.00    +0.104 C 
BRANCH  14  15
ATOM     15  C27 <0> A   1     -25.835   0.724  50.733  0.00  0.00    -0.075 A 
ATOM     16  C28 <0> A   1     -24.484   0.546  50.502  0.00  0.00    +0.005 A 
ATOM     17  C29 <0> A   1     -23.560   1.349  51.143  0.00  0.00    +0.002 A 
ATOM     18  C30 <0> A   1     -23.988   2.332  52.017  0.00  0.00    -0.006 A 
ATOM     19  C31 <0> A   1     -25.338   2.512  52.248  0.00  0.00    +0.002 A 
ATOM     20  C32 <0> A   1     -26.262   1.711  51.602  0.00  0.00    +0.001 A 
ENDBRANCH  14  15
ENDBRANCH  13  14
ENDBRANCH   3  12
BRANCH   1  21
ATOM     21  O2  <0> A   1     -26.309  -4.222  50.752  0.00  0.00    -0.332 OA
BRANCH  21  22
ATOM     22  C5  <0> A   1     -25.003  -4.119  51.048  0.00  0.00    +0.460 C 
ATOM     23  O1  <0> A   1     -24.339  -5.116  51.201  0.00  0.00    -0.503 OA
BRANCH  22  24
ATOM     24  C3  <0> A   1     -24.368  -2.760  51.189  0.00  0.00    +0.022 C 
ATOM     25  C4  <0> A   1     -24.492  -2.286  52.639  0.00  0.00    +0.056 C 
BRANCH  24  27
ATOM     26  C1  <0> A   1     -22.033  -2.294  51.946  0.00  0.00    +0.022 C 
ATOM     27  C2  <0> A   1     -22.890  -2.846  50.804  0.00  0.00    +0.031 C 
ENDBRANCH  24  27
ENDBRANCH  22  24
ENDBRANCH  21  22
ENDBRANCH   1  21
BRANCH   7  28
ATOM     28  C17 <0> A   1     -26.526  -7.622  50.800  0.00  0.00    +0.019 C 
BRANCH  28  29
ATOM     29  C18 <0> A   1     -25.427  -8.137  49.867  0.00  0.00    +0.051 C 
BRANCH  29  30
ATOM     30  C19 <0> A   1     -25.465  -9.665  49.830  0.00  0.00    +0.193 C 
ATOM     31  C20 <0> A   1     -24.465 -10.226  50.844  0.00  0.00    +0.040 C 
ATOM     32  C21 <0> A   1     -24.474 -11.757  50.774  0.00  0.00    +0.183 C 
ATOM     33  C22 <0> A   1     -24.090 -12.191  49.353  0.00  0.00    +0.021 C 
ATOM     34  C23 <0> A   1     -24.980 -11.454  48.375  0.00  0.00    +0.496 C 
ATOM     35  O3  <0> A   1     -25.555 -12.045  47.492  0.00  0.00    -0.453 OA
ATOM     36  O4  <0> A   1     -25.113 -10.120  48.517  0.00  0.00    -0.367 OA
BRANCH  32  37
ATOM     37  O5  <0> A   1     -25.782 -12.242  51.088  0.00  0.00    -0.563 OA
ATOM     38  H35 <0> A   1     -26.363 -11.579  51.484  0.00  0.00    +0.386 HD
ENDBRANCH  32  37
ENDBRANCH  29  30
ENDBRANCH  28  29
ENDBRANCH   7  28
TORSDOF 11
