REMARK VINA RESULT:      -6.3      1.746      2.084
REMARK  Name = CHEMBL60053
REMARK  8 active torsions:
REMARK  status: ('A' for Active; 'I' for Inactive)
REMARK    1  A    between atoms: C4_4  and  C7_7
REMARK    2  A    between atoms: C7_7  and  C8_8
REMARK    3  A    between atoms: C8_8  and  C9_9
REMARK    4  A    between atoms: C9_9  and  C10_11
REMARK    5  A    between atoms: C10_11  and  C11_12
REMARK    6  A    between atoms: C11_12  and  C12_14
REMARK    7  A    between atoms: C11_12  and  O4_18
REMARK    8  A    between atoms: C12_14  and  C13_15
REMARK                            x       y       z     vdW  Elec       q    Type
REMARK                         _______ _______ _______ _____ _____    ______ ____
ROOT
ATOM      1  C9  <0> A   1     -12.793   9.881  43.755  0.00  0.00    +0.349 C 
ATOM      2  O1  <0> A   1     -12.000  10.636  44.265  0.00  0.00    -0.429 OA
ENDROOT
BRANCH   1   3
ATOM      3  C8  <0> A   1     -12.793   8.421  44.130  0.00  0.00    +0.026 C 
BRANCH   3   4
ATOM      4  C7  <0> A   1     -13.742   7.657  43.203  0.00  0.00    +0.083 C 
BRANCH   4   8
ATOM      5  C1  <0> A   1     -15.416   4.337  45.306  0.00  0.00    -0.010 A 
ATOM      6  C2  <0> A   1     -16.048   4.832  44.180  0.00  0.00    +0.001 A 
ATOM      7  C3  <0> A   1     -15.506   5.907  43.500  0.00  0.00    +0.004 A 
ATOM      8  C4  <0> A   1     -14.333   6.486  43.945  0.00  0.00    -0.077 A 
ATOM      9  C5  <0> A   1     -13.701   5.991  45.071  0.00  0.00    +0.004 A 
ATOM     10  C6  <0> A   1     -14.242   4.916  45.750  0.00  0.00    +0.001 A 
ENDBRANCH   4   8
ENDBRANCH   3   4
ENDBRANCH   1   3
BRANCH   1  11
ATOM     11  C10 <0> A   1     -13.783  10.399  42.743  0.00  0.00    -0.015 C 
BRANCH  11  12
ATOM     12  C11 <0> A   1     -13.043  11.197  41.668  0.00  0.00    +0.240 C 
BRANCH  12  13
ATOM     13  O4  <0> A   1     -11.754  10.621  41.450  0.00  0.00    -0.532 OA
ATOM     14  H15 <0> A   1     -11.069  10.954  42.046  0.00  0.00    +0.351 HD
ENDBRANCH  12  13
BRANCH  12  15
ATOM     15  C12 <0> A   1     -13.845  11.162  40.365  0.00  0.00    -0.096 C 
BRANCH  15  16
ATOM     16  C13 <0> A   1     -12.897  11.076  39.196  0.00  0.00    +0.490 C 
ATOM     17  O2  <0> A   1     -12.400  12.090  38.737  0.00  0.00    -0.679 OA
ATOM     18  O3  <0> A   1     -12.628   9.990  38.710  0.00  0.00    -0.712 OA
ENDBRANCH  15  16
ENDBRANCH  12  15
ENDBRANCH  11  12
ENDBRANCH   1  11
TORSDOF 8
