REMARK VINA RESULT:      -7.2      3.667      7.278
REMARK  Name = CHEMBL443275
REMARK  14 active torsions:
REMARK  status: ('A' for Active; 'I' for Inactive)
REMARK    1  A    between atoms: C1_1  and  C2_2
REMARK    2  A    between atoms: C4_4  and  C27_34
REMARK    3  A    between atoms: C5_5  and  O1_22
REMARK    4  A    between atoms: C6_6  and  C8_8
REMARK    5  A    between atoms: C8_8  and  C9_9
REMARK    6  A    between atoms: C8_8  and  C15_16
REMARK    7  A    between atoms: O1_22  and  C21_23
REMARK    8  A    between atoms: C21_23  and  C22_24
REMARK    9  A    between atoms: C22_24  and  C23_25
REMARK   10  A    between atoms: C22_24  and  O5_33
REMARK   11  A    between atoms: C23_25  and  C24_26
REMARK   12  A    between atoms: C24_26  and  C25_28
REMARK   13  A    between atoms: C24_26  and  O4_32
REMARK   14  A    between atoms: C25_28  and  C26_29
REMARK                            x       y       z     vdW  Elec       q    Type
REMARK                         _______ _______ _______ _____ _____    ______ ____
ROOT
ATOM      1  C1  <0> A   1      -9.202   7.874  45.224  0.00  0.00    +0.087 C 
ATOM      2  C2  <0> A   1     -10.646   7.861  45.653  0.00  0.00    -0.088 A 
ATOM      3  C3  <0> A   1     -11.064   6.995  46.647  0.00  0.00    +0.009 A 
ATOM      4  C4  <0> A   1     -12.387   6.981  47.042  0.00  0.00    -0.097 A 
ATOM      5  C5  <0> A   1     -13.298   7.838  46.442  0.00  0.00    +0.097 A 
ATOM      6  C6  <0> A   1     -12.877   8.706  45.444  0.00  0.00    -0.075 A 
ATOM      7  C7  <0> A   1     -11.551   8.720  45.057  0.00  0.00    +0.013 A 
ATOM      8  C27 <0> A   1     -12.842   6.036  48.124  0.00  0.00    +0.096 C 
ENDROOT
BRANCH   6   9
ATOM      9  C8  <0> A   1     -13.864   9.638  44.790  0.00  0.00    +0.091 C 
BRANCH   9  10
ATOM     10  C9  <0> A   1     -13.549   9.753  43.321  0.00  0.00    -0.071 A 
ATOM     11  C10 <0> A   1     -13.401  10.999  42.741  0.00  0.00    +0.042 A 
ATOM     12  C11 <0> A   1     -13.111  11.105  41.394  0.00  0.00    -0.021 A 
ATOM     13  C12 <0> A   1     -12.968   9.963  40.625  0.00  0.00    +0.091 A 
ATOM     14  C13 <0> A   1     -13.117   8.715  41.206  0.00  0.00    -0.014 A 
ATOM     15  C14 <0> A   1     -13.400   8.611  42.555  0.00  0.00    +0.056 A 
ATOM     16  F1  <0> A   1     -12.686  10.066  39.307  0.00  0.00    -0.143 F 
ENDBRANCH   9  10
BRANCH   9  17
ATOM     17  C15 <0> A   1     -13.770  11.020  45.441  0.00  0.00    +0.000 C 
ATOM     18  C16 <0> A   1     -12.431  11.150  46.170  0.00  0.00    +0.010 C 
ATOM     19  C17 <0> A   1     -12.337  12.530  46.821  0.00  0.00    +0.003 C 
ATOM     20  C18 <0> A   1     -13.482  12.701  47.823  0.00  0.00    +0.001 C 
ATOM     21  C19 <0> A   1     -14.821  12.571  47.093  0.00  0.00    +0.003 C 
ATOM     22  C20 <0> A   1     -14.915  11.190  46.441  0.00  0.00    +0.013 C 
ENDBRANCH   9  17
ENDBRANCH   6   9
BRANCH   5  23
ATOM     23  O1  <0> A   1     -14.601   7.827  46.828  0.00  0.00    -0.318 OA
BRANCH  23  24
ATOM     24  C21 <0> A   1     -15.468   6.909  46.159  0.00  0.00    +0.147 C 
BRANCH  24  25
ATOM     25  C22 <0> A   1     -16.811   6.851  46.889  0.00  0.00    +0.224 C 
BRANCH  25  26
ATOM     26  O5  <0> A   1     -17.852   6.572  45.949  0.00  0.00    -0.531 OA
ATOM     27  H31 <0> A   1     -18.690   7.012  46.148  0.00  0.00    +0.363 HD
ENDBRANCH  25  26
BRANCH  25  28
ATOM     28  C23 <0> A   1     -16.770   5.747  47.947  0.00  0.00    -0.043 C 
BRANCH  28  29
ATOM     29  C24 <0> A   1     -17.683   6.125  49.115  0.00  0.00    +0.234 C 
BRANCH  29  30
ATOM     30  O4  <0> A   1     -18.110   7.481  48.967  0.00  0.00    -0.527 OA
ATOM     31  H30 <0> A   1     -19.070   7.587  48.913  0.00  0.00    +0.350 HD
ENDBRANCH  29  30
BRANCH  29  32
ATOM     32  C25 <0> A   1     -18.904   5.205  49.127  0.00  0.00    -0.101 C 
BRANCH  32  33
ATOM     33  C26 <0> A   1     -20.130   5.990  48.737  0.00  0.00    +0.491 C 
ATOM     34  O2  <0> A   1     -20.413   6.133  47.560  0.00  0.00    -0.680 OA
ATOM     35  O3  <0> A   1     -20.839   6.483  49.599  0.00  0.00    -0.713 OA
ENDBRANCH  32  33
ENDBRANCH  29  32
ENDBRANCH  28  29
ENDBRANCH  25  28
ENDBRANCH  24  25
ENDBRANCH  23  24
ENDBRANCH   5  23
TORSDOF 12
