REMARK VINA RESULT:      -7.9      3.430      5.523
REMARK  Name = CHEMBL157724
REMARK  8 active torsions:
REMARK  status: ('A' for Active; 'I' for Inactive)
REMARK    1  A    between atoms: C1_1  and  C2_2
REMARK    2  A    between atoms: C2_2  and  C3_3
REMARK    3  A    between atoms: C2_2  and  C4_4
REMARK    4  A    between atoms: C5_5  and  C21_24
REMARK    5  A    between atoms: C6_6  and  C15_17
REMARK    6  A    between atoms: C8_8  and  C9_10
REMARK    7  A    between atoms: C22_25  and  C23_26
REMARK    8  A    between atoms: C25_28  and  O3_34
REMARK                            x       y       z     vdW  Elec       q    Type
REMARK                         _______ _______ _______ _____ _____    ______ ____
ROOT
ATOM      1  C4  <0> A   1     -27.290  -4.682  51.436  0.00  0.00    +0.166 A 
ATOM      2  C5  <0> A   1     -26.705  -5.907  51.116  0.00  0.00    -0.097 A 
ATOM      3  C6  <0> A   1     -25.333  -5.942  50.784  0.00  0.00    +0.013 A 
ATOM      4  C7  <0> A   1     -24.623  -4.743  50.793  0.00  0.00    -0.014 A 
ATOM      5  C8  <0> A   1     -25.288  -3.566  51.125  0.00  0.00    +0.177 A 
ATOM      6  N1  <0> A   1     -26.581  -3.573  51.427  0.00  0.00    -0.468 NA
ENDROOT
BRANCH   5   7
ATOM      7  C9  <0> A   1     -24.542  -2.285  51.139  0.00  0.00    -0.061 A 
ATOM      8  C10 <0> A   1     -23.380  -2.160  51.900  0.00  0.00    +0.065 A 
ATOM      9  C11 <0> A   1     -22.690  -0.967  51.909  0.00  0.00    -0.016 A 
ATOM     10  C12 <0> A   1     -23.149   0.108  51.164  0.00  0.00    +0.111 A 
ATOM     11  C13 <0> A   1     -24.303  -0.012  50.407  0.00  0.00    -0.018 A 
ATOM     12  C14 <0> A   1     -24.997  -1.203  50.386  0.00  0.00    +0.097 A 
ATOM     13  F1  <0> A   1     -22.470   1.276  51.177  0.00  0.00    -0.136 F 
ENDBRANCH   5   7
BRANCH   3  14
ATOM     14  C15 <0> A   1     -24.667  -7.219  50.437  0.00  0.00    -0.067 A 
ATOM     15  C16 <0> A   1     -24.543  -7.604  49.103  0.00  0.00    +0.076 A 
ATOM     16  C17 <0> A   1     -23.922  -8.793  48.784  0.00  0.00    -0.013 A 
ATOM     17  C18 <0> A   1     -23.420  -9.606  49.789  0.00  0.00    +0.109 A 
ATOM     18  C19 <0> A   1     -23.540  -9.227  51.116  0.00  0.00    -0.013 A 
ATOM     19  C20 <0> A   1     -24.155  -8.037  51.444  0.00  0.00    +0.061 A 
ATOM     20  F2  <0> A   1     -22.813 -10.770  49.472  0.00  0.00    -0.136 F 
ENDBRANCH   3  14
BRANCH   1  22
ATOM     21  C1  <0> A   1     -28.953  -3.688  52.984  0.00  0.00    +0.038 C 
ATOM     22  C2  <0> A   1     -28.753  -4.627  51.793  0.00  0.00    +0.043 C 
ATOM     23  C3  <0> A   1     -29.551  -4.108  50.594  0.00  0.00    +0.039 C 
ENDBRANCH   1  22
BRANCH   2  24
ATOM     24  C21 <0> A   1     -27.505  -7.146  51.123  0.00  0.00    +0.047 C 
ATOM     25  C22 <0> A   1     -28.028  -7.606  49.993  0.00  0.00    -0.010 C 
BRANCH  25  26
ATOM     26  C23 <0> A   1     -28.846  -8.872  50.002  0.00  0.00    +0.242 C 
ATOM     27  C24 <0> A   1     -30.302  -8.541  49.661  0.00  0.00    +0.050 C 
ATOM     28  C25 <0> A   1     -31.138  -9.824  49.711  0.00  0.00    +0.186 C 
ATOM     29  C26 <0> A   1     -31.045 -10.422  51.121  0.00  0.00    +0.024 C 
ATOM     30  C27 <0> A   1     -29.583 -10.544  51.489  0.00  0.00    +0.498 C 
ATOM     31  O1  <0> A   1     -29.140 -11.574  51.938  0.00  0.00    -0.450 OA
ATOM     32  O2  <0> A   1     -28.789  -9.469  51.302  0.00  0.00    -0.369 OA
BRANCH  28  33
ATOM     33  O3  <0> A   1     -30.636 -10.760  48.756  0.00  0.00    -0.564 OA
ATOM     34  H25 <0> A   1     -30.194 -10.351  47.998  0.00  0.00    +0.387 HD
ENDBRANCH  28  33
ENDBRANCH  25  26
ENDBRANCH   2  24
TORSDOF 6
