REMARK  Name = CHEMBL424546
REMARK  3 active torsions:
REMARK  status: ('A' for Active; 'I' for Inactive)
REMARK    1  A    between atoms: C13_14  and  C14_15
REMARK    2  A    between atoms: C14_15  and  C15_16
REMARK    3  A    between atoms: C17_18  and  O3_24
REMARK                            x       y       z     vdW  Elec       q    Type
REMARK                         _______ _______ _______ _____ _____    ______ ____
ROOT
ATOM      1  C1  <0> A   1       0.116   1.106  -0.089  0.00  0.00    +0.001 A 
ATOM      2  C2  <0> A   1       1.256   1.890  -0.072  0.00  0.00    +0.071 A 
ATOM      3  C3  <0> A   1       2.501   1.298  -0.043  0.00  0.00    -0.097 A 
ATOM      4  C4  <0> A   1       2.620  -0.089  -0.031  0.00  0.00    -0.021 A 
ATOM      5  C5  <0> A   1       1.467  -0.876  -0.048  0.00  0.00    +0.009 A 
ATOM      6  C6  <0> A   1       0.223  -0.275  -0.077  0.00  0.00    +0.105 A 
ATOM      7  F1  <0> A   1      -0.892  -1.038  -0.092  0.00  0.00    -0.135 F 
ATOM      8  C7  <0> A   1       4.056  -0.461  -0.000  0.00  0.00    -0.026 A 
ATOM      9  C8  <0> A   1       4.682  -1.709   0.021  0.00  0.00    +0.065 A 
ATOM     10  C9  <0> A   1       6.060  -1.789   0.048  0.00  0.00    -0.020 A 
ATOM     11  C10 <0> A   1       6.825  -0.636   0.054  0.00  0.00    +0.053 A 
ATOM     12  C11 <0> A   1       6.211   0.605   0.033  0.00  0.00    +0.006 A 
ATOM     13  C12 <0> A   1       4.834   0.693   0.006  0.00  0.00    -0.050 A 
ATOM     14  C13 <0> A   1       3.895   1.874  -0.021  0.00  0.00    +0.111 C 
ATOM     15 Cl1  <0> A   1       7.173   2.050   0.042  0.00  0.00    -0.056 Cl
ATOM     16 Cl2  <0> A   1       6.836  -3.342   0.074  0.00  0.00    -0.053 Cl
ENDROOT
BRANCH  14  17
ATOM     17  C14 <0> A   1       4.091   2.731   1.232  0.00  0.00    +0.087 C 
BRANCH  17  18
ATOM     18  C15 <0> A   1       3.746   1.906   2.473  0.00  0.00    +0.196 C 
ATOM     19  C16 <0> A   1       3.797   2.803   3.713  0.00  0.00    +0.041 C 
ATOM     20  C17 <0> A   1       3.492   1.964   4.959  0.00  0.00    +0.184 C 
ATOM     21  C18 <0> A   1       4.534   0.844   5.070  0.00  0.00    +0.016 C 
ATOM     22  C19 <0> A   1       4.586   0.111   3.747  0.00  0.00    +0.493 C 
ATOM     23  O1  <0> A   1       4.533  -1.095   3.703  0.00  0.00    -0.448 OA
ATOM     24  O2  <0> A   1       4.695   0.843   2.619  0.00  0.00    -0.357 OA
BRANCH  20  25
ATOM     25  O3  <0> A   1       2.186   1.396   4.846  0.00  0.00    -0.562 OA
ATOM     26  H15 <0> A   1       1.927   0.852   5.602  0.00  0.00    +0.386 HD
ENDBRANCH  20  25
ENDBRANCH  17  18
ENDBRANCH  14  17
TORSDOF 3
