REMARK VINA RESULT:      -8.1      1.274      2.169
REMARK  Name = CHEMBL155610
REMARK  8 active torsions:
REMARK  status: ('A' for Active; 'I' for Inactive)
REMARK    1  A    between atoms: C1_1  and  C2_2
REMARK    2  A    between atoms: C2_2  and  C3_3
REMARK    3  A    between atoms: C2_2  and  C4_4
REMARK    4  A    between atoms: C5_5  and  C20_24
REMARK    5  A    between atoms: C6_6  and  C14_17
REMARK    6  A    between atoms: C7_8  and  C8_10
REMARK    7  A    between atoms: C21_25  and  C22_26
REMARK    8  A    between atoms: C24_28  and  O3_34
REMARK                            x       y       z     vdW  Elec       q    Type
REMARK                         _______ _______ _______ _____ _____    ______ ____
ROOT
ATOM      1  C4  <0> A   1     -27.017  -3.861  50.594  0.00  0.00    +0.211 A 
ATOM      2  C5  <0> A   1     -26.224  -2.826  51.101  0.00  0.00    -0.164 A 
ATOM      3  C6  <0> A   1     -24.876  -3.105  51.404  0.00  0.00    +0.245 A 
ATOM      4  N1  <0> A   1     -24.415  -4.335  51.196  0.00  0.00    -0.507 NA
ATOM      5  C7  <0> A   1     -25.206  -5.282  50.714  0.00  0.00    +0.375 A 
ATOM      6  N2  <0> A   1     -26.481  -5.055  50.424  0.00  0.00    -0.507 NA
ENDROOT
BRANCH   5   7
ATOM      7  C8  <0> A   1     -24.651  -6.640  50.499  0.00  0.00    -0.063 A 
ATOM      8  C9  <0> A   1     -24.179  -7.382  51.582  0.00  0.00    +0.109 A 
ATOM      9  C10 <0> A   1     -23.663  -8.645  51.376  0.00  0.00    -0.022 A 
ATOM     10  C11 <0> A   1     -23.614  -9.176  50.097  0.00  0.00    +0.123 A 
ATOM     11  C12 <0> A   1     -24.081  -8.442  49.019  0.00  0.00    -0.022 A 
ATOM     12  C13 <0> A   1     -24.604  -7.181  49.215  0.00  0.00    +0.108 A 
ATOM     13  F1  <0> A   1     -23.107 -10.413  49.902  0.00  0.00    -0.134 F 
ENDBRANCH   5   7
BRANCH   3  14
ATOM     14  C14 <0> A   1     -23.989  -2.049  51.942  0.00  0.00    -0.079 A 
ATOM     15  C15 <0> A   1     -23.185  -1.304  51.080  0.00  0.00    +0.089 A 
ATOM     16  C16 <0> A   1     -22.361  -0.320  51.585  0.00  0.00    -0.001 A 
ATOM     17  C17 <0> A   1     -22.331  -0.072  52.948  0.00  0.00    +0.121 A 
ATOM     18  C18 <0> A   1     -23.128  -0.810  53.810  0.00  0.00    -0.021 A 
ATOM     19  C19 <0> A   1     -23.959  -1.791  53.313  0.00  0.00    +0.094 A 
ATOM     20  F2  <0> A   1     -21.522   0.892  53.440  0.00  0.00    -0.135 F 
ENDBRANCH   3  14
BRANCH   1  22
ATOM     21  C1  <0> A   1     -28.787  -4.265  48.905  0.00  0.00    +0.046 C 
ATOM     22  C2  <0> A   1     -28.465  -3.618  50.254  0.00  0.00    +0.045 C 
ATOM     23  C3  <0> A   1     -29.353  -4.231  51.339  0.00  0.00    +0.047 C 
ENDBRANCH   1  22
BRANCH   2  24
ATOM     24  C20 <0> A   1     -26.784  -1.477  51.313  0.00  0.00    +0.048 C 
ATOM     25  C21 <0> A   1     -26.702  -0.565  50.351  0.00  0.00    +0.002 C 
BRANCH  25  26
ATOM     26  C22 <0> A   1     -27.272   0.812  50.567  0.00  0.00    +0.230 C 
ATOM     27  C23 <0> A   1     -28.735   0.697  51.004  0.00  0.00    +0.043 C 
ATOM     28  C24 <0> A   1     -29.300   2.097  51.263  0.00  0.00    +0.179 C 
ATOM     29  C25 <0> A   1     -28.468   2.773  52.361  0.00  0.00    +0.021 C 
ATOM     30  C26 <0> A   1     -27.008   2.684  51.974  0.00  0.00    +0.492 C 
ATOM     31  O1  <0> A   1     -26.296   3.658  52.010  0.00  0.00    -0.444 OA
ATOM     32  O2  <0> A   1     -26.526   1.485  51.586  0.00  0.00    -0.358 OA
BRANCH  28  33
ATOM     33  O3  <0> A   1     -30.661   1.994  51.685  0.00  0.00    -0.555 OA
ATOM     34  H24 <0> A   1     -31.037   2.824  52.008  0.00  0.00    +0.387 HD
ENDBRANCH  28  33
ENDBRANCH  25  26
ENDBRANCH   2  24
TORSDOF 6
