REMARK VINA RESULT:      -7.4     15.710     19.985
REMARK  Name = CHEMBL562679
REMARK  15 active torsions:
REMARK  status: ('A' for Active; 'I' for Inactive)
REMARK    1  A    between atoms: C1_1  and  C2_2
REMARK    2  A    between atoms: C2_2  and  C3_3
REMARK    3  A    between atoms: C3_3  and  C4_4
REMARK    4  A    between atoms: C3_3  and  C6_6
REMARK    5  A    between atoms: C3_3  and  C12_12
REMARK    6  A    between atoms: C4_4  and  C5_5
REMARK    7  A    between atoms: C15_15  and  C24_25
REMARK    8  A    between atoms: C16_16  and  C18_18
REMARK    9  A    between atoms: C25_26  and  C26_27
REMARK   10  A    between atoms: C26_27  and  C27_29
REMARK   11  A    between atoms: C26_27  and  O4_37
REMARK   12  A    between atoms: C27_29  and  C28_30
REMARK   13  A    between atoms: C28_30  and  C29_32
REMARK   14  A    between atoms: C28_30  and  O3_36
REMARK   15  A    between atoms: C29_32  and  C30_33
REMARK                            x       y       z     vdW  Elec       q    Type
REMARK                         _______ _______ _______ _____ _____    ______ ____
ROOT
ATOM      1  C12 <0> A   1     -15.827   7.133  47.081  0.00  0.00    -0.073 A 
ATOM      2  C13 <0> A   1     -15.585   6.197  46.089  0.00  0.00    +0.022 A 
ATOM      3  C14 <0> A   1     -14.703   6.477  45.066  0.00  0.00    +0.010 A 
ATOM      4  C15 <0> A   1     -14.050   7.708  45.027  0.00  0.00    -0.030 A 
ATOM      5  C16 <0> A   1     -14.296   8.657  46.034  0.00  0.00    -0.047 A 
ATOM      6  C17 <0> A   1     -15.193   8.359  47.056  0.00  0.00    +0.035 A 
ENDROOT
BRANCH   5   7
ATOM      7  C18 <0> A   1     -13.608   9.970  46.006  0.00  0.00    -0.051 A 
ATOM      8  C19 <0> A   1     -14.134  11.018  45.253  0.00  0.00    +0.060 A 
ATOM      9  C20 <0> A   1     -13.491  12.239  45.230  0.00  0.00    -0.009 A 
ATOM     10  C21 <0> A   1     -12.324  12.422  45.953  0.00  0.00    +0.100 A 
ATOM     11  C22 <0> A   1     -11.796  11.383  46.703  0.00  0.00    -0.016 A 
ATOM     12  C23 <0> A   1     -12.436  10.161  46.737  0.00  0.00    +0.052 A 
ATOM     13  F1  <0> A   1     -11.696  13.619  45.927  0.00  0.00    -0.140 F 
ENDBRANCH   5   7
BRANCH   4  14
ATOM     14  C24 <0> A   1     -13.105   8.013  43.933  0.00  0.00    -0.002 C 
ATOM     15  C25 <0> A   1     -13.235   7.413  42.757  0.00  0.00    -0.047 C 
BRANCH  15  16
ATOM     16  C26 <0> A   1     -12.270   7.723  41.642  0.00  0.00    +0.249 C 
BRANCH  16  17
ATOM     17  O4  <0> A   1     -11.459   6.577  41.381  0.00  0.00    -0.536 OA
ATOM     18  H32 <0> A   1     -10.603   6.783  40.981  0.00  0.00    +0.364 HD
ENDBRANCH  16  17
BRANCH  16  19
ATOM     19  C27 <0> A   1     -13.050   8.095  40.380  0.00  0.00    -0.041 C 
BRANCH  19  20
ATOM     20  C28 <0> A   1     -12.465   9.375  39.778  0.00  0.00    +0.231 C 
BRANCH  20  21
ATOM     21  O3  <0> A   1     -12.784   9.436  38.388  0.00  0.00    -0.528 OA
ATOM     22  H31 <0> A   1     -12.226  10.043  37.881  0.00  0.00    +0.350 HD
ENDBRANCH  20  21
BRANCH  20  23
ATOM     23  C29 <0> A   1     -13.058  10.591  40.493  0.00  0.00    -0.101 C 
BRANCH  23  24
ATOM     24  C30 <0> A   1     -13.928  11.361  39.533  0.00  0.00    +0.490 C 
ATOM     25  O1  <0> A   1     -15.138  11.214  39.554  0.00  0.00    -0.681 OA
ATOM     26  O2  <0> A   1     -13.421  12.131  38.734  0.00  0.00    -0.713 OA
ENDBRANCH  23  24
ENDBRANCH  20  23
ENDBRANCH  19  20
ENDBRANCH  16  19
ENDBRANCH  15  16
ENDBRANCH   4  14
BRANCH   1  27
ATOM     27  C3  <0> A   1     -16.792   6.813  48.194  0.00  0.00    +0.023 C 
BRANCH  27  28
ATOM     28  C6  <0> A   1     -16.190   7.218  49.514  0.00  0.00    -0.055 A 
ATOM     29  C7  <0> A   1     -16.806   8.182  50.289  0.00  0.00    +0.009 A 
ATOM     30  C8  <0> A   1     -16.254   8.553  51.501  0.00  0.00    +0.002 A 
ATOM     31  C9  <0> A   1     -15.084   7.959  51.937  0.00  0.00    -0.009 A 
ATOM     32  C10 <0> A   1     -14.468   6.994  51.163  0.00  0.00    -0.001 A 
ATOM     33  C11 <0> A   1     -15.023   6.620  49.953  0.00  0.00    +0.003 A 
ENDBRANCH  27  28
BRANCH  27  35
ATOM     34  C1  <0> A   1     -18.130   4.998  49.271  0.00  0.00    +0.013 C 
ATOM     35  C2  <0> A   1     -17.079   5.310  48.203  0.00  0.00    +0.025 C 
ENDBRANCH  27  35
BRANCH  27  36
ATOM     36  C4  <0> A   1     -18.098   7.579  47.972  0.00  0.00    +0.029 C 
ATOM     37  C5  <0> A   1     -18.648   7.257  46.581  0.00  0.00    +0.012 C 
ENDBRANCH  27  36
ENDBRANCH   1  27
TORSDOF 13
