REMARK VINA RESULT:      -7.2      4.522      8.424
REMARK  Name = CHEMBL121052
REMARK  12 active torsions:
REMARK  status: ('A' for Active; 'I' for Inactive)
REMARK    1  A    between atoms: C3_3  and  C5_6
REMARK    2  A    between atoms: C6_7  and  C16_28
REMARK    3  A    between atoms: C7_9  and  C15_24
REMARK    4  A    between atoms: N2_10  and  C8_11
REMARK    5  A    between atoms: C8_11  and  C9_12
REMARK    6  A    between atoms: C9_12  and  C10_13
REMARK    7  A    between atoms: C10_13  and  C11_15
REMARK    8  A    between atoms: C10_13  and  O4_23
REMARK    9  A    between atoms: C11_15  and  C12_16
REMARK   10  A    between atoms: C12_16  and  C13_18
REMARK   11  A    between atoms: C12_16  and  O3_22
REMARK   12  A    between atoms: C13_18  and  C14_19
REMARK                            x       y       z     vdW  Elec       q    Type
REMARK                         _______ _______ _______ _____ _____    ______ ____
ROOT
ATOM      1  C5  <0> A   1     -13.381   8.224  44.324  0.00  0.00    +0.115 C 
ATOM      2  C6  <0> A   1     -13.571   7.982  42.973  0.00  0.00    +0.073 C 
ATOM      3  N1  <0> A   1     -13.934   6.692  42.840  0.00  0.00    -0.413 NA
ATOM      4  C7  <0> A   1     -13.982   6.128  44.014  0.00  0.00    +0.119 C 
ATOM      5  N2  <0> A   1     -13.642   7.033  44.966  0.00  0.00    -0.413 N 
ENDROOT
BRANCH   2   6
ATOM      6  C16 <0> A   1     -13.404   8.963  41.876  0.00  0.00    -0.015 A 
ATOM      7  C17 <0> A   1     -13.805  10.286  42.054  0.00  0.00    +0.066 A 
ATOM      8  C18 <0> A   1     -13.647  11.196  41.028  0.00  0.00    -0.013 A 
ATOM      9  C19 <0> A   1     -13.091  10.796  39.823  0.00  0.00    +0.103 A 
ATOM     10  C20 <0> A   1     -12.691   9.482  39.642  0.00  0.00    -0.015 A 
ATOM     11  C21 <0> A   1     -12.838   8.566  40.663  0.00  0.00    +0.080 A 
ATOM     12  F4  <0> A   1     -12.938  11.690  38.823  0.00  0.00    -0.139 F 
ENDBRANCH   2   6
BRANCH   1  15
ATOM     13  C1  <0> A   1     -11.582  11.238  45.736  0.00  0.00    -0.020 C 
ATOM     14  C2  <0> A   1     -11.708  10.014  45.118  0.00  0.00    +0.032 C 
ATOM     15  C3  <0> A   1     -12.977   9.493  44.946  0.00  0.00    -0.117 C 
ATOM     16  S1  <0> A   1     -13.997  10.764  45.675  0.00  0.00    +0.081 S 
ATOM     17  C4  <0> A   1     -12.697  11.889  46.155  0.00  0.00    +0.032 C 
ENDBRANCH   1  15
BRANCH   4  18
ATOM     18  C15 <0> A   1     -14.352   4.689  44.272  0.00  0.00    +0.565 C 
ATOM     19  F1  <0> A   1     -13.691   4.237  45.419  0.00  0.00    -0.148 F 
ATOM     20  F2  <0> A   1     -15.734   4.590  44.459  0.00  0.00    -0.166 F 
ATOM     21  F3  <0> A   1     -13.972   3.907  43.175  0.00  0.00    -0.161 F 
ENDBRANCH   4  18
BRANCH   5  22
ATOM     22  C8  <0> A   1     -13.569   6.791  46.409  0.00  0.00    +0.309 C 
BRANCH  22  23
ATOM     23  C9  <0> A   1     -14.923   7.109  47.049  0.00  0.00    -0.012 C 
BRANCH  23  24
ATOM     24  C10 <0> A   1     -15.354   5.940  47.938  0.00  0.00    +0.223 C 
BRANCH  24  25
ATOM     25  O4  <0> A   1     -15.441   6.382  49.294  0.00  0.00    -0.537 OA
ATOM     26  H15 <0> A   1     -14.893   7.152  49.494  0.00  0.00    +0.365 HD
ENDBRANCH  24  25
BRANCH  24  27
ATOM     27  C11 <0> A   1     -16.720   5.427  47.479  0.00  0.00    -0.045 C 
BRANCH  27  28
ATOM     28  C12 <0> A   1     -17.811   6.392  47.947  0.00  0.00    +0.233 C 
BRANCH  28  29
ATOM     29  O3  <0> A   1     -18.584   6.817  46.822  0.00  0.00    -0.527 OA
ATOM     30  H14 <0> A   1     -18.923   6.091  46.281  0.00  0.00    +0.350 HD
ENDBRANCH  28  29
BRANCH  28  31
ATOM     31  C13 <0> A   1     -18.720   5.685  48.954  0.00  0.00    -0.101 C 
BRANCH  31  32
ATOM     32  C14 <0> A   1     -20.146   6.123  48.737  0.00  0.00    +0.491 C 
ATOM     33  O1  <0> A   1     -20.532   7.187  49.191  0.00  0.00    -0.681 OA
ATOM     34  O2  <0> A   1     -20.912   5.414  48.109  0.00  0.00    -0.712 OA
ENDBRANCH  31  32
ENDBRANCH  28  31
ENDBRANCH  27  28
ENDBRANCH  24  27
ENDBRANCH  23  24
ENDBRANCH  22  23
ENDBRANCH   5  22
TORSDOF 12
