REMARK VINA RESULT:      -7.2     13.953     17.151
REMARK  Name = CHEMBL306113
REMARK  14 active torsions:
REMARK  status: ('A' for Active; 'I' for Inactive)
REMARK    1  A    between atoms: C1_1  and  C2_2
REMARK    2  A    between atoms: C2_2  and  C3_3
REMARK    3  A    between atoms: C3_3  and  C4_4
REMARK    4  A    between atoms: C3_3  and  C5_5
REMARK    5  A    between atoms: C3_3  and  C6_6
REMARK    6  A    between atoms: C6_6  and  O2_8
REMARK    7  A    between atoms: O2_8  and  C7_9
REMARK    8  A    between atoms: C9_12  and  C25_38
REMARK    9  A    between atoms: C13_19  and  C18_26
REMARK   10  A    between atoms: C14_21  and  C17_25
REMARK   11  A    between atoms: C18_26  and  C19_27
REMARK   12  A    between atoms: C19_27  and  C20_28
REMARK   13  A    between atoms: C22_31  and  O5_37
REMARK   14  A    between atoms: C26_39  and  C27_40
REMARK                            x       y       z     vdW  Elec       q    Type
REMARK                         _______ _______ _______ _____ _____    ______ ____
ROOT
ATOM      1  C7  <0> A   1     -24.242  -0.515  50.859  0.00  0.00    +0.181 C 
ATOM      2  C8  <0> A   1     -23.922   0.937  50.488  0.00  0.00    +0.023 C 
ATOM      3  C9  <0> A   1     -23.880   1.803  51.747  0.00  0.00    +0.019 C 
ATOM      4  C10 <0> A   1     -22.822   1.267  52.718  0.00  0.00    +0.033 C 
ATOM      5  C11 <0> A   1     -23.174  -0.174  53.081  0.00  0.00    +0.039 C 
ATOM      6  C12 <0> A   1     -23.164  -1.031  51.809  0.00  0.00    +0.014 C 
ATOM      7  C13 <0> A   1     -23.423  -2.485  52.204  0.00  0.00    +0.003 C 
ATOM      8  C14 <0> A   1     -22.215  -2.986  53.003  0.00  0.00    +0.023 C 
ATOM      9  C15 <0> A   1     -21.816  -1.986  54.048  0.00  0.00    -0.050 C 
ATOM     10  C16 <0> A   1     -22.213  -0.751  54.072  0.00  0.00    -0.043 C 
ATOM     11  C17 <0> A   1     -21.040  -3.212  52.050  0.00  0.00    +0.027 C 
ENDROOT
BRANCH   3  12
ATOM     12  C25 <0> A   1     -25.229   1.778  52.418  0.00  0.00    -0.015 C 
ATOM     13  C26 <0> A   1     -26.113   2.705  52.146  0.00  0.00    -0.075 C 
ATOM     14  C27 <0> A   1     -27.408   2.760  52.917  0.00  0.00    +0.057 C 
ENDBRANCH   3  12
BRANCH   1  15
ATOM     15  O2  <0> A   1     -25.517  -0.576  51.501  0.00  0.00    -0.327 OA
BRANCH  15  16
ATOM     16  C6  <0> A   1     -26.532  -1.095  50.793  0.00  0.00    +0.465 C 
ATOM     17  O1  <0> A   1     -26.435  -1.211  49.594  0.00  0.00    -0.504 OA
BRANCH  16  18
ATOM     18  C3  <0> A   1     -27.792  -1.533  51.493  0.00  0.00    -0.051 C 
ATOM     19  C4  <0> A   1     -28.401  -2.724  50.750  0.00  0.00    +0.060 C 
ATOM     20  C5  <0> A   1     -28.794  -0.376  51.510  0.00  0.00    +0.059 C 
BRANCH  18  22
ATOM     21  C1  <0> A   1     -28.023  -0.901  53.899  0.00  0.00    +0.023 C 
ATOM     22  C2  <0> A   1     -27.462  -1.943  52.929  0.00  0.00    +0.035 C 
ENDBRANCH  18  22
ENDBRANCH  16  18
ENDBRANCH  15  16
ENDBRANCH   1  15
BRANCH   7  23
ATOM     23  C18 <0> A   1     -23.599  -3.338  50.946  0.00  0.00    +0.019 C 
BRANCH  23  24
ATOM     24  C19 <0> A   1     -24.758  -4.316  51.151  0.00  0.00    +0.050 C 
BRANCH  24  25
ATOM     25  C20 <0> A   1     -24.307  -5.728  50.774  0.00  0.00    +0.194 C 
ATOM     26  C21 <0> A   1     -25.304  -6.337  49.784  0.00  0.00    +0.039 C 
ATOM     27  C22 <0> A   1     -24.871  -7.766  49.442  0.00  0.00    +0.183 C 
ATOM     28  C23 <0> A   1     -24.831  -8.594  50.732  0.00  0.00    +0.021 C 
ATOM     29  C24 <0> A   1     -23.993  -7.850  51.748  0.00  0.00    +0.496 C 
ATOM     30  O3  <0> A   1     -23.115  -8.412  52.360  0.00  0.00    -0.453 OA
ATOM     31  O4  <0> A   1     -24.252  -6.542  51.951  0.00  0.00    -0.366 OA
BRANCH  27  32
ATOM     32  O5  <0> A   1     -23.573  -7.743  48.844  0.00  0.00    -0.563 OA
ATOM     33  H37 <0> A   1     -22.886  -7.364  49.410  0.00  0.00    +0.386 HD
ENDBRANCH  27  32
ENDBRANCH  24  25
ENDBRANCH  23  24
ENDBRANCH   7  23
TORSDOF 9
