REMARK VINA RESULT:      -7.2      4.839      8.248
REMARK  Name = CHEMBL121014
REMARK  13 active torsions:
REMARK  status: ('A' for Active; 'I' for Inactive)
REMARK    1  A    between atoms: C4_4  and  C7_7
REMARK    2  A    between atoms: C7_7  and  C8_8
REMARK    3  A    between atoms: C8_8  and  C9_9
REMARK    4  A    between atoms: C9_9  and  C10_10
REMARK    5  A    between atoms: N2_17  and  C24_32
REMARK    6  A    between atoms: C16_18  and  C17_19
REMARK    7  A    between atoms: C18_20  and  C19_21
REMARK    8  A    between atoms: C19_21  and  C20_23
REMARK    9  A    between atoms: C19_21  and  O4_31
REMARK   10  A    between atoms: C20_23  and  C21_24
REMARK   11  A    between atoms: C21_24  and  C22_26
REMARK   12  A    between atoms: C21_24  and  O3_30
REMARK   13  A    between atoms: C22_26  and  C23_27
REMARK                            x       y       z     vdW  Elec       q    Type
REMARK                         _______ _______ _______ _____ _____    ______ ____
ROOT
ATOM      1  C10 <0> A   1     -13.774   6.107  44.053  0.00  0.00    +0.084 C 
ATOM      2  C11 <0> A   1     -14.564   4.831  43.739  0.00  0.00    +0.027 C 
ATOM      3  C12 <0> A   1     -14.941   4.123  45.043  0.00  0.00    +0.015 C 
ATOM      4  C13 <0> A   1     -16.028   4.923  45.771  0.00  0.00    +0.104 C 
ATOM      5  C14 <0> A   1     -15.576   6.360  45.858  0.00  0.00    -0.212 C 
ATOM      6  C15 <0> A   1     -14.548   6.902  45.078  0.00  0.00    +0.095 C 
ATOM      7  N1  <0> A   1     -14.401   8.158  45.396  0.00  0.00    -0.275 NA
ATOM      8  N2  <0> A   1     -15.332   8.482  46.395  0.00  0.00    -0.329 N 
ATOM      9  C16 <0> A   1     -16.056   7.354  46.672  0.00  0.00    +0.125 C 
ENDROOT
BRANCH   8  10
ATOM     10  C24 <0> A   1     -15.491   9.736  46.999  0.00  0.00    +0.149 A 
ATOM     11  C25 <0> A   1     -16.377  10.659  46.460  0.00  0.00    +0.048 A 
ATOM     12  C26 <0> A   1     -16.533  11.895  47.058  0.00  0.00    +0.017 A 
ATOM     13  C27 <0> A   1     -15.807  12.212  48.194  0.00  0.00    +0.097 A 
ATOM     14  C28 <0> A   1     -14.922  11.293  48.732  0.00  0.00    +0.008 A 
ATOM     15  C29 <0> A   1     -14.768  10.055  48.141  0.00  0.00    +0.055 A 
ATOM     16  F1  <0> A   1     -15.962  13.421  48.777  0.00  0.00    -0.135 F 
ENDBRANCH   8  10
BRANCH   9  17
ATOM     17  C17 <0> A   1     -17.144   7.231  47.658  0.00  0.00    +0.027 C 
ATOM     18  C18 <0> A   1     -18.401   7.102  47.247  0.00  0.00    -0.027 C 
BRANCH  18  19
ATOM     19  C19 <0> A   1     -19.514   6.976  48.255  0.00  0.00    +0.255 C 
BRANCH  19  20
ATOM     20  O4  <0> A   1     -20.436   5.973  47.825  0.00  0.00    -0.536 OA
ATOM     21  H28 <0> A   1     -20.813   5.450  48.546  0.00  0.00    +0.368 HD
ENDBRANCH  19  20
BRANCH  19  22
ATOM     22  C20 <0> A   1     -18.929   6.582  49.613  0.00  0.00    -0.040 C 
BRANCH  22  23
ATOM     23  C21 <0> A   1     -19.890   7.009  50.725  0.00  0.00    +0.232 C 
BRANCH  23  24
ATOM     24  O3  <0> A   1     -21.055   7.601  50.147  0.00  0.00    -0.528 OA
ATOM     25  H27 <0> A   1     -20.864   8.297  49.504  0.00  0.00    +0.351 HD
ENDBRANCH  23  24
BRANCH  23  26
ATOM     26  C22 <0> A   1     -20.294   5.784  51.547  0.00  0.00    -0.101 C 
BRANCH  26  27
ATOM     27  C23 <0> A   1     -21.642   5.292  51.086  0.00  0.00    +0.491 C 
ATOM     28  O1  <0> A   1     -22.650   5.630  51.682  0.00  0.00    -0.681 OA
ATOM     29  O2  <0> A   1     -21.724   4.558  50.117  0.00  0.00    -0.712 OA
ENDBRANCH  26  27
ENDBRANCH  23  26
ENDBRANCH  22  23
ENDBRANCH  19  22
ENDBRANCH  18  19
ENDBRANCH   9  17
BRANCH   1  30
ATOM     30  C9  <0> A   1     -13.605   6.935  42.777  0.00  0.00    +0.024 C 
BRANCH  30  31
ATOM     31  C8  <0> A   1     -12.134   7.326  42.614  0.00  0.00    +0.028 C 
BRANCH  31  32
ATOM     32  C7  <0> A   1     -11.939   8.776  43.060  0.00  0.00    +0.057 C 
BRANCH  32  36
ATOM     33  C1  <0> A   1     -14.404  11.337  40.690  0.00  0.00    -0.009 A 
ATOM     34  C2  <0> A   1     -14.486  11.381  42.069  0.00  0.00    -0.000 A 
ATOM     35  C3  <0> A   1     -13.689  10.552  42.836  0.00  0.00    -0.001 A 
ATOM     36  C4  <0> A   1     -12.810   9.679  42.224  0.00  0.00    -0.075 A 
ATOM     37  C5  <0> A   1     -12.727   9.635  40.844  0.00  0.00    +0.004 A 
ATOM     38  C6  <0> A   1     -13.523  10.464  40.078  0.00  0.00    +0.002 A 
ENDBRANCH  32  36
ENDBRANCH  31  32
ENDBRANCH  30  31
ENDBRANCH   1  30
TORSDOF 13
