REMARK VINA RESULT:      -7.8     20.551     24.322
REMARK  Name = CHEMBL346446
REMARK  10 active torsions:
REMARK  status: ('A' for Active; 'I' for Inactive)
REMARK    1  A    between atoms: C1_1  and  C2_2
REMARK    2  A    between atoms: C2_2  and  C3_3
REMARK    3  A    between atoms: C2_2  and  C4_4
REMARK    4  A    between atoms: C5_5  and  C17_20
REMARK    5  A    between atoms: C6_6  and  C11_13
REMARK    6  A    between atoms: C7_8  and  C8_10
REMARK    7  A    between atoms: C8_10  and  C9_11
REMARK    8  A    between atoms: C8_10  and  C10_12
REMARK    9  A    between atoms: C18_21  and  C19_22
REMARK   10  A    between atoms: C21_24  and  O3_30
REMARK                            x       y       z     vdW  Elec       q    Type
REMARK                         _______ _______ _______ _____ _____    ______ ____
ROOT
ATOM      1  C4  <0> A   1     -24.935  -2.912  51.262  0.00  0.00    +0.204 A 
ATOM      2  C5  <0> A   1     -25.671  -4.093  51.132  0.00  0.00    -0.160 A 
ATOM      3  C6  <0> A   1     -27.033  -3.989  50.782  0.00  0.00    +0.230 A 
ATOM      4  N1  <0> A   1     -27.553  -2.779  50.591  0.00  0.00    -0.505 NA
ATOM      5  C7  <0> A   1     -26.814  -1.697  50.726  0.00  0.00    +0.334 A 
ATOM      6  N2  <0> A   1     -25.539  -1.754  51.058  0.00  0.00    -0.511 NA
ENDROOT
BRANCH   3   7
ATOM      7  C11 <0> A   1     -27.868  -5.203  50.630  0.00  0.00    -0.072 A 
ATOM      8  C12 <0> A   1     -28.118  -5.725  49.361  0.00  0.00    +0.086 A 
ATOM      9  C13 <0> A   1     -28.896  -6.855  49.223  0.00  0.00    -0.018 A 
ATOM     10  C14 <0> A   1     -29.429  -7.472  50.345  0.00  0.00    +0.120 A 
ATOM     11  C15 <0> A   1     -29.184  -6.957  51.607  0.00  0.00    -0.019 A 
ATOM     12  C16 <0> A   1     -28.402  -5.831  51.755  0.00  0.00    +0.096 A 
ATOM     13  F1  <0> A   1     -30.192  -8.578  50.206  0.00  0.00    -0.135 F 
ENDBRANCH   3   7
BRANCH   1  15
ATOM     14  C1  <0> A   1     -22.632  -2.472  50.452  0.00  0.00    +0.044 C 
ATOM     15  C2  <0> A   1     -23.475  -2.958  51.633  0.00  0.00    +0.045 C 
ATOM     16  C3  <0> A   1     -23.228  -2.053  52.843  0.00  0.00    +0.045 C 
ENDBRANCH   1  15
BRANCH   5  17
ATOM     17  C8  <0> A   1     -27.449  -0.350  50.500  0.00  0.00    +0.070 C 
ATOM     18  C9  <0> A   1     -28.617  -0.167  51.470  0.00  0.00    +0.045 C 
ATOM     19  C10 <0> A   1     -26.411   0.749  50.738  0.00  0.00    +0.045 C 
ENDBRANCH   5  17
BRANCH   2  20
ATOM     20  C17 <0> A   1     -25.041  -5.410  51.356  0.00  0.00    +0.052 C 
ATOM     21  C18 <0> A   1     -24.712  -6.172  50.322  0.00  0.00    -0.007 C 
BRANCH  21  22
ATOM     22  C19 <0> A   1     -24.069  -7.516  50.551  0.00  0.00    +0.244 C 
ATOM     23  C20 <0> A   1     -25.070  -8.624  50.214  0.00  0.00    +0.051 C 
ATOM     24  C21 <0> A   1     -24.427  -9.989  50.487  0.00  0.00    +0.186 C 
ATOM     25  C22 <0> A   1     -24.030 -10.062  51.967  0.00  0.00    +0.024 C 
ATOM     26  C23 <0> A   1     -23.205  -8.837  52.298  0.00  0.00    +0.498 C 
ATOM     27  O1  <0> A   1     -22.152  -8.938  52.884  0.00  0.00    -0.449 OA
ATOM     28  O2  <0> A   1     -23.679  -7.631  51.923  0.00  0.00    -0.370 OA
BRANCH  24  29
ATOM     29  O3  <0> A   1     -23.265 -10.142  49.669  0.00  0.00    -0.563 OA
ATOM     30  H27 <0> A   1     -23.013  -9.340  49.190  0.00  0.00    +0.388 HD
ENDBRANCH  24  29
ENDBRANCH  21  22
ENDBRANCH   2  20
TORSDOF 6
