REMARK VINA RESULT:      -8.0      0.000      0.000
REMARK  Name = CHEMBL348225
REMARK  13 active torsions:
REMARK  status: ('A' for Active; 'I' for Inactive)
REMARK    1  A    between atoms: C1_1  and  C2_2
REMARK    2  A    between atoms: C2_2  and  C3_3
REMARK    3  A    between atoms: C2_2  and  C4_4
REMARK    4  A    between atoms: C5_5  and  C19_20
REMARK    5  A    between atoms: C6_6  and  C14_15
REMARK    6  A    between atoms: C7_7  and  C8_9
REMARK    7  A    between atoms: C20_21  and  C21_22
REMARK    8  A    between atoms: C21_22  and  C22_24
REMARK    9  A    between atoms: C21_22  and  O4_32
REMARK   10  A    between atoms: C22_24  and  C23_25
REMARK   11  A    between atoms: C23_25  and  C24_27
REMARK   12  A    between atoms: C23_25  and  O3_31
REMARK   13  A    between atoms: C24_27  and  C25_28
REMARK                            x       y       z     vdW  Elec       q    Type
REMARK                         _______ _______ _______ _____ _____    ______ ____
ROOT
ATOM      1  C4  <0> A   1     -14.893   6.271  45.043  0.00  0.00    -0.118 C 
ATOM      2  C5  <0> A   1     -14.022   7.305  44.815  0.00  0.00    -0.085 C 
ATOM      3  C6  <0> A   1     -14.106   8.433  45.620  0.00  0.00    -0.073 C 
ATOM      4  C7  <0> A   1     -15.050   8.468  46.606  0.00  0.00    -0.128 C 
ATOM      5  S1  <0> A   1     -15.859   6.889  46.410  0.00  0.00    +0.045 S 
ENDROOT
BRANCH   4   6
ATOM      6  C8  <0> A   1     -15.334   9.543  47.581  0.00  0.00    +0.002 A 
ATOM      7  C9  <0> A   1     -14.669   9.571  48.807  0.00  0.00    +0.019 A 
ATOM      8  C10 <0> A   1     -14.939  10.577  49.712  0.00  0.00    +0.007 A 
ATOM      9  C11 <0> A   1     -15.867  11.556  49.407  0.00  0.00    +0.007 A 
ATOM     10  C12 <0> A   1     -16.530  11.534  48.192  0.00  0.00    +0.009 A 
ATOM     11  C13 <0> A   1     -16.264  10.538  47.276  0.00  0.00    +0.029 A 
ENDBRANCH   4   6
BRANCH   3  12
ATOM     12  C14 <0> A   1     -13.172   9.597  45.410  0.00  0.00    +0.041 C 
ATOM     13  C15 <0> A   1     -12.653  10.109  46.770  0.00  0.00    +0.017 C 
ATOM     14  C16 <0> A   1     -12.581  11.646  46.595  0.00  0.00    +0.010 C 
ATOM     15  C17 <0> A   1     -13.839  11.952  45.745  0.00  0.00    +0.005 C 
ATOM     16  C18 <0> A   1     -13.926  10.769  44.758  0.00  0.00    +0.016 C 
ENDBRANCH   3  12
BRANCH   1  18
ATOM     17  C1  <0> A   1     -14.206   3.889  45.070  0.00  0.00    +0.034 C 
ATOM     18  C2  <0> A   1     -15.010   4.954  44.321  0.00  0.00    +0.084 C 
ATOM     19  C3  <0> A   1     -16.480   4.534  44.259  0.00  0.00    +0.033 C 
ENDBRANCH   1  18
BRANCH   2  20
ATOM     20  C19 <0> A   1     -13.017   7.221  43.735  0.00  0.00    +0.037 C 
ATOM     21  C20 <0> A   1     -13.327   7.619  42.509  0.00  0.00    -0.066 C 
BRANCH  21  22
ATOM     22  C21 <0> A   1     -12.266   7.662  41.439  0.00  0.00    +0.251 C 
BRANCH  22  23
ATOM     23  O4  <0> A   1     -11.573   6.414  41.405  0.00  0.00    -0.539 OA
ATOM     24  H31 <0> A   1     -11.654   5.942  40.565  0.00  0.00    +0.363 HD
ENDBRANCH  22  23
BRANCH  22  25
ATOM     25  C22 <0> A   1     -12.922   7.919  40.080  0.00  0.00    -0.043 C 
BRANCH  25  26
ATOM     26  C23 <0> A   1     -12.267   9.134  39.420  0.00  0.00    +0.231 C 
BRANCH  26  27
ATOM     27  O3  <0> A   1     -12.722   9.245  38.069  0.00  0.00    -0.528 OA
ATOM     28  H30 <0> A   1     -13.618   9.601  37.984  0.00  0.00    +0.349 HD
ENDBRANCH  26  27
BRANCH  26  29
ATOM     29  C24 <0> A   1     -12.647  10.400  40.192  0.00  0.00    -0.102 C 
BRANCH  29  30
ATOM     30  C25 <0> A   1     -13.080  11.468  39.222  0.00  0.00    +0.490 C 
ATOM     31  O1  <0> A   1     -12.244  12.103  38.603  0.00  0.00    -0.681 OA
ATOM     32  O2  <0> A   1     -14.266  11.698  39.058  0.00  0.00    -0.713 OA
ENDBRANCH  29  30
ENDBRANCH  26  29
ENDBRANCH  25  26
ENDBRANCH  22  25
ENDBRANCH  21  22
ENDBRANCH   2  20
TORSDOF 11
