REMARK VINA RESULT:      -7.0     12.085     15.962
REMARK  Name = CHEMBL121014
REMARK  13 active torsions:
REMARK  status: ('A' for Active; 'I' for Inactive)
REMARK    1  A    between atoms: C4_4  and  C7_7
REMARK    2  A    between atoms: C7_7  and  C8_8
REMARK    3  A    between atoms: C8_8  and  C9_9
REMARK    4  A    between atoms: C9_9  and  C10_10
REMARK    5  A    between atoms: N2_17  and  C24_32
REMARK    6  A    between atoms: C16_18  and  C17_19
REMARK    7  A    between atoms: C18_20  and  C19_21
REMARK    8  A    between atoms: C19_21  and  C20_23
REMARK    9  A    between atoms: C19_21  and  O4_31
REMARK   10  A    between atoms: C20_23  and  C21_24
REMARK   11  A    between atoms: C21_24  and  C22_26
REMARK   12  A    between atoms: C21_24  and  O3_30
REMARK   13  A    between atoms: C22_26  and  C23_27
REMARK                            x       y       z     vdW  Elec       q    Type
REMARK                         _______ _______ _______ _____ _____    ______ ____
ROOT
ATOM      1  C10 <0> A   1     -26.990   0.495  50.254  0.00  0.00    +0.084 C 
ATOM      2  C11 <0> A   1     -27.677  -0.862  50.453  0.00  0.00    +0.027 C 
ATOM      3  C12 <0> A   1     -26.887  -1.952  49.726  0.00  0.00    +0.015 C 
ATOM      4  C13 <0> A   1     -25.572  -2.222  50.469  0.00  0.00    +0.104 C 
ATOM      5  C14 <0> A   1     -24.886  -0.899  50.706  0.00  0.00    -0.212 C 
ATOM      6  C15 <0> A   1     -25.529   0.341  50.607  0.00  0.00    +0.095 C 
ATOM      7  N1  <0> A   1     -24.664   1.281  50.865  0.00  0.00    -0.275 NA
ATOM      8  N2  <0> A   1     -23.424   0.688  51.145  0.00  0.00    -0.329 N 
ATOM      9  C16 <0> A   1     -23.577  -0.669  51.042  0.00  0.00    +0.125 C 
ENDROOT
BRANCH   8  10
ATOM     10  C24 <0> A   1     -22.241   1.363  51.471  0.00  0.00    +0.149 A 
ATOM     11  C25 <0> A   1     -21.763   2.369  50.641  0.00  0.00    +0.048 A 
ATOM     12  C26 <0> A   1     -20.597   3.035  50.965  0.00  0.00    +0.017 A 
ATOM     13  C27 <0> A   1     -19.905   2.701  52.117  0.00  0.00    +0.097 A 
ATOM     14  C28 <0> A   1     -20.379   1.698  52.946  0.00  0.00    +0.008 A 
ATOM     15  C29 <0> A   1     -21.548   1.034  52.629  0.00  0.00    +0.055 A 
ATOM     16  F1  <0> A   1     -18.765   3.354  52.432  0.00  0.00    -0.135 F 
ENDBRANCH   8  10
BRANCH   9  17
ATOM     17  C17 <0> A   1     -22.534  -1.687  51.253  0.00  0.00    +0.027 C 
ATOM     18  C18 <0> A   1     -22.525  -2.407  52.371  0.00  0.00    -0.027 C 
BRANCH  18  19
ATOM     19  C19 <0> A   1     -21.458  -3.449  52.587  0.00  0.00    +0.255 C 
BRANCH  19  20
ATOM     20  O4  <0> A   1     -20.574  -3.466  51.464  0.00  0.00    -0.536 OA
ATOM     21  H28 <0> A   1     -20.743  -2.766  50.818  0.00  0.00    +0.368 HD
ENDBRANCH  19  20
BRANCH  19  22
ATOM     22  C20 <0> A   1     -20.666  -3.113  53.853  0.00  0.00    -0.040 C 
BRANCH  22  23
ATOM     23  C21 <0> A   1     -19.179  -2.997  53.508  0.00  0.00    +0.232 C 
BRANCH  23  24
ATOM     24  O3  <0> A   1     -18.824  -1.619  53.392  0.00  0.00    -0.528 OA
ATOM     25  H27 <0> A   1     -19.527  -1.060  53.032  0.00  0.00    +0.351 HD
ENDBRANCH  23  24
BRANCH  23  26
ATOM     26  C22 <0> A   1     -18.348  -3.647  54.616  0.00  0.00    -0.101 C 
BRANCH  26  27
ATOM     27  C23 <0> A   1     -17.661  -4.874  54.074  0.00  0.00    +0.491 C 
ATOM     28  O1  <0> A   1     -18.301  -5.708  53.454  0.00  0.00    -0.681 OA
ATOM     29  O2  <0> A   1     -16.466  -5.033  54.252  0.00  0.00    -0.712 OA
ENDBRANCH  26  27
ENDBRANCH  23  26
ENDBRANCH  22  23
ENDBRANCH  19  22
ENDBRANCH  18  19
ENDBRANCH   9  17
BRANCH   1  30
ATOM     30  C9  <0> A   1     -27.635   1.538  51.168  0.00  0.00    +0.024 C 
BRANCH  30  31
ATOM     31  C8  <0> A   1     -28.557   0.838  52.170  0.00  0.00    +0.028 C 
BRANCH  31  32
ATOM     32  C7  <0> A   1     -28.223   1.311  53.587  0.00  0.00    +0.057 C 
BRANCH  32  36
ATOM     33  C1  <0> A   1     -24.351  -0.117  54.688  0.00  0.00    -0.009 A 
ATOM     34  C2  <0> A   1     -24.606   1.242  54.664  0.00  0.00    -0.000 A 
ATOM     35  C3  <0> A   1     -25.858   1.703  54.307  0.00  0.00    -0.001 A 
ATOM     36  C4  <0> A   1     -26.857   0.807  53.974  0.00  0.00    -0.075 A 
ATOM     37  C5  <0> A   1     -26.602  -0.552  53.998  0.00  0.00    +0.004 A 
ATOM     38  C6  <0> A   1     -25.349  -1.014  54.356  0.00  0.00    +0.002 A 
ENDBRANCH  32  36
ENDBRANCH  31  32
ENDBRANCH  30  31
ENDBRANCH   1  30
TORSDOF 13
