REMARK VINA RESULT:      -7.3     16.298     18.502
REMARK  Name = CHEMBL159951
REMARK  14 active torsions:
REMARK  status: ('A' for Active; 'I' for Inactive)
REMARK    1  A    between atoms: C1_1  and  C2_2
REMARK    2  A    between atoms: C2_2  and  C3_3
REMARK    3  A    between atoms: C2_2  and  C4_4
REMARK    4  A    between atoms: C5_5  and  C20_22
REMARK    5  A    between atoms: C6_6  and  C14_15
REMARK    6  A    between atoms: N1_8  and  C8_9
REMARK    7  A    between atoms: C20_22  and  C21_23
REMARK    8  A    between atoms: C21_23  and  C22_24
REMARK    9  A    between atoms: C22_24  and  C23_26
REMARK   10  A    between atoms: C22_24  and  O4_34
REMARK   11  A    between atoms: C23_26  and  C24_27
REMARK   12  A    between atoms: C24_27  and  C25_29
REMARK   13  A    between atoms: C24_27  and  O3_33
REMARK   14  A    between atoms: C25_29  and  C26_30
REMARK                            x       y       z     vdW  Elec       q    Type
REMARK                         _______ _______ _______ _____ _____    ______ ____
ROOT
ATOM      1  C4  <0> A   1     -26.356  -2.602  51.815  0.00  0.00    +0.030 C 
ATOM      2  C5  <0> A   1     -25.175  -3.207  52.043  0.00  0.00    -0.135 C 
ATOM      3  C6  <0> A   1     -24.230  -2.192  52.338  0.00  0.00    -0.132 C 
ATOM      4  C7  <0> A   1     -24.887  -1.003  52.276  0.00  0.00    +0.164 C 
ATOM      5  N1  <0> A   1     -26.185  -1.255  51.950  0.00  0.00    -0.431 N 
ENDROOT
BRANCH   3   6
ATOM      6  C14 <0> A   1     -22.794  -2.391  52.656  0.00  0.00    -0.005 A 
ATOM      7  C15 <0> A   1     -21.936  -2.938  51.705  0.00  0.00    +0.052 A 
ATOM      8  C16 <0> A   1     -20.601  -3.120  52.005  0.00  0.00    -0.015 A 
ATOM      9  C17 <0> A   1     -20.114  -2.759  53.250  0.00  0.00    +0.088 A 
ATOM     10  C18 <0> A   1     -20.963  -2.215  54.199  0.00  0.00    -0.019 A 
ATOM     11  C19 <0> A   1     -22.298  -2.023  53.906  0.00  0.00    +0.040 A 
ATOM     12  F1  <0> A   1     -18.807  -2.940  53.540  0.00  0.00    -0.143 F 
ENDBRANCH   3   6
BRANCH   5  13
ATOM     13  C8  <0> A   1     -27.231  -0.243  51.778  0.00  0.00    +0.236 C 
ATOM     14  C9  <0> A   1     -26.986   0.526  50.478  0.00  0.00    +0.012 C 
ATOM     15  C10 <0> A   1     -28.078   1.582  50.297  0.00  0.00    +0.017 C 
ATOM     16  C11 <0> A   1     -28.048   2.554  51.478  0.00  0.00    +0.007 C 
ATOM     17  C12 <0> A   1     -28.293   1.784  52.778  0.00  0.00    +0.017 C 
ATOM     18  C13 <0> A   1     -27.201   0.728  52.959  0.00  0.00    +0.012 C 
ENDBRANCH   5  13
BRANCH   1  20
ATOM     19  C1  <0> A   1     -28.739  -2.865  52.446  0.00  0.00    +0.020 C 
ATOM     20  C2  <0> A   1     -27.647  -3.295  51.465  0.00  0.00    +0.068 C 
ATOM     21  C3  <0> A   1     -28.061  -2.913  50.042  0.00  0.00    +0.020 C 
ENDBRANCH   1  20
BRANCH   2  22
ATOM     22  C20 <0> A   1     -24.907  -4.690  51.993  0.00  0.00    +0.094 C 
BRANCH  22  23
ATOM     23  C21 <0> A   1     -24.603  -5.105  50.553  0.00  0.00    -0.014 C 
BRANCH  23  24
ATOM     24  C22 <0> A   1     -25.252  -6.461  50.266  0.00  0.00    +0.207 C 
BRANCH  24  25
ATOM     25  O4  <0> A   1     -25.633  -6.527  48.891  0.00  0.00    -0.542 OA
ATOM     26  H35 <0> A   1     -25.326  -5.779  48.361  0.00  0.00    +0.362 HD
ENDBRANCH  24  25
BRANCH  24  27
ATOM     27  C23 <0> A   1     -24.251  -7.578  50.572  0.00  0.00    -0.054 C 
BRANCH  27  28
ATOM     28  C24 <0> A   1     -24.091  -8.471  49.339  0.00  0.00    +0.229 C 
BRANCH  28  29
ATOM     29  O3  <0> A   1     -23.227  -7.830  48.398  0.00  0.00    -0.528 OA
ATOM     30  H34 <0> A   1     -22.657  -7.151  48.786  0.00  0.00    +0.349 HD
ENDBRANCH  28  29
BRANCH  28  31
ATOM     31  C25 <0> A   1     -23.486  -9.812  49.756  0.00  0.00    -0.104 C 
BRANCH  31  32
ATOM     32  C26 <0> A   1     -24.250 -10.933  49.098  0.00  0.00    +0.490 C 
ATOM     33  O1  <0> A   1     -25.464 -10.869  49.000  0.00  0.00    -0.681 OA
ATOM     34  O2  <0> A   1     -23.655 -11.904  48.663  0.00  0.00    -0.714 OA
ENDBRANCH  31  32
ENDBRANCH  28  31
ENDBRANCH  27  28
ENDBRANCH  24  27
ENDBRANCH  23  24
ENDBRANCH  22  23
ENDBRANCH   2  22
TORSDOF 12
