REMARK VINA RESULT:      -7.3     15.102     19.247
REMARK  Name = CHEMBL400874
REMARK  18 active torsions:
REMARK  status: ('A' for Active; 'I' for Inactive)
REMARK    1  A    between atoms: C1_1  and  C2_2
REMARK    2  A    between atoms: C2_2  and  C3_3
REMARK    3  A    between atoms: C2_2  and  N1_4
REMARK    4  A    between atoms: C4_5  and  C29_34
REMARK    5  A    between atoms: C5_6  and  C23_27
REMARK    6  A    between atoms: C6_7  and  C17_21
REMARK    7  A    between atoms: C7_8  and  C8_9
REMARK    8  A    between atoms: N2_11  and  C9_12
REMARK    9  A    between atoms: C9_12  and  C10_13
REMARK   10  A    between atoms: C13_16  and  C16_19
REMARK   11  A    between atoms: C29_34  and  C30_35
REMARK   12  A    between atoms: C30_35  and  C31_36
REMARK   13  A    between atoms: C31_36  and  C32_38
REMARK   14  A    between atoms: C31_36  and  O5_46
REMARK   15  A    between atoms: C32_38  and  C33_39
REMARK   16  A    between atoms: C33_39  and  C34_41
REMARK   17  A    between atoms: C33_39  and  O4_45
REMARK   18  A    between atoms: C34_41  and  C35_42
REMARK                            x       y       z     vdW  Elec       q    Type
REMARK                         _______ _______ _______ _____ _____    ______ ____
ROOT
ATOM      1  N1  <0> A   1     -25.156  -3.241  51.189  0.00  0.00    -0.401 N 
ATOM      2  C4  <0> A   1     -25.589  -4.524  51.153  0.00  0.00    +0.074 C 
ATOM      3  C5  <0> A   1     -26.876  -4.572  51.597  0.00  0.00    -0.121 C 
ATOM      4  C6  <0> A   1     -27.263  -3.247  51.926  0.00  0.00    -0.060 C 
ATOM      5  C7  <0> A   1     -26.164  -2.436  51.667  0.00  0.00    -0.031 C 
ENDROOT
BRANCH   3   6
ATOM      6  C23 <0> A   1     -27.720  -5.787  51.713  0.00  0.00    -0.009 A 
ATOM      7  C24 <0> A   1     -28.056  -6.287  52.969  0.00  0.00    +0.050 A 
ATOM      8  C25 <0> A   1     -28.841  -7.417  53.073  0.00  0.00    -0.016 A 
ATOM      9  C26 <0> A   1     -29.295  -8.054  51.929  0.00  0.00    +0.095 A 
ATOM     10  C27 <0> A   1     -28.964  -7.560  50.678  0.00  0.00    -0.018 A 
ATOM     11  C28 <0> A   1     -28.185  -6.427  50.565  0.00  0.00    +0.056 A 
ATOM     12  F1  <0> A   1     -30.063  -9.161  52.035  0.00  0.00    -0.142 F 
ENDBRANCH   3   6
BRANCH   4  13
ATOM     13  C17 <0> A   1     -28.579  -2.814  52.450  0.00  0.00    -0.009 A 
ATOM     14  C18 <0> A   1     -29.751  -3.178  51.787  0.00  0.00    +0.025 A 
ATOM     15  C19 <0> A   1     -30.973  -2.772  52.280  0.00  0.00    +0.003 A 
ATOM     16  C20 <0> A   1     -31.038  -2.003  53.428  0.00  0.00    -0.003 A 
ATOM     17  C21 <0> A   1     -29.880  -1.638  54.090  0.00  0.00    -0.000 A 
ATOM     18  C22 <0> A   1     -28.651  -2.044  53.611  0.00  0.00    +0.010 A 
ENDBRANCH   4  13
BRANCH   5  19
ATOM     19  C8  <0> A   1     -26.095  -0.987  51.864  0.00  0.00    +0.605 C 
ATOM     20  O1  <0> A   1     -25.520  -0.532  52.836  0.00  0.00    -0.518 OA
ATOM     21  N2  <0> A   1     -26.668  -0.156  50.970  0.00  0.00    -0.718 N 
ATOM     22  H10 <0> A   1     -27.182  -0.519  50.232  0.00  0.00    +0.405 HD
BRANCH  21  23
ATOM     23  C9  <0> A   1     -26.515   1.293  51.114  0.00  0.00    +0.323 C 
BRANCH  23  24
ATOM     24  C10 <0> A   1     -27.833   1.900  51.518  0.00  0.00    -0.081 A 
ATOM     25  C11 <0> A   1     -28.995   1.156  51.410  0.00  0.00    +0.039 A 
ATOM     26  C12 <0> A   1     -30.206   1.705  51.778  0.00  0.00    +0.066 A 
ATOM     27  C13 <0> A   1     -30.258   3.013  52.261  0.00  0.00    -0.018 A 
ATOM     28  C14 <0> A   1     -29.082   3.758  52.368  0.00  0.00    +0.065 A 
ATOM     29  C15 <0> A   1     -27.876   3.196  52.001  0.00  0.00    +0.037 A 
BRANCH  27  30
ATOM     30  C16 <0> A   1     -31.511   3.590  52.645  0.00  0.00    +0.248 C 
ATOM     31  N3  <0> A   1     -32.505   4.047  52.950  0.00  0.00    -0.408 NA
ENDBRANCH  27  30
ENDBRANCH  23  24
ENDBRANCH  21  23
ENDBRANCH   5  19
BRANCH   1  33
ATOM     32  C1  <0> A   1     -23.946  -1.481  49.997  0.00  0.00    +0.046 C 
ATOM     33  C2  <0> A   1     -23.822  -2.783  50.791  0.00  0.00    +0.229 C 
ATOM     34  C3  <0> A   1     -22.971  -2.541  52.039  0.00  0.00    +0.043 C 
ENDBRANCH   1  33
BRANCH   2  35
ATOM     35  C29 <0> A   1     -24.777  -5.708  50.694  0.00  0.00    +0.116 C 
BRANCH  35  36
ATOM     36  C30 <0> A   1     -24.313  -6.510  51.911  0.00  0.00    -0.007 C 
BRANCH  36  37
ATOM     37  C31 <0> A   1     -23.796  -7.876  51.454  0.00  0.00    +0.212 C 
BRANCH  37  38
ATOM     38  O5  <0> A   1     -23.183  -8.546  52.557  0.00  0.00    -0.541 OA
ATOM     39  H35 <0> A   1     -23.781  -8.712  53.299  0.00  0.00    +0.362 HD
ENDBRANCH  37  38
BRANCH  37  40
ATOM     40  C32 <0> A   1     -24.964  -8.715  50.932  0.00  0.00    -0.051 C 
BRANCH  40  41
ATOM     41  C33 <0> A   1     -24.434  -9.798  49.990  0.00  0.00    +0.230 C 
BRANCH  41  42
ATOM     42  O4  <0> A   1     -23.036  -9.595  49.769  0.00  0.00    -0.528 OA
ATOM     43  H34 <0> A   1     -22.524 -10.413  49.719  0.00  0.00    +0.349 HD
ENDBRANCH  41  42
BRANCH  41  44
ATOM     44  C34 <0> A   1     -24.656 -11.175  50.619  0.00  0.00    -0.103 C 
BRANCH  44  45
ATOM     45  C35 <0> A   1     -24.449 -12.243  49.577  0.00  0.00    +0.490 C 
ATOM     46  O2  <0> A   1     -25.097 -13.275  49.623  0.00  0.00    -0.681 OA
ATOM     47  O3  <0> A   1     -23.632 -12.076  48.687  0.00  0.00    -0.713 OA
ENDBRANCH  44  45
ENDBRANCH  41  44
ENDBRANCH  40  41
ENDBRANCH  37  40
ENDBRANCH  36  37
ENDBRANCH  35  36
ENDBRANCH   2  35
TORSDOF 16
