REMARK VINA RESULT:      -7.6     16.595     21.314
REMARK  Name = CHEMBL387514
REMARK  15 active torsions:
REMARK  status: ('A' for Active; 'I' for Inactive)
REMARK    1  A    between atoms: C1_1  and  C2_2
REMARK    2  A    between atoms: C2_2  and  C3_3
REMARK    3  A    between atoms: C2_2  and  N1_4
REMARK    4  A    between atoms: C4_5  and  C25_29
REMARK    5  A    between atoms: C5_6  and  C19_22
REMARK    6  A    between atoms: N2_11  and  C12_15
REMARK    7  A    between atoms: C12_15  and  C13_16
REMARK    8  A    between atoms: C25_29  and  C26_30
REMARK    9  A    between atoms: C26_30  and  C27_31
REMARK   10  A    between atoms: C27_31  and  C28_33
REMARK   11  A    between atoms: C27_31  and  O5_41
REMARK   12  A    between atoms: C28_33  and  C29_34
REMARK   13  A    between atoms: C29_34  and  C30_36
REMARK   14  A    between atoms: C29_34  and  O4_40
REMARK   15  A    between atoms: C30_36  and  C31_37
REMARK                            x       y       z     vdW  Elec       q    Type
REMARK                         _______ _______ _______ _____ _____    ______ ____
ROOT
ATOM      1  N1  <0> A   1     -29.163  -6.806  50.944  0.00  0.00    -0.392 N 
ATOM      2  C4  <0> A   1     -28.058  -6.119  50.602  0.00  0.00    +0.099 C 
ATOM      3  C5  <0> A   1     -28.078  -4.919  51.248  0.00  0.00    -0.158 C 
ATOM      4  C6  <0> A   1     -29.258  -4.874  52.025  0.00  0.00    -0.074 C 
ATOM      5  C7  <0> A   1     -29.916  -6.051  51.831  0.00  0.00    -0.042 C 
ATOM      6  C8  <0> A   1     -31.166  -6.512  52.417  0.00  0.00    +0.595 C 
ATOM      7  O1  <0> A   1     -31.528  -7.621  52.071  0.00  0.00    -0.567 OA
ATOM      8  N2  <0> A   1     -31.956  -5.899  53.267  0.00  0.00    -0.574 N 
ATOM      9  C9  <0> A   1     -31.855  -4.567  53.799  0.00  0.00    +0.260 C 
ATOM     10  C10 <0> A   1     -30.449  -4.119  54.094  0.00  0.00    +0.021 C 
ATOM     11  C11 <0> A   1     -29.671  -3.714  52.875  0.00  0.00    +0.099 C 
ENDROOT
BRANCH   3  12
ATOM     12  C19 <0> A   1     -27.048  -3.853  51.154  0.00  0.00    -0.006 A 
ATOM     13  C20 <0> A   1     -25.966  -3.849  52.032  0.00  0.00    +0.048 A 
ATOM     14  C21 <0> A   1     -25.011  -2.857  51.941  0.00  0.00    -0.016 A 
ATOM     15  C22 <0> A   1     -25.126  -1.867  50.978  0.00  0.00    +0.093 A 
ATOM     16  C23 <0> A   1     -26.200  -1.869  50.103  0.00  0.00    -0.017 A 
ATOM     17  C24 <0> A   1     -27.157  -2.861  50.183  0.00  0.00    +0.050 A 
ATOM     18  F1  <0> A   1     -24.189  -0.898  50.893  0.00  0.00    -0.142 F 
ENDBRANCH   3  12
BRANCH   1  20
ATOM     19  C1  <0> A   1     -29.339  -8.190  48.935  0.00  0.00    +0.037 C 
ATOM     20  C2  <0> A   1     -29.517  -8.141  50.455  0.00  0.00    +0.244 C 
ATOM     21  C3  <0> A   1     -28.606  -9.182  51.108  0.00  0.00    +0.037 C 
ENDBRANCH   1  20
BRANCH   8  22
ATOM     22  C12 <0> A   1     -33.102  -6.681  53.739  0.00  0.00    +0.332 C 
BRANCH  22  23
ATOM     23  C13 <0> A   1     -32.912  -7.022  55.195  0.00  0.00    -0.106 A 
ATOM     24  C14 <0> A   1     -32.031  -8.023  55.561  0.00  0.00    +0.038 A 
ATOM     25  C15 <0> A   1     -31.858  -8.336  56.896  0.00  0.00    -0.004 A 
ATOM     26  C16 <0> A   1     -32.564  -7.648  57.865  0.00  0.00    +0.004 A 
ATOM     27  C17 <0> A   1     -33.444  -6.646  57.498  0.00  0.00    -0.005 A 
ATOM     28  C18 <0> A   1     -33.614  -6.331  56.163  0.00  0.00    +0.011 A 
ENDBRANCH  22  23
ENDBRANCH   8  22
BRANCH   2  29
ATOM     29  C25 <0> A   1     -26.982  -6.595  49.661  0.00  0.00    +0.114 C 
BRANCH  29  30
ATOM     30  C26 <0> A   1     -25.805  -7.146  50.470  0.00  0.00    -0.006 C 
BRANCH  30  31
ATOM     31  C27 <0> A   1     -24.904  -7.980  49.556  0.00  0.00    +0.212 C 
BRANCH  31  32
ATOM     32  O5  <0> A   1     -23.893  -7.143  48.992  0.00  0.00    -0.541 OA
ATOM     33  H36 <0> A   1     -23.045  -7.183  49.457  0.00  0.00    +0.362 HD
ENDBRANCH  31  32
BRANCH  31  34
ATOM     34  C28 <0> A   1     -24.248  -9.097  50.369  0.00  0.00    -0.051 C 
BRANCH  34  35
ATOM     35  C29 <0> A   1     -25.201 -10.291  50.457  0.00  0.00    +0.230 C 
BRANCH  35  36
ATOM     36  O4  <0> A   1     -25.839 -10.486  49.193  0.00  0.00    -0.528 OA
ATOM     37  H35 <0> A   1     -26.145  -9.669  48.777  0.00  0.00    +0.349 HD
ENDBRANCH  35  36
BRANCH  35  38
ATOM     38  C30 <0> A   1     -24.411 -11.548  50.827  0.00  0.00    -0.103 C 
BRANCH  38  39
ATOM     39  C31 <0> A   1     -24.378 -12.487  49.648  0.00  0.00    +0.490 C 
ATOM     40  O2  <0> A   1     -23.507 -12.375  48.804  0.00  0.00    -0.681 OA
ATOM     41  O3  <0> A   1     -25.224 -13.358  49.540  0.00  0.00    -0.713 OA
ENDBRANCH  38  39
ENDBRANCH  35  38
ENDBRANCH  34  35
ENDBRANCH  31  34
ENDBRANCH  30  31
ENDBRANCH  29  30
ENDBRANCH   2  29
TORSDOF 13
