REMARK VINA RESULT:      -7.3     19.530     22.512
REMARK  Name = CHEMBL298482
REMARK  6 active torsions:
REMARK  status: ('A' for Active; 'I' for Inactive)
REMARK    1  A    between atoms: C3_3  and  C5_6
REMARK    2  A    between atoms: C5_6  and  O2_7
REMARK    3  A    between atoms: O2_7  and  C6_8
REMARK    4  A    between atoms: C11_13  and  C12_14
REMARK    5  A    between atoms: C13_15  and  C14_16
REMARK    6  A    between atoms: C16_18  and  O5_24
REMARK                            x       y       z     vdW  Elec       q    Type
REMARK                         _______ _______ _______ _____ _____    ______ ____
ROOT
ATOM      1  C6  <0> A   1     -26.656  -1.465  50.326  0.00  0.00    +0.169 A 
ATOM      2  C7  <0> A   1     -27.330  -0.300  50.655  0.00  0.00    -0.050 A 
ATOM      3  C8  <0> A   1     -28.512  -0.361  51.372  0.00  0.00    +0.017 A 
ATOM      4  C9  <0> A   1     -29.030  -1.584  51.764  0.00  0.00    +0.014 A 
ATOM      5  C10 <0> A   1     -28.370  -2.754  51.443  0.00  0.00    +0.017 A 
ATOM      6  C11 <0> A   1     -27.180  -2.704  50.715  0.00  0.00    -0.074 A 
ATOM      7 Cl1  <0> A   1     -29.023  -4.284  51.938  0.00  0.00    -0.036 Cl
ATOM      8 Cl2  <0> A   1     -29.349   1.103  51.782  0.00  0.00    -0.047 Cl
ENDROOT
BRANCH   6   9
ATOM      9  C12 <0> A   1     -26.472  -3.952  50.363  0.00  0.00    +0.055 C 
ATOM     10  C13 <0> A   1     -25.513  -4.416  51.154  0.00  0.00    -0.009 C 
BRANCH  10  11
ATOM     11  C14 <0> A   1     -24.791  -5.689  50.796  0.00  0.00    +0.243 C 
ATOM     12  C15 <0> A   1     -25.607  -6.467  49.761  0.00  0.00    +0.051 C 
ATOM     13  C16 <0> A   1     -24.891  -7.781  49.431  0.00  0.00    +0.186 C 
ATOM     14  C17 <0> A   1     -24.745  -8.602  50.718  0.00  0.00    +0.023 C 
ATOM     15  C18 <0> A   1     -24.111  -7.723  51.774  0.00  0.00    +0.498 C 
ATOM     16  O3  <0> A   1     -23.169  -8.111  52.422  0.00  0.00    -0.451 OA
ATOM     17  O4  <0> A   1     -24.631  -6.493  51.971  0.00  0.00    -0.367 OA
BRANCH  13  18
ATOM     18  O5  <0> A   1     -23.599  -7.498  48.891  0.00  0.00    -0.564 OA
ATOM     19  H16 <0> A   1     -23.407  -7.965  48.066  0.00  0.00    +0.387 HD
ENDBRANCH  13  18
ENDBRANCH  10  11
ENDBRANCH   6   9
BRANCH   1  20
ATOM     20  O2  <0> A   1     -25.496  -1.406  49.623  0.00  0.00    -0.292 OA
BRANCH  20  21
ATOM     21  C5  <0> A   1     -24.456  -0.584  50.156  0.00  0.00    +0.326 C 
BRANCH  21  24
ATOM     22  C1  <0> A   1     -22.536  -2.390  52.732  0.00  0.00    -0.065 C 
ATOM     23  C2  <0> A   1     -23.556  -1.487  52.353  0.00  0.00    -0.016 C 
ATOM     24  C3  <0> A   1     -23.540  -1.423  51.009  0.00  0.00    -0.032 C 
ATOM     25  O1  <0> A   1     -22.570  -2.234  50.557  0.00  0.00    -0.170 OA
ATOM     26  C4  <0> A   1     -21.958  -2.824  51.597  0.00  0.00    +0.187 C 
ENDBRANCH  21  24
ENDBRANCH  20  21
ENDBRANCH   1  20
TORSDOF 6
