REMARK VINA RESULT:      -7.6     21.956     23.637
REMARK  Name = CHEMBL296915
REMARK  7 active torsions:
REMARK  status: ('A' for Active; 'I' for Inactive)
REMARK    1  A    between atoms: C5_5  and  C14_15
REMARK    2  A    between atoms: C6_6  and  O1_7
REMARK    3  A    between atoms: O1_7  and  C7_8
REMARK    4  A    between atoms: C7_8  and  C8_9
REMARK    5  A    between atoms: C14_15  and  C15_16
REMARK    6  A    between atoms: C15_16  and  C16_17
REMARK    7  A    between atoms: C18_19  and  O4_25
REMARK                            x       y       z     vdW  Elec       q    Type
REMARK                         _______ _______ _______ _____ _____    ______ ____
ROOT
ATOM      1  C1  <0> A   1     -15.895   9.988  47.610  0.00  0.00    -0.053 A 
ATOM      2  C2  <0> A   1     -15.901  11.353  47.389  0.00  0.00    +0.013 A 
ATOM      3  C3  <0> A   1     -14.986  11.918  46.518  0.00  0.00    +0.007 A 
ATOM      4  C4  <0> A   1     -14.064  11.119  45.865  0.00  0.00    +0.013 A 
ATOM      5  C5  <0> A   1     -14.055   9.754  46.083  0.00  0.00    -0.102 A 
ATOM      6  C6  <0> A   1     -14.971   9.185  46.956  0.00  0.00    +0.162 A 
ATOM      7 Cl1  <0> A   1     -12.918  11.832  44.773  0.00  0.00    -0.038 Cl
ATOM      8 Cl2  <0> A   1     -17.057  12.358  48.205  0.00  0.00    -0.052 Cl
ENDROOT
BRANCH   6   9
ATOM      9  O1  <0> A   1     -14.964   7.843  47.172  0.00  0.00    -0.297 OA
BRANCH   9  10
ATOM     10  C7  <0> A   1     -16.208   7.156  47.028  0.00  0.00    +0.191 C 
BRANCH  10  11
ATOM     11  C8  <0> A   1     -15.969   5.807  46.346  0.00  0.00    +0.000 C 
ATOM     12  C9  <0> A   1     -14.474   5.483  46.366  0.00  0.00    +0.017 C 
ATOM     13  C10 <0> A   1     -14.234   4.134  45.684  0.00  0.00    +0.005 C 
ATOM     14  C11 <0> A   1     -14.722   4.202  44.235  0.00  0.00    +0.001 C 
ATOM     15  C12 <0> A   1     -16.217   4.527  44.215  0.00  0.00    +0.010 C 
ATOM     16  C13 <0> A   1     -16.457   5.875  44.897  0.00  0.00    +0.018 C 
ENDBRANCH  10  11
ENDBRANCH   9  10
ENDBRANCH   6   9
BRANCH   5  17
ATOM     17  C14 <0> A   1     -13.051   8.884  45.372  0.00  0.00    +0.097 C 
BRANCH  17  18
ATOM     18  C15 <0> A   1     -13.733   8.167  44.206  0.00  0.00    +0.061 C 
BRANCH  18  19
ATOM     19  C16 <0> A   1     -13.041   8.549  42.896  0.00  0.00    +0.199 C 
ATOM     20  C17 <0> A   1     -13.709   9.795  42.308  0.00  0.00    +0.041 C 
ATOM     21  C18 <0> A   1     -13.039  10.149  40.976  0.00  0.00    +0.184 C 
ATOM     22  C19 <0> A   1     -13.189   8.963  40.015  0.00  0.00    +0.020 C 
ATOM     23  C20 <0> A   1     -12.697   7.717  40.718  0.00  0.00    +0.496 C 
ATOM     24  O2  <0> A   1     -11.917   6.966  40.181  0.00  0.00    -0.453 OA
ATOM     25  O3  <0> A   1     -13.154   7.468  41.964  0.00  0.00    -0.366 OA
BRANCH  21  26
ATOM     26  O4  <0> A   1     -11.654  10.420  41.194  0.00  0.00    -0.563 OA
ATOM     27  H26 <0> A   1     -11.066  10.022  40.536  0.00  0.00    +0.386 HD
ENDBRANCH  21  26
ENDBRANCH  18  19
ENDBRANCH  17  18
ENDBRANCH   5  17
TORSDOF 7
