REMARK VINA RESULT:      -7.4     32.891     35.153
REMARK  Name = CHEMBL121658
REMARK  8 active torsions:
REMARK  status: ('A' for Active; 'I' for Inactive)
REMARK    1  A    between atoms: C1_1  and  C2_2
REMARK    2  A    between atoms: C2_2  and  C3_3
REMARK    3  A    between atoms: C2_2  and  C4_4
REMARK    4  A    between atoms: C7_7  and  C15_21
REMARK    5  A    between atoms: N1_8  and  C8_9
REMARK    6  A    between atoms: C8_9  and  C9_10
REMARK    7  A    between atoms: C9_10  and  C10_11
REMARK    8  A    between atoms: C12_14  and  O3_20
REMARK                            x       y       z     vdW  Elec       q    Type
REMARK                         _______ _______ _______ _____ _____    ______ ____
ROOT
ATOM      1  C4  <0> A   1      -5.478   4.281  47.502  0.00  0.00    +0.091 C 
ATOM      2  C5  <0> A   1      -5.912   3.895  48.721  0.00  0.00    -0.142 C 
ATOM      3  C6  <0> A   1      -5.102   4.525  49.682  0.00  0.00    -0.122 C 
ATOM      4  C7  <0> A   1      -4.189   5.282  49.010  0.00  0.00    +0.096 C 
ATOM      5  N1  <0> A   1      -4.419   5.125  47.666  0.00  0.00    -0.421 N 
ATOM      6 Br1  <0> A   1      -5.250   4.353  51.559  0.00  0.00    -0.009 Br
ATOM      7 Br2  <0> A   1      -7.352   2.721  49.074  0.00  0.00    -0.008 Br
ENDROOT
BRANCH   4   8
ATOM      8  C15 <0> A   1      -3.135   6.119  49.620  0.00  0.00    -0.040 A 
ATOM      9  C16 <0> A   1      -3.279   7.507  49.662  0.00  0.00    +0.052 A 
ATOM     10  C17 <0> A   1      -2.292   8.283  50.233  0.00  0.00    -0.008 A 
ATOM     11  C18 <0> A   1      -1.159   7.688  50.765  0.00  0.00    +0.110 A 
ATOM     12  C19 <0> A   1      -1.010   6.311  50.725  0.00  0.00    -0.005 A 
ATOM     13  C20 <0> A   1      -1.993   5.524  50.162  0.00  0.00    +0.082 A 
ATOM     14  F1  <0> A   1      -0.196   8.453  51.322  0.00  0.00    -0.135 F 
ENDBRANCH   4   8
BRANCH   1  16
ATOM     15  C1  <0> A   1      -6.292   2.333  46.200  0.00  0.00    +0.041 C 
ATOM     16  C2  <0> A   1      -6.061   3.846  46.182  0.00  0.00    +0.052 C 
ATOM     17  C3  <0> A   1      -7.393   4.563  45.951  0.00  0.00    +0.042 C 
ENDBRANCH   1  16
BRANCH   5  18
ATOM     18  C8  <0> A   1      -3.658   5.762  46.588  0.00  0.00    +0.303 C 
BRANCH  18  19
ATOM     19  C9  <0> A   1      -2.256   5.153  46.525  0.00  0.00    +0.055 C 
BRANCH  19  20
ATOM     20  C10 <0> A   1      -2.300   3.857  45.712  0.00  0.00    +0.205 C 
ATOM     21  C11 <0> A   1      -0.894   3.526  45.204  0.00  0.00    +0.046 C 
ATOM     22  C12 <0> A   1      -0.948   2.251  44.356  0.00  0.00    +0.187 C 
ATOM     23  C13 <0> A   1      -1.899   2.482  43.175  0.00  0.00    +0.025 C 
ATOM     24  C14 <0> A   1      -3.213   3.000  43.717  0.00  0.00    +0.497 C 
ATOM     25  O1  <0> A   1      -4.263   2.510  43.374  0.00  0.00    -0.449 OA
ATOM     26  O2  <0> A   1      -3.179   4.024  44.594  0.00  0.00    -0.371 OA
BRANCH  22  27
ATOM     27  O3  <0> A   1      -1.426   1.166  45.153  0.00  0.00    -0.564 OA
ATOM     28  H18 <0> A   1      -2.270   0.799  44.853  0.00  0.00    +0.388 HD
ENDBRANCH  22  27
ENDBRANCH  19  20
ENDBRANCH  18  19
ENDBRANCH   5  18
TORSDOF 6
