REMARK VINA RESULT:      -7.8      4.140      6.422
REMARK  Name = CHEMBL1164546
REMARK  16 active torsions:
REMARK  status: ('A' for Active; 'I' for Inactive)
REMARK    1  A    between atoms: C1_1  and  C2_2
REMARK    2  A    between atoms: C2_2  and  C3_4
REMARK    3  A    between atoms: C2_2  and  O8_43
REMARK    4  A    between atoms: C3_4  and  C4_6
REMARK    5  A    between atoms: C3_4  and  N3_17
REMARK    6  A    between atoms: N1_8  and  C5_9
REMARK    7  A    between atoms: C5_9  and  C6_10
REMARK    8  A    between atoms: N2_12  and  C7_13
REMARK    9  A    between atoms: C7_13  and  C8_14
REMARK   10  A    between atoms: C9_18  and  C10_20
REMARK   11  A    between atoms: C14_26  and  C15_28
REMARK   12  A    between atoms: C15_28  and  C16_30
REMARK   13  A    between atoms: C15_28  and  N5_38
REMARK   14  A    between atoms: C16_30  and  C17_31
REMARK   15  A    between atoms: C23_39  and  C24_41
REMARK   16  A    between atoms: C24_41  and  N6_42
REMARK                            x       y       z     vdW  Elec       q    Type
REMARK                         _______ _______ _______ _____ _____    ______ ____
ROOT
ATOM      1  C10 <0> A   1     -14.148   5.063  46.419  0.00  0.00    +0.228 C 
ATOM      2  C11 <0> A   1     -14.263   4.678  44.929  0.00  0.00    +0.059 C 
ATOM      3  C12 <0> A   1     -15.748   4.990  44.605  0.00  0.00    +0.049 C 
ATOM      4  C13 <0> A   1     -16.001   6.247  45.475  0.00  0.00    +0.252 C 
ATOM      5  N4  <0> A   1     -15.235   6.006  46.716  0.00  0.00    -0.598 N 
ATOM      6  C14 <0> A   1     -15.489   6.559  47.919  0.00  0.00    +0.531 C 
ATOM      7  O6  <0> A   1     -14.789   6.286  48.871  0.00  0.00    -0.504 OA
ENDROOT
BRANCH   1   9
ATOM      8  N3  <0> A   1     -11.966   5.186  47.578  0.00  0.00    -0.711 N 
ATOM      9  C9  <0> A   1     -12.815   5.718  46.677  0.00  0.00    +0.510 C 
ATOM     10  O5  <0> A   1     -12.507   6.724  46.074  0.00  0.00    -0.511 OA
ATOM     11  H14 <0> A   1     -12.212   4.382  48.061  0.00  0.00    +0.411 HD
BRANCH   8  12
ATOM     12  C3  <0> A   1     -10.670   5.823  47.829  0.00  0.00    +0.221 C 
BRANCH  12  13
ATOM     13  C4  <0> A   1      -9.564   4.912  47.363  0.00  0.00    +0.521 C 
ATOM     14  O1  <0> A   1      -9.574   3.739  47.672  0.00  0.00    -0.537 OA
ATOM     15  N1  <0> A   1      -8.564   5.401  46.602  0.00  0.00    -0.702 N 
ATOM     16  H8  <0> A   1      -8.557   6.339  46.356  0.00  0.00    +0.412 HD
BRANCH  15  17
ATOM     17  C5  <0> A   1      -7.489   4.514  46.149  0.00  0.00    +0.304 C 
BRANCH  17  18
ATOM     18  C6  <0> A   1      -6.246   4.780  46.958  0.00  0.00    +0.497 C 
ATOM     19  O2  <0> A   1      -6.231   4.536  48.146  0.00  0.00    -0.561 OA
ATOM     20  N2  <0> A   1      -5.150   5.291  46.362  0.00  0.00    -0.688 N 
ATOM     21  H11 <0> A   1      -5.162   5.486  45.412  0.00  0.00    +0.412 HD
BRANCH  20  22
ATOM     22  C7  <0> A   1      -3.942   5.550  47.147  0.00  0.00    +0.187 C 
BRANCH  22  23
ATOM     23  C8  <0> A   1      -3.421   6.928  46.830  0.00  0.00    +0.489 C 
ATOM     24  O3  <0> A   1      -2.239   7.089  46.574  0.00  0.00    -0.690 OA
ATOM     25  O4  <0> A   1      -4.180   7.882  46.831  0.00  0.00    -0.684 OA
ENDBRANCH  22  23
ENDBRANCH  20  22
ENDBRANCH  17  18
ENDBRANCH  15  17
ENDBRANCH  12  13
BRANCH  12  27
ATOM     26  C1  <0> A   1     -11.626   5.366  50.093  0.00  0.00    +0.025 C 
ATOM     27  C2  <0> A   1     -10.514   6.089  49.328  0.00  0.00    +0.208 C 
BRANCH  27  28
ATOM     28  O8  <0> A   1      -9.243   5.607  49.768  0.00  0.00    -0.549 OA
ATOM     29  H32 <0> A   1      -8.810   5.010  49.142  0.00  0.00    +0.371 HD
ENDBRANCH  27  28
ENDBRANCH  12  27
ENDBRANCH   8  12
ENDBRANCH   1   9
BRANCH   6  30
ATOM     30  C15 <0> A   1     -16.642   7.515  48.080  0.00  0.00    +0.266 C 
BRANCH  30  31
ATOM     31  N5  <0> A   1     -17.763   6.824  48.724  0.00  0.00    -0.695 N 
ATOM     32  C23 <0> A   1     -18.888   6.571  48.028  0.00  0.00    +0.496 C 
ATOM     33  O7  <0> A   1     -18.974   6.915  46.867  0.00  0.00    -0.484 OA
ATOM     34  H27 <0> A   1     -17.694   6.549  49.652  0.00  0.00    +0.414 HD
BRANCH  32  35
ATOM     35  C24 <0> A   1     -20.041   5.861  48.690  0.00  0.00    +0.294 C 
BRANCH  35  36
ATOM     36  N6  <0> A   1     -20.394   6.557  49.935  0.00  0.00    -0.621 N 
ATOM     37  H30 <0> A   1     -20.936   7.379  49.718  0.00  0.00    +0.444 HD
ATOM     38  H31 <0> A   1     -20.937   5.941  50.522  0.00  0.00    +0.445 HD
ATOM     39  H33 <0> A   1     -19.552   6.827  50.420  0.00  0.00    +0.441 HD
ENDBRANCH  35  36
ENDBRANCH  32  35
ENDBRANCH  30  31
BRANCH  30  40
ATOM     40  C16 <0> A   1     -16.207   8.698  48.948  0.00  0.00    +0.110 C 
BRANCH  40  41
ATOM     41  C17 <0> A   1     -15.495   9.713  48.093  0.00  0.00    -0.095 A 
ATOM     42  C18 <0> A   1     -14.189  10.065  48.382  0.00  0.00    +0.053 A 
ATOM     43  C19 <0> A   1     -13.534  10.997  47.598  0.00  0.00    -0.003 A 
ATOM     44  C20 <0> A   1     -14.186  11.577  46.524  0.00  0.00    +0.103 A 
ATOM     45  C21 <0> A   1     -15.493  11.223  46.234  0.00  0.00    -0.018 A 
ATOM     46  C22 <0> A   1     -16.144  10.288  47.017  0.00  0.00    +0.031 A 
ATOM     47  F1  <0> A   1     -13.547  12.487  45.757  0.00  0.00    -0.135 F 
ENDBRANCH  40  41
ENDBRANCH  30  40
ENDBRANCH   6  30
TORSDOF 15
