REMARK VINA RESULT:      -8.1     21.900     24.150
REMARK  Name = CHEMBL50566
REMARK  8 active torsions:
REMARK  status: ('A' for Active; 'I' for Inactive)
REMARK    1  A    between atoms: C1_1  and  C2_2
REMARK    2  A    between atoms: C4_4  and  C22_27
REMARK    3  A    between atoms: C5_5  and  C15_16
REMARK    4  A    between atoms: C6_6  and  C8_8
REMARK    5  A    between atoms: C12_12  and  C14_14
REMARK    6  A    between atoms: C15_16  and  C16_17
REMARK    7  A    between atoms: C16_17  and  C17_18
REMARK    8  A    between atoms: C19_20  and  O3_26
REMARK                            x       y       z     vdW  Elec       q    Type
REMARK                         _______ _______ _______ _____ _____    ______ ____
ROOT
ATOM      1  C1  <0> A   1     -31.836  18.927  32.854  0.00  0.00    +0.089 C 
ATOM      2  C2  <0> A   1     -31.735  20.382  33.229  0.00  0.00    -0.083 A 
ATOM      3  C3  <0> A   1     -32.874  21.168  33.259  0.00  0.00    +0.007 A 
ATOM      4  C4  <0> A   1     -32.788  22.506  33.603  0.00  0.00    -0.074 A 
ATOM      5  C5  <0> A   1     -31.565  23.063  33.918  0.00  0.00    -0.072 A 
ATOM      6  C6  <0> A   1     -30.415  22.276  33.889  0.00  0.00    -0.041 A 
ATOM      7  C7  <0> A   1     -30.508  20.929  33.547  0.00  0.00    +0.014 A 
ATOM      8  C22 <0> A   1     -34.032  23.355  33.633  0.00  0.00    +0.091 C 
ENDROOT
BRANCH   6   9
ATOM      9  C8  <0> A   1     -29.098  22.870  34.227  0.00  0.00    -0.047 A 
ATOM     10  C9  <0> A   1     -28.669  22.910  35.551  0.00  0.00    +0.049 A 
ATOM     11  C10 <0> A   1     -27.443  23.463  35.861  0.00  0.00    -0.009 A 
ATOM     12  C11 <0> A   1     -26.640  23.979  34.856  0.00  0.00    +0.097 A 
ATOM     13  C12 <0> A   1     -27.063  23.941  33.537  0.00  0.00    -0.114 A 
ATOM     14  C13 <0> A   1     -28.285  23.384  33.219  0.00  0.00    +0.055 A 
ATOM     15  C14 <0> A   1     -26.186  24.503  32.449  0.00  0.00    +0.104 C 
ATOM     16  F1  <0> A   1     -25.440  24.519  35.162  0.00  0.00    -0.137 F 
ENDBRANCH   6   9
BRANCH   5  17
ATOM     17  C15 <0> A   1     -31.473  24.520  34.292  0.00  0.00    +0.073 C 
BRANCH  17  18
ATOM     18  C16 <0> A   1     -32.148  24.743  35.647  0.00  0.00    +0.059 C 
BRANCH  18  19
ATOM     19  C17 <0> A   1     -31.081  24.816  36.741  0.00  0.00    +0.196 C 
ATOM     20  C18 <0> A   1     -31.759  24.868  38.113  0.00  0.00    +0.040 C 
ATOM     21  C19 <0> A   1     -30.690  24.983  39.204  0.00  0.00    +0.184 C 
ATOM     22  C20 <0> A   1     -29.875  26.261  38.967  0.00  0.00    +0.021 C 
ATOM     23  C21 <0> A   1     -29.392  26.255  37.533  0.00  0.00    +0.496 C 
ATOM     24  O1  <0> A   1     -28.234  26.476  37.266  0.00  0.00    -0.453 OA
ATOM     25  O2  <0> A   1     -30.291  25.996  36.561  0.00  0.00    -0.367 OA
BRANCH  21  26
ATOM     26  O3  <0> A   1     -29.828  23.845  39.152  0.00  0.00    -0.563 OA
ATOM     27  H22 <0> A   1     -28.961  24.026  38.765  0.00  0.00    +0.386 HD
ENDBRANCH  21  26
ENDBRANCH  18  19
ENDBRANCH  17  18
ENDBRANCH   5  17
TORSDOF 5
