REMARK VINA RESULT:      -7.7      1.925      2.582
REMARK  Name = CHEMBL320943
REMARK  13 active torsions:
REMARK  status: ('A' for Active; 'I' for Inactive)
REMARK    1  A    between atoms: C1_1  and  C2_2
REMARK    2  A    between atoms: C2_2  and  C3_3
REMARK    3  A    between atoms: C3_3  and  C4_5
REMARK    4  A    between atoms: C3_3  and  C5_6
REMARK    5  A    between atoms: C5_6  and  O2_8
REMARK    6  A    between atoms: O2_8  and  C6_9
REMARK    7  A    between atoms: C13_20  and  C18_27
REMARK    8  A    between atoms: C16_23  and  O3_26
REMARK    9  A    between atoms: C20_30  and  C31_46
REMARK   10  A    between atoms: C21_31  and  C24_34
REMARK   11  A    between atoms: C24_34  and  C25_35
REMARK   12  A    between atoms: C25_35  and  C26_36
REMARK   13  A    between atoms: C28_39  and  O6_45
REMARK                            x       y       z     vdW  Elec       q    Type
REMARK                         _______ _______ _______ _____ _____    ______ ____
ROOT
ATOM      1  C6  <0> A   1     -25.669  -1.204  53.510  0.00  0.00    +0.188 C 
ATOM      2  C7  <0> A   1     -26.540  -0.116  54.160  0.00  0.00    +0.016 C 
ATOM      3  C8  <0> A   1     -26.917   0.968  53.156  0.00  0.00    +0.014 C 
ATOM      4  C9  <0> A   1     -27.611   0.376  51.919  0.00  0.00    +0.004 C 
ATOM      5  C10 <0> A   1     -27.930   1.502  50.935  0.00  0.00    +0.013 C 
ATOM      6  C11 <0> A   1     -28.862   2.514  51.604  0.00  0.00    +0.013 C 
ATOM      7  C12 <0> A   1     -28.180   3.099  52.841  0.00  0.00    +0.001 C 
ATOM      8  C13 <0> A   1     -27.860   1.981  53.807  0.00  0.00    -0.049 C 
ATOM      9  C14 <0> A   1     -27.194   2.570  55.053  0.00  0.00    +0.019 C 
ATOM     10  C15 <0> A   1     -25.891   3.266  54.654  0.00  0.00    -0.019 C 
ATOM     11  C16 <0> A   1     -26.194   4.387  53.659  0.00  0.00    +0.155 C 
ATOM     12  C17 <0> A   1     -26.886   3.802  52.425  0.00  0.00    +0.033 C 
ATOM     13  C18 <0> A   1     -29.162   1.283  54.204  0.00  0.00    +0.023 C 
ATOM     14  C19 <0> A   1     -26.659  -0.633  51.308  0.00  0.00    +0.003 C 
ATOM     15  C20 <0> A   1     -26.449  -1.771  52.341  0.00  0.00    -0.055 C 
ATOM     16  C21 <0> A   1     -25.767  -2.872  51.536  0.00  0.00    -0.002 C 
ATOM     17  C22 <0> A   1     -26.253  -2.674  50.078  0.00  0.00    +0.011 C 
ATOM     18  C23 <0> A   1     -27.180  -1.386  50.079  0.00  0.00    +0.018 C 
ATOM     19  C31 <0> A   1     -27.820  -2.254  52.820  0.00  0.00    +0.041 C 
ENDROOT
BRANCH  11  20
ATOM     20  O3  <0> A   1     -24.977   5.035  53.287  0.00  0.00    -0.568 OA
ATOM     21  H30 <0> A   1     -25.104   5.861  52.800  0.00  0.00    +0.377 HD
ENDBRANCH  11  20
BRANCH   1  22
ATOM     22  O2  <0> A   1     -24.444  -0.632  53.046  0.00  0.00    -0.335 OA
BRANCH  22  23
ATOM     23  C5  <0> A   1     -23.309  -1.090  53.599  0.00  0.00    +0.462 C 
ATOM     24  O1  <0> A   1     -23.212  -1.166  54.801  0.00  0.00    -0.506 OA
BRANCH  23  25
ATOM     25  C3  <0> A   1     -22.158  -1.508  52.722  0.00  0.00    +0.023 C 
ATOM     26  C4  <0> A   1     -21.896  -3.005  52.903  0.00  0.00    +0.058 C 
BRANCH  25  28
ATOM     27  C1  <0> A   1     -22.453  -2.527  50.460  0.00  0.00    +0.022 C 
ATOM     28  C2  <0> A   1     -22.501  -1.224  51.259  0.00  0.00    +0.031 C 
ENDBRANCH  25  28
ENDBRANCH  23  25
ENDBRANCH  22  23
ENDBRANCH   1  22
BRANCH  16  29
ATOM     29  C24 <0> A   1     -26.191  -4.247  52.054  0.00  0.00    +0.025 C 
BRANCH  29  30
ATOM     30  C25 <0> A   1     -26.558  -5.146  50.872  0.00  0.00    +0.047 C 
BRANCH  30  31
ATOM     31  C26 <0> A   1     -25.417  -6.130  50.605  0.00  0.00    +0.194 C 
ATOM     32  C27 <0> A   1     -25.849  -7.136  49.535  0.00  0.00    +0.039 C 
ATOM     33  C28 <0> A   1     -24.720  -8.144  49.299  0.00  0.00    +0.183 C 
ATOM     34  C29 <0> A   1     -24.419  -8.867  50.618  0.00  0.00    +0.021 C 
ATOM     35  C30 <0> A   1     -24.193  -7.825  51.691  0.00  0.00    +0.496 C 
ATOM     36  O4  <0> A   1     -23.230  -7.880  52.419  0.00  0.00    -0.454 OA
ATOM     37  O5  <0> A   1     -25.098  -6.831  51.812  0.00  0.00    -0.366 OA
BRANCH  33  38
ATOM     38  O6  <0> A   1     -23.551  -7.456  48.850  0.00  0.00    -0.564 OA
ATOM     39  H47 <0> A   1     -23.389  -7.536  47.900  0.00  0.00    +0.386 HD
ENDBRANCH  33  38
ENDBRANCH  30  31
ENDBRANCH  29  30
ENDBRANCH  16  29
TORSDOF 9
