REMARK VINA RESULT:      -7.8      2.643      4.678
REMARK  Name = CHEMBL466547
REMARK  14 active torsions:
REMARK  status: ('A' for Active; 'I' for Inactive)
REMARK    1  A    between atoms: C1_1  and  C2_2
REMARK    2  A    between atoms: C2_2  and  C3_3
REMARK    3  A    between atoms: C2_2  and  C4_4
REMARK    4  A    between atoms: C5_5  and  C17_25
REMARK    5  A    between atoms: C6_6  and  C11_18
REMARK    6  A    between atoms: N3_10  and  C8_11
REMARK    7  A    between atoms: N7_16  and  C10_17
REMARK    8  A    between atoms: C18_26  and  C19_27
REMARK    9  A    between atoms: C19_27  and  C20_29
REMARK   10  A    between atoms: C19_27  and  O4_37
REMARK   11  A    between atoms: C20_29  and  C21_30
REMARK   12  A    between atoms: C21_30  and  C22_32
REMARK   13  A    between atoms: C21_30  and  O3_36
REMARK   14  A    between atoms: C22_32  and  C23_33
REMARK                            x       y       z     vdW  Elec       q    Type
REMARK                         _______ _______ _______ _____ _____    ______ ____
ROOT
ATOM      1  C4  <0> A   1     -15.862  10.239  47.746  0.00  0.00    +0.238 A 
ATOM      2  C5  <0> A   1     -15.419   9.216  46.904  0.00  0.00    -0.176 A 
ATOM      3  C6  <0> A   1     -15.715   7.884  47.262  0.00  0.00    +0.270 A 
ATOM      4  N1  <0> A   1     -16.399   7.659  48.381  0.00  0.00    -0.554 NA
ATOM      5  C7  <0> A   1     -16.796   8.662  49.145  0.00  0.00    +0.568 A 
ATOM      6  N2  <0> A   1     -16.532   9.926  48.842  0.00  0.00    -0.541 NA
ATOM      7  N3  <0> A   1     -17.506   8.384  50.303  0.00  0.00    -0.516 N 
ATOM      8  C8  <0> A   1     -17.957   9.479  51.165  0.00  0.00    +0.351 C 
ATOM      9  C9  <0> A   1     -17.790   7.072  50.643  0.00  0.00    +0.488 C 
ATOM     10  N4  <0> A   1     -17.093   6.308  51.454  0.00  0.00    -0.313 NA
ATOM     11  N5  <0> A   1     -17.631   5.145  51.552  0.00  0.00    -0.032 NA
ATOM     12  N6  <0> A   1     -18.693   5.081  50.822  0.00  0.00    -0.070 NA
ATOM     13  N7  <0> A   1     -18.840   6.337  50.207  0.00  0.00    -0.371 N 
ATOM     14  C10 <0> A   1     -19.900   6.759  49.288  0.00  0.00    +0.383 C 
ENDROOT
BRANCH   3  15
ATOM     15  C11 <0> A   1     -15.271   6.759  46.409  0.00  0.00    -0.077 A 
ATOM     16  C12 <0> A   1     -16.043   6.362  45.316  0.00  0.00    +0.099 A 
ATOM     17  C13 <0> A   1     -15.626   5.312  44.525  0.00  0.00    -0.014 A 
ATOM     18  C14 <0> A   1     -14.443   4.651  44.813  0.00  0.00    +0.123 A 
ATOM     19  C15 <0> A   1     -13.672   5.041  45.898  0.00  0.00    -0.023 A 
ATOM     20  C16 <0> A   1     -14.078   6.093  46.692  0.00  0.00    +0.091 A 
ATOM     21  F1  <0> A   1     -14.039   3.623  44.036  0.00  0.00    -0.134 F 
ENDBRANCH   3  15
BRANCH   1  23
ATOM     22  C1  <0> A   1     -16.819  12.527  47.690  0.00  0.00    +0.045 C 
ATOM     23  C2  <0> A   1     -15.574  11.681  47.414  0.00  0.00    +0.052 C 
ATOM     24  C3  <0> A   1     -14.415  12.183  48.276  0.00  0.00    +0.045 C 
ENDBRANCH   1  23
BRANCH   2  25
ATOM     25  C17 <0> A   1     -14.664   9.520  45.673  0.00  0.00    +0.010 C 
ATOM     26  C18 <0> A   1     -13.339   9.600  45.709  0.00  0.00    -0.033 C 
BRANCH  26  27
ATOM     27  C19 <0> A   1     -12.568   9.911  44.453  0.00  0.00    +0.252 C 
BRANCH  27  28
ATOM     28  O4  <0> A   1     -11.586   8.896  44.235  0.00  0.00    -0.537 OA
ATOM     29  H27 <0> A   1     -11.945   7.999  44.211  0.00  0.00    +0.366 HD
ENDBRANCH  27  28
BRANCH  27  30
ATOM     30  C20 <0> A   1     -13.526   9.956  43.262  0.00  0.00    -0.041 C 
BRANCH  30  31
ATOM     31  C21 <0> A   1     -13.133  11.107  42.334  0.00  0.00    +0.232 C 
BRANCH  31  32
ATOM     32  O3  <0> A   1     -11.957  10.749  41.604  0.00  0.00    -0.528 OA
ATOM     33  H26 <0> A   1     -11.640   9.854  41.784  0.00  0.00    +0.350 HD
ENDBRANCH  31  32
BRANCH  31  34
ATOM     34  C22 <0> A   1     -14.276  11.386  41.355  0.00  0.00    -0.102 C 
BRANCH  34  35
ATOM     35  C23 <0> A   1     -13.873  10.940  39.973  0.00  0.00    +0.491 C 
ATOM     36  O1  <0> A   1     -13.630  11.768  39.112  0.00  0.00    -0.681 OA
ATOM     37  O2  <0> A   1     -13.794   9.751  39.715  0.00  0.00    -0.713 OA
ENDBRANCH  34  35
ENDBRANCH  31  34
ENDBRANCH  30  31
ENDBRANCH  27  30
ENDBRANCH  26  27
ENDBRANCH   2  25
TORSDOF 10
