REMARK VINA RESULT:      -7.5      3.711      8.096
REMARK  Name = CHEMBL392897
REMARK  17 active torsions:
REMARK  status: ('A' for Active; 'I' for Inactive)
REMARK    1  A    between atoms: C1_1  and  C2_2
REMARK    2  A    between atoms: C2_2  and  N1_3
REMARK    3  A    between atoms: C3_4  and  C21_27
REMARK    4  A    between atoms: C4_5  and  C15_20
REMARK    5  A    between atoms: C5_6  and  C14_19
REMARK    6  A    between atoms: C6_7  and  C7_8
REMARK    7  A    between atoms: N2_10  and  C8_11
REMARK    8  A    between atoms: C8_11  and  C9_12
REMARK    9  A    between atoms: C11_15  and  C13_18
REMARK   10  A    between atoms: C21_27  and  C22_28
REMARK   11  A    between atoms: C22_28  and  C23_29
REMARK   12  A    between atoms: C23_29  and  C24_31
REMARK   13  A    between atoms: C23_29  and  O5_39
REMARK   14  A    between atoms: C24_31  and  C25_32
REMARK   15  A    between atoms: C25_32  and  C26_34
REMARK   16  A    between atoms: C25_32  and  O4_38
REMARK   17  A    between atoms: C26_34  and  C27_35
REMARK                            x       y       z     vdW  Elec       q    Type
REMARK                         _______ _______ _______ _____ _____    ______ ____
ROOT
ATOM      1  N1  <0> A   1     -13.448   9.702  47.254  0.00  0.00    -0.407 N 
ATOM      2  C3  <0> A   1     -14.188   9.075  48.191  0.00  0.00    +0.078 C 
ATOM      3  C4  <0> A   1     -15.479   9.510  48.090  0.00  0.00    -0.142 C 
ATOM      4  C5  <0> A   1     -15.528  10.447  47.041  0.00  0.00    -0.087 C 
ATOM      5  C6  <0> A   1     -14.260  10.556  46.541  0.00  0.00    -0.052 C 
ATOM      6  C14 <0> A   1     -16.746  11.194  46.564  0.00  0.00    +0.109 C 
ENDROOT
BRANCH   3   7
ATOM      7  C15 <0> A   1     -16.621   9.071  48.932  0.00  0.00    -0.008 A 
ATOM      8  C16 <0> A   1     -16.898   9.726  50.130  0.00  0.00    +0.049 A 
ATOM      9  C17 <0> A   1     -17.960   9.315  50.909  0.00  0.00    -0.016 A 
ATOM     10  C18 <0> A   1     -18.751   8.252  50.501  0.00  0.00    +0.093 A 
ATOM     11  C19 <0> A   1     -18.478   7.598  49.310  0.00  0.00    -0.017 A 
ATOM     12  C20 <0> A   1     -17.422   8.007  48.523  0.00  0.00    +0.053 A 
ATOM     13  F1  <0> A   1     -19.789   7.852  51.267  0.00  0.00    -0.142 F 
ENDBRANCH   3   7
BRANCH   5  14
ATOM     14  C7  <0> A   1     -13.840  11.427  45.438  0.00  0.00    +0.602 C 
ATOM     15  O1  <0> A   1     -13.292  12.488  45.675  0.00  0.00    -0.518 OA
ATOM     16  N2  <0> A   1     -14.060  11.053  44.163  0.00  0.00    -0.718 N 
ATOM     17  H8  <0> A   1     -14.561  10.243  43.974  0.00  0.00    +0.405 HD
BRANCH  16  18
ATOM     18  C8  <0> A   1     -13.542  11.866  43.060  0.00  0.00    +0.361 C 
BRANCH  18  19
ATOM     19  C9  <0> A   1     -13.262  10.983  41.871  0.00  0.00    +0.046 A 
ATOM     20  C10 <0> A   1     -13.313   9.606  42.006  0.00  0.00    +0.252 A 
ATOM     21  N3  <0> A   1     -13.068   8.831  40.963  0.00  0.00    -0.439 NA
ATOM     22  C11 <0> A   1     -12.775   9.372  39.793  0.00  0.00    +0.088 A 
ATOM     23  C12 <0> A   1     -12.725  10.748  39.660  0.00  0.00    +0.226 A 
ATOM     24  N4  <0> A   1     -12.974  11.522  40.701  0.00  0.00    -0.418 NA
ATOM     25  C13 <0> A   1     -12.495   8.489  38.605  0.00  0.00    +0.146 C 
ENDBRANCH  18  19
ENDBRANCH  16  18
ENDBRANCH   5  14
BRANCH   1  27
ATOM     26  C1  <0> A   1     -11.232  10.562  47.825  0.00  0.00    +0.040 C 
ATOM     27  C2  <0> A   1     -12.013   9.512  47.033  0.00  0.00    +0.280 C 
ENDBRANCH   1  27
BRANCH   2  28
ATOM     28  C21 <0> A   1     -13.675   8.063  49.182  0.00  0.00    +0.116 C 
BRANCH  28  29
ATOM     29  C22 <0> A   1     -14.279   6.692  48.871  0.00  0.00    -0.007 C 
BRANCH  29  30
ATOM     30  C23 <0> A   1     -13.891   6.273  47.452  0.00  0.00    +0.212 C 
BRANCH  30  31
ATOM     31  O5  <0> A   1     -12.854   5.292  47.511  0.00  0.00    -0.542 OA
ATOM     32  H32 <0> A   1     -11.996   5.643  47.787  0.00  0.00    +0.363 HD
ENDBRANCH  30  31
BRANCH  30  33
ATOM     33  C24 <0> A   1     -15.112   5.683  46.743  0.00  0.00    -0.051 C 
BRANCH  33  34
ATOM     34  C25 <0> A   1     -15.475   6.558  45.541  0.00  0.00    +0.230 C 
BRANCH  34  35
ATOM     35  O4  <0> A   1     -14.316   7.271  45.104  0.00  0.00    -0.528 OA
ATOM     36  H31 <0> A   1     -13.575   6.703  44.854  0.00  0.00    +0.349 HD
ENDBRANCH  34  35
BRANCH  34  37
ATOM     37  C26 <0> A   1     -15.987   5.673  44.403  0.00  0.00    -0.103 C 
BRANCH  37  38
ATOM     38  C27 <0> A   1     -14.876   5.436  43.412  0.00  0.00    +0.491 C 
ATOM     39  O2  <0> A   1     -14.764   6.159  42.437  0.00  0.00    -0.681 OA
ATOM     40  O3  <0> A   1     -14.089   4.522  43.586  0.00  0.00    -0.713 OA
ENDBRANCH  37  38
ENDBRANCH  34  37
ENDBRANCH  33  34
ENDBRANCH  30  33
ENDBRANCH  29  30
ENDBRANCH  28  29
ENDBRANCH   2  28
TORSDOF 14
