REMARK  Name = CHEMBL416823
REMARK  7 active torsions:
REMARK  status: ('A' for Active; 'I' for Inactive)
REMARK    1  A    between atoms: C6_6  and  C7_7
REMARK    2  A    between atoms: C7_7  and  O1_8
REMARK    3  A    between atoms: O1_8  and  C8_9
REMARK    4  A    between atoms: C13_14  and  C14_15
REMARK    5  A    between atoms: C14_15  and  C15_16
REMARK    6  A    between atoms: C15_16  and  C16_17
REMARK    7  A    between atoms: C18_19  and  O4_25
REMARK                            x       y       z     vdW  Elec       q    Type
REMARK                         _______ _______ _______ _____ _____    ______ ____
ROOT
ATOM      1  C8  <0> A   1      -2.875  -1.699  -1.505  0.00  0.00    +0.161 A 
ATOM      2  C9  <0> A   1      -3.594  -2.132  -0.401  0.00  0.00    -0.052 A 
ATOM      3  C10 <0> A   1      -4.773  -2.832  -0.576  0.00  0.00    +0.013 A 
ATOM      4  C11 <0> A   1      -5.236  -3.101  -1.853  0.00  0.00    +0.009 A 
ATOM      5  C12 <0> A   1      -4.520  -2.670  -2.955  0.00  0.00    +0.013 A 
ATOM      6  C13 <0> A   1      -3.343  -1.964  -2.783  0.00  0.00    -0.101 A 
ATOM      7 Cl1  <0> A   1      -5.103  -3.009  -4.555  0.00  0.00    -0.042 Cl
ATOM      8 Cl2  <0> A   1      -5.674  -3.375   0.805  0.00  0.00    -0.050 Cl
ENDROOT
BRANCH   1   9
ATOM      9  O1  <0> A   1      -1.715  -1.011  -1.334  0.00  0.00    -0.291 OA
BRANCH   9  10
ATOM     10  C7  <0> A   1      -1.293  -0.775   0.010  0.00  0.00    +0.255 C 
BRANCH  10  16
ATOM     11  C1  <0> A   1      -0.017   1.378   0.010  0.00  0.00    +0.074 A 
ATOM     12  C2  <0> A   1       1.170   2.086   0.002  0.00  0.00    -0.016 A 
ATOM     13  C3  <0> A   1       2.379   1.410  -0.013  0.00  0.00    +0.113 A 
ATOM     14  C4  <0> A   1       2.396   0.026  -0.021  0.00  0.00    -0.018 A 
ATOM     15  C5  <0> A   1       1.208  -0.680  -0.013  0.00  0.00    +0.073 A 
ATOM     16  C6  <0> A   1       0.002  -0.004   0.002  0.00  0.00    -0.110 A 
ATOM     17  F1  <0> A   1       3.540   2.101  -0.021  0.00  0.00    -0.136 F 
ENDBRANCH  10  16
ENDBRANCH   9  10
ENDBRANCH   1   9
BRANCH   6  18
ATOM     18  C14 <0> A   1      -2.567  -1.488  -3.984  0.00  0.00    +0.097 C 
BRANCH  18  19
ATOM     19  C15 <0> A   1      -1.567  -2.566  -4.405  0.00  0.00    +0.062 C 
BRANCH  19  20
ATOM     20  C16 <0> A   1      -0.779  -2.083  -5.624  0.00  0.00    +0.198 C 
ATOM     21  C17 <0> A   1       0.137  -3.206  -6.119  0.00  0.00    +0.041 C 
ATOM     22  C18 <0> A   1       0.955  -2.706  -7.314  0.00  0.00    +0.184 C 
ATOM     23  C19 <0> A   1       1.788  -1.496  -6.873  0.00  0.00    +0.020 C 
ATOM     24  C20 <0> A   1       0.863  -0.498  -6.210  0.00  0.00    +0.496 C 
ATOM     25  O2  <0> A   1       0.881   0.669  -6.522  0.00  0.00    -0.453 OA
ATOM     26  O3  <0> A   1       0.017  -0.950  -5.261  0.00  0.00    -0.364 OA
BRANCH  22  27
ATOM     27  O4  <0> A   1       0.072  -2.323  -8.370  0.00  0.00    -0.563 OA
ATOM     28  H19 <0> A   1       0.523  -1.996  -9.161  0.00  0.00    +0.386 HD
ENDBRANCH  22  27
ENDBRANCH  19  20
ENDBRANCH  18  19
ENDBRANCH   6  18
TORSDOF 7
