REMARK VINA RESULT:      -7.9      2.044      2.537
REMARK  Name = CHEMBL63204
REMARK  12 active torsions:
REMARK  status: ('A' for Active; 'I' for Inactive)
REMARK    1  A    between atoms: C1_1  and  C2_2
REMARK    2  A    between atoms: C2_2  and  C3_3
REMARK    3  A    between atoms: C2_2  and  C4_4
REMARK    4  A    between atoms: C5_5  and  C18_22
REMARK    5  A    between atoms: C6_6  and  C12_15
REMARK    6  A    between atoms: C19_23  and  C20_24
REMARK    7  A    between atoms: C20_24  and  C21_25
REMARK    8  A    between atoms: C20_24  and  O4_33
REMARK    9  A    between atoms: C21_25  and  C22_26
REMARK   10  A    between atoms: C22_26  and  C23_28
REMARK   11  A    between atoms: C22_26  and  O3_32
REMARK   12  A    between atoms: C23_28  and  C24_29
REMARK                            x       y       z     vdW  Elec       q    Type
REMARK                         _______ _______ _______ _____ _____    ______ ____
ROOT
ATOM      1  C4  <0> A   1     -14.871   6.586  45.794  0.00  0.00    +0.116 C 
ATOM      2  C5  <0> A   1     -14.548   7.953  45.907  0.00  0.00    -0.169 C 
ATOM      3  C6  <0> A   1     -15.426   8.509  46.830  0.00  0.00    +0.148 C 
ATOM      4  N1  <0> A   1     -16.247   7.501  47.254  0.00  0.00    -0.321 N 
ATOM      5  N2  <0> A   1     -15.875   6.328  46.587  0.00  0.00    -0.275 NA
ATOM      6  C7  <0> A   1     -17.280   7.623  48.187  0.00  0.00    +0.368 A 
ATOM      7  C8  <0> A   1     -18.338   6.722  48.163  0.00  0.00    -0.015 A 
ATOM      8  C9  <0> A   1     -19.355   6.854  49.093  0.00  0.00    +0.089 A 
ATOM      9  C10 <0> A   1     -19.276   7.886  50.017  0.00  0.00    -0.041 A 
ATOM     10  C11 <0> A   1     -18.195   8.744  49.983  0.00  0.00    +0.295 A 
ATOM     11  N3  <0> A   1     -17.238   8.591  49.089  0.00  0.00    -0.490 NA
ENDROOT
BRANCH   3  12
ATOM     12  C12 <0> A   1     -15.465   9.918  47.271  0.00  0.00    -0.033 A 
ATOM     13  C13 <0> A   1     -16.390  10.802  46.710  0.00  0.00    +0.088 A 
ATOM     14  C14 <0> A   1     -16.422  12.116  47.124  0.00  0.00    -0.011 A 
ATOM     15  C15 <0> A   1     -15.539  12.561  48.095  0.00  0.00    +0.112 A 
ATOM     16  C16 <0> A   1     -14.618  11.688  48.655  0.00  0.00    -0.021 A 
ATOM     17  C17 <0> A   1     -14.581  10.370  48.252  0.00  0.00    +0.074 A 
ATOM     18  F1  <0> A   1     -15.574  13.850  48.498  0.00  0.00    -0.138 F 
ENDBRANCH   3  12
BRANCH   1  20
ATOM     19  C1  <0> A   1     -14.316   4.187  45.499  0.00  0.00    +0.037 C 
ATOM     20  C2  <0> A   1     -14.176   5.589  44.903  0.00  0.00    +0.081 C 
ATOM     21  C3  <0> A   1     -14.813   5.618  43.512  0.00  0.00    +0.038 C 
ENDBRANCH   1  20
BRANCH   2  22
ATOM     22  C18 <0> A   1     -13.477   8.663  45.181  0.00  0.00    +0.040 C 
ATOM     23  C19 <0> A   1     -13.786   9.525  44.220  0.00  0.00    -0.054 C 
BRANCH  23  24
ATOM     24  C20 <0> A   1     -12.692  10.250  43.479  0.00  0.00    +0.251 C 
BRANCH  24  25
ATOM     25  O4  <0> A   1     -11.604  10.509  44.368  0.00  0.00    -0.538 OA
ATOM     26  H25 <0> A   1     -11.392   9.769  44.955  0.00  0.00    +0.366 HD
ENDBRANCH  24  25
BRANCH  24  27
ATOM     27  C21 <0> A   1     -12.206   9.386  42.314  0.00  0.00    -0.042 C 
BRANCH  27  28
ATOM     28  C22 <0> A   1     -12.237  10.206  41.022  0.00  0.00    +0.230 C 
BRANCH  28  29
ATOM     29  O3  <0> A   1     -12.479   9.339  39.913  0.00  0.00    -0.528 OA
ATOM     30  H24 <0> A   1     -12.950   9.759  39.180  0.00  0.00    +0.350 HD
ENDBRANCH  28  29
BRANCH  28  31
ATOM     31  C23 <0> A   1     -13.354  11.248  41.107  0.00  0.00    -0.102 C 
BRANCH  31  32
ATOM     32  C24 <0> A   1     -13.980  11.425  39.748  0.00  0.00    +0.491 C 
ATOM     33  O1  <0> A   1     -13.332  11.912  38.837  0.00  0.00    -0.681 OA
ATOM     34  O2  <0> A   1     -15.134  11.081  39.559  0.00  0.00    -0.714 OA
ENDBRANCH  31  32
ENDBRANCH  28  31
ENDBRANCH  27  28
ENDBRANCH  24  27
ENDBRANCH  23  24
ENDBRANCH   2  22
TORSDOF 10
