REMARK VINA RESULT:      -8.0      3.807      7.656
REMARK  Name = CHEMBL488821
REMARK  16 active torsions:
REMARK  status: ('A' for Active; 'I' for Inactive)
REMARK    1  A    between atoms: C1_1  and  C2_2
REMARK    2  A    between atoms: C4_5  and  C6_8
REMARK    3  A    between atoms: C6_8  and  N3_9
REMARK    4  A    between atoms: C7_10  and  C8_12
REMARK    5  A    between atoms: C9_13  and  C26_38
REMARK    6  A    between atoms: C10_14  and  C20_31
REMARK    7  A    between atoms: C11_15  and  C13_18
REMARK    8  A    between atoms: N4_16  and  C12_17
REMARK    9  A    between atoms: C13_18  and  C14_19
REMARK   10  A    between atoms: C14_19  and  C15_20
REMARK   11  A    between atoms: C15_20  and  C16_22
REMARK   12  A    between atoms: C15_20  and  O5_30
REMARK   13  A    between atoms: C16_22  and  C17_23
REMARK   14  A    between atoms: C17_23  and  C18_25
REMARK   15  A    between atoms: C17_23  and  O4_29
REMARK   16  A    between atoms: C18_25  and  C19_26
REMARK                            x       y       z     vdW  Elec       q    Type
REMARK                         _______ _______ _______ _____ _____    ______ ____
ROOT
ATOM      1  C8  <0> A   1     -12.814  10.029  46.463  0.00  0.00    -0.035 C 
ATOM      2  C9  <0> A   1     -13.739  10.248  47.477  0.00  0.00    -0.055 C 
ATOM      3  C10 <0> A   1     -13.559   9.207  48.422  0.00  0.00    -0.121 C 
ATOM      4  C11 <0> A   1     -12.555   8.407  47.965  0.00  0.00    +0.073 C 
ATOM      5  N4  <0> A   1     -12.106   8.893  46.783  0.00  0.00    -0.411 N 
ATOM      6  C12 <0> A   1     -11.034   8.306  45.976  0.00  0.00    +0.326 C 
ENDROOT
BRANCH   3   7
ATOM      7  C20 <0> A   1     -14.325   9.022  49.680  0.00  0.00    -0.011 A 
ATOM      8  C21 <0> A   1     -15.549   8.357  49.662  0.00  0.00    +0.053 A 
ATOM      9  C22 <0> A   1     -16.257   8.188  50.834  0.00  0.00    -0.013 A 
ATOM     10  C23 <0> A   1     -15.753   8.679  52.027  0.00  0.00    +0.096 A 
ATOM     11  C24 <0> A   1     -14.537   9.340  52.050  0.00  0.00    -0.020 A 
ATOM     12  C25 <0> A   1     -13.818   9.510  50.884  0.00  0.00    +0.055 A 
ATOM     13  F1  <0> A   1     -16.451   8.512  53.172  0.00  0.00    -0.142 F 
ENDBRANCH   3   7
BRANCH   2  14
ATOM     14  C26 <0> A   1     -14.721  11.354  47.553  0.00  0.00    -0.011 A 
ATOM     15  C27 <0> A   1     -14.349  12.585  48.094  0.00  0.00    +0.028 A 
ATOM     16  C28 <0> A   1     -15.268  13.611  48.162  0.00  0.00    +0.004 A 
ATOM     17  C29 <0> A   1     -16.557  13.422  47.696  0.00  0.00    -0.001 A 
ATOM     18  C30 <0> A   1     -16.932  12.203  47.159  0.00  0.00    -0.000 A 
ATOM     19  C31 <0> A   1     -16.020  11.171  47.080  0.00  0.00    +0.007 A 
ENDBRANCH   2  14
BRANCH   1  21
ATOM     20  N3  <0> A   1     -13.489  10.747  44.235  0.00  0.00    -0.716 N 
ATOM     21  C7  <0> A   1     -12.629  10.854  45.267  0.00  0.00    +0.602 C 
ATOM     22  O1  <0> A   1     -11.699  11.638  45.206  0.00  0.00    -0.514 OA
ATOM     23  H10 <0> A   1     -14.184  10.071  44.250  0.00  0.00    +0.404 HD
BRANCH  20  24
ATOM     24  C6  <0> A   1     -13.375  11.653  43.089  0.00  0.00    +0.363 C 
BRANCH  24  29
ATOM     25  C1  <0> A   1     -12.523   8.572  38.384  0.00  0.00    +0.146 C 
ATOM     26  C2  <0> A   1     -12.750   9.376  39.638  0.00  0.00    +0.088 A 
ATOM     27  C3  <0> A   1     -12.642  10.755  39.605  0.00  0.00    +0.226 A 
ATOM     28  N1  <0> A   1     -12.842  11.461  40.704  0.00  0.00    -0.418 NA
ATOM     29  C4  <0> A   1     -13.146  10.849  41.835  0.00  0.00    +0.046 A 
ATOM     30  C5  <0> A   1     -13.256   9.470  41.869  0.00  0.00    +0.252 A 
ATOM     31  N2  <0> A   1     -13.059   8.765  40.768  0.00  0.00    -0.438 NA
ENDBRANCH  24  29
ENDBRANCH  20  24
ENDBRANCH   1  21
BRANCH   4  32
ATOM     32  C13 <0> A   1     -12.032   7.177  48.659  0.00  0.00    +0.120 C 
BRANCH  32  33
ATOM     33  C14 <0> A   1     -13.027   6.028  48.480  0.00  0.00    -0.009 C 
BRANCH  33  34
ATOM     34  C15 <0> A   1     -13.430   5.929  47.007  0.00  0.00    +0.213 C 
BRANCH  34  35
ATOM     35  O5  <0> A   1     -12.838   4.764  46.428  0.00  0.00    -0.542 OA
ATOM     36  H23 <0> A   1     -12.688   4.832  45.476  0.00  0.00    +0.363 HD
ENDBRANCH  34  35
BRANCH  34  37
ATOM     37  C16 <0> A   1     -14.953   5.833  46.901  0.00  0.00    -0.051 C 
BRANCH  37  38
ATOM     38  C17 <0> A   1     -15.424   6.557  45.638  0.00  0.00    +0.230 C 
BRANCH  38  39
ATOM     39  O4  <0> A   1     -14.326   7.267  45.060  0.00  0.00    -0.528 OA
ATOM     40  H22 <0> A   1     -14.165   8.134  45.457  0.00  0.00    +0.349 HD
ENDBRANCH  38  39
BRANCH  38  41
ATOM     41  C18 <0> A   1     -15.956   5.535  44.631  0.00  0.00    -0.103 C 
BRANCH  41  42
ATOM     42  C19 <0> A   1     -14.938   5.327  43.540  0.00  0.00    +0.490 C 
ATOM     43  O2  <0> A   1     -14.956   6.032  42.546  0.00  0.00    -0.681 OA
ATOM     44  O3  <0> A   1     -14.096   4.452  43.651  0.00  0.00    -0.713 OA
ENDBRANCH  41  42
ENDBRANCH  38  41
ENDBRANCH  37  38
ENDBRANCH  34  37
ENDBRANCH  33  34
ENDBRANCH  32  33
ENDBRANCH   4  32
TORSDOF 14
