REMARK VINA RESULT:      -7.2      9.918     12.509
REMARK  Name = CHEMBL142436
REMARK  13 active torsions:
REMARK  status: ('A' for Active; 'I' for Inactive)
REMARK    1  A    between atoms: C1_1  and  C2_2
REMARK    2  A    between atoms: C4_4  and  C17_24
REMARK    3  A    between atoms: C5_5  and  C10_12
REMARK    4  A    between atoms: C6_6  and  C7_9
REMARK    5  A    between atoms: C7_9  and  C8_10
REMARK    6  A    between atoms: C7_9  and  C9_11
REMARK    7  A    between atoms: C11_13  and  C12_14
REMARK    8  A    between atoms: C12_14  and  C13_15
REMARK    9  A    between atoms: C12_14  and  O5_23
REMARK   10  A    between atoms: C13_15  and  C14_16
REMARK   11  A    between atoms: C14_16  and  C15_18
REMARK   12  A    between atoms: C14_16  and  O4_22
REMARK   13  A    between atoms: C15_18  and  C16_19
REMARK                            x       y       z     vdW  Elec       q    Type
REMARK                         _______ _______ _______ _____ _____    ______ ____
ROOT
ATOM      1  C1  <0> A   1      -0.817   2.886  44.267  0.00  0.00    +0.156 C 
ATOM      2  C2  <0> A   1      -2.106   3.344  44.900  0.00  0.00    +0.101 A 
ATOM      3  C3  <0> A   1      -2.066   4.268  45.924  0.00  0.00    +0.042 A 
ATOM      4  C4  <0> A   1      -3.262   4.691  46.507  0.00  0.00    +0.005 A 
ATOM      5  C5  <0> A   1      -4.468   4.147  46.017  0.00  0.00    -0.041 A 
ATOM      6  C6  <0> A   1      -4.411   3.218  44.979  0.00  0.00    +0.125 A 
ATOM      7  N1  <0> A   1      -3.253   2.859  44.461  0.00  0.00    -0.114 N 
ATOM      8  O1  <0> A   1      -3.239   1.917  43.404  0.00  0.00    -0.533 OA
ENDROOT
BRANCH   4   9
ATOM      9  C17 <0> A   1      -3.265   5.681  47.609  0.00  0.00    -0.073 A 
ATOM     10  C18 <0> A   1      -3.248   7.046  47.323  0.00  0.00    +0.083 A 
ATOM     11  C19 <0> A   1      -3.251   7.964  48.352  0.00  0.00    -0.008 A 
ATOM     12  C20 <0> A   1      -3.272   7.532  49.668  0.00  0.00    +0.114 A 
ATOM     13  C21 <0> A   1      -3.290   6.178  49.957  0.00  0.00    -0.014 A 
ATOM     14  C22 <0> A   1      -3.292   5.252  48.935  0.00  0.00    +0.064 A 
ATOM     15  F1  <0> A   1      -3.275   8.436  50.673  0.00  0.00    -0.135 F 
ENDBRANCH   4   9
BRANCH   6  16
ATOM     16  C7  <0> A   1      -5.687   2.625  44.439  0.00  0.00    +0.055 C 
ATOM     17  C8  <0> A   1      -6.167   1.512  45.372  0.00  0.00    +0.044 C 
ATOM     18  C9  <0> A   1      -6.757   3.714  44.351  0.00  0.00    +0.044 C 
ENDBRANCH   6  16
BRANCH   5  19
ATOM     19  C10 <0> A   1      -5.765   4.553  46.592  0.00  0.00    +0.002 C 
ATOM     20  C11 <0> A   1      -6.264   3.896  47.632  0.00  0.00    -0.015 C 
BRANCH  20  21
ATOM     21  C12 <0> A   1      -7.589   4.310  48.219  0.00  0.00    +0.253 C 
BRANCH  21  22
ATOM     22  O5  <0> A   1      -8.647   3.872  47.364  0.00  0.00    -0.536 OA
ATOM     23  H21 <0> A   1      -8.664   2.916  47.218  0.00  0.00    +0.367 HD
ENDBRANCH  21  22
BRANCH  21  24
ATOM     24  C13 <0> A   1      -7.755   3.677  49.601  0.00  0.00    -0.040 C 
BRANCH  24  25
ATOM     25  C14 <0> A   1      -6.406   3.664  50.323  0.00  0.00    +0.232 C 
BRANCH  25  26
ATOM     26  O4  <0> A   1      -6.241   4.886  51.045  0.00  0.00    -0.528 OA
ATOM     27  H20 <0> A   1      -5.717   5.551  50.579  0.00  0.00    +0.351 HD
ENDBRANCH  25  26
BRANCH  25  28
ATOM     28  C15 <0> A   1      -6.360   2.485  51.297  0.00  0.00    -0.101 C 
BRANCH  28  29
ATOM     29  C16 <0> A   1      -4.960   1.927  51.343  0.00  0.00    +0.491 C 
ATOM     30  O2  <0> A   1      -4.779   0.726  51.234  0.00  0.00    -0.681 OA
ATOM     31  O3  <0> A   1      -4.010   2.676  51.490  0.00  0.00    -0.712 OA
ENDBRANCH  28  29
ENDBRANCH  25  28
ENDBRANCH  24  25
ENDBRANCH  21  24
ENDBRANCH  20  21
ENDBRANCH   5  19
TORSDOF 10
