REMARK VINA RESULT:      -8.0     21.274     24.527
REMARK  Name = CHEMBL346446
REMARK  10 active torsions:
REMARK  status: ('A' for Active; 'I' for Inactive)
REMARK    1  A    between atoms: C1_1  and  C2_2
REMARK    2  A    between atoms: C2_2  and  C3_3
REMARK    3  A    between atoms: C2_2  and  C4_4
REMARK    4  A    between atoms: C5_5  and  C17_20
REMARK    5  A    between atoms: C6_6  and  C11_13
REMARK    6  A    between atoms: C7_8  and  C8_10
REMARK    7  A    between atoms: C8_10  and  C9_11
REMARK    8  A    between atoms: C8_10  and  C10_12
REMARK    9  A    between atoms: C18_21  and  C19_22
REMARK   10  A    between atoms: C21_24  and  O3_30
REMARK                            x       y       z     vdW  Elec       q    Type
REMARK                         _______ _______ _______ _____ _____    ______ ____
ROOT
ATOM      1  C4  <0> A   1     -26.077  -1.462  52.477  0.00  0.00    +0.204 A 
ATOM      2  C5  <0> A   1     -26.723  -2.493  51.789  0.00  0.00    -0.160 A 
ATOM      3  C6  <0> A   1     -27.973  -2.214  51.200  0.00  0.00    +0.230 A 
ATOM      4  N1  <0> A   1     -28.479  -0.989  51.324  0.00  0.00    -0.505 NA
ATOM      5  C7  <0> A   1     -27.828  -0.053  51.983  0.00  0.00    +0.334 A 
ATOM      6  N2  <0> A   1     -26.659  -0.278  52.553  0.00  0.00    -0.511 NA
ENDROOT
BRANCH   3   7
ATOM      7  C11 <0> A   1     -28.709  -3.263  50.458  0.00  0.00    -0.072 A 
ATOM      8  C12 <0> A   1     -29.722  -3.985  51.087  0.00  0.00    +0.086 A 
ATOM      9  C13 <0> A   1     -30.404  -4.962  50.393  0.00  0.00    -0.018 A 
ATOM     10  C14 <0> A   1     -30.083  -5.226  49.070  0.00  0.00    +0.120 A 
ATOM     11  C15 <0> A   1     -29.077  -4.512  48.441  0.00  0.00    -0.019 A 
ATOM     12  C16 <0> A   1     -28.393  -3.529  49.125  0.00  0.00    +0.096 A 
ATOM     13  F1  <0> A   1     -30.753  -6.185  48.393  0.00  0.00    -0.135 F 
ENDBRANCH   3   7
BRANCH   1  15
ATOM     14  C1  <0> A   1     -23.625  -1.220  52.193  0.00  0.00    +0.044 C 
ATOM     15  C2  <0> A   1     -24.738  -1.699  53.128  0.00  0.00    +0.045 C 
ATOM     16  C3  <0> A   1     -24.668  -0.924  54.446  0.00  0.00    +0.045 C 
ENDBRANCH   1  15
BRANCH   5  17
ATOM     17  C8  <0> A   1     -28.441   1.318  52.096  0.00  0.00    +0.070 C 
ATOM     18  C9  <0> A   1     -27.659   2.300  51.222  0.00  0.00    +0.045 C 
ATOM     19  C10 <0> A   1     -29.897   1.265  51.628  0.00  0.00    +0.045 C 
ENDBRANCH   5  17
BRANCH   2  20
ATOM     20  C17 <0> A   1     -26.115  -3.835  51.683  0.00  0.00    +0.052 C 
ATOM     21  C18 <0> A   1     -25.303  -4.117  50.674  0.00  0.00    -0.007 C 
BRANCH  21  22
ATOM     22  C19 <0> A   1     -24.682  -5.486  50.566  0.00  0.00    +0.244 C 
ATOM     23  C20 <0> A   1     -25.569  -6.382  49.698  0.00  0.00    +0.051 C 
ATOM     24  C21 <0> A   1     -24.956  -7.785  49.624  0.00  0.00    +0.186 C 
ATOM     25  C22 <0> A   1     -24.853  -8.355  51.045  0.00  0.00    +0.024 C 
ATOM     26  C23 <0> A   1     -24.139  -7.341  51.912  0.00  0.00    +0.498 C 
ATOM     27  O1  <0> A   1     -23.217  -7.669  52.622  0.00  0.00    -0.449 OA
ATOM     28  O2  <0> A   1     -24.562  -6.060  51.872  0.00  0.00    -0.370 OA
BRANCH  24  29
ATOM     29  O3  <0> A   1     -23.655  -7.709  49.040  0.00  0.00    -0.563 OA
ATOM     30  H27 <0> A   1     -23.458  -8.427  48.422  0.00  0.00    +0.388 HD
ENDBRANCH  24  29
ENDBRANCH  21  22
ENDBRANCH   2  20
TORSDOF 6
