REMARK VINA RESULT:      -6.5      1.839      3.003
REMARK  Name = CHEMBL101633
REMARK  11 active torsions:
REMARK  status: ('A' for Active; 'I' for Inactive)
REMARK    1  A    between atoms: C5_5  and  O1_14
REMARK    2  A    between atoms: C6_6  and  C7_7
REMARK    3  A    between atoms: C7_7  and  C8_8
REMARK    4  A    between atoms: O1_14  and  C14_15
REMARK    5  A    between atoms: C14_15  and  C15_16
REMARK    6  A    between atoms: C15_16  and  C16_17
REMARK    7  A    between atoms: C15_16  and  O5_25
REMARK    8  A    between atoms: C16_17  and  C17_18
REMARK    9  A    between atoms: C17_18  and  C18_20
REMARK   10  A    between atoms: C17_18  and  O4_24
REMARK   11  A    between atoms: C18_20  and  C19_21
REMARK                            x       y       z     vdW  Elec       q    Type
REMARK                         _______ _______ _______ _____ _____    ______ ____
ROOT
ATOM      1  C1  <0> A   1      -2.666   4.147  45.615  0.00  0.00    +0.051 A 
ATOM      2  C2  <0> A   1      -2.127   3.130  44.848  0.00  0.00    -0.030 A 
ATOM      3  C3  <0> A   1      -2.949   2.153  44.316  0.00  0.00    +0.047 A 
ATOM      4  C4  <0> A   1      -4.311   2.192  44.550  0.00  0.00    -0.047 A 
ATOM      5  C5  <0> A   1      -4.854   3.212  45.318  0.00  0.00    +0.117 A 
ATOM      6  C6  <0> A   1      -4.027   4.191  45.851  0.00  0.00    -0.069 A 
ATOM      7 Cl1  <0> A   1      -5.343   0.966  43.880  0.00  0.00    -0.041 Cl
ATOM      8 Cl2  <0> A   1      -0.418   3.079  44.554  0.00  0.00    -0.058 Cl
ENDROOT
BRANCH   6   9
ATOM      9  C7  <0> A   1      -4.613   5.299  46.687  0.00  0.00    +0.085 C 
BRANCH   9  10
ATOM     10  C8  <0> A   1      -3.500   5.966  47.500  0.00  0.00    +0.002 C 
ATOM     11  C9  <0> A   1      -3.586   5.505  48.956  0.00  0.00    +0.006 C 
ATOM     12  C10 <0> A   1      -2.473   6.171  49.769  0.00  0.00    +0.000 C 
ATOM     13  C11 <0> A   1      -2.636   7.692  49.704  0.00  0.00    -0.001 C 
ATOM     14  C12 <0> A   1      -2.550   8.152  48.248  0.00  0.00    +0.005 C 
ATOM     15  C13 <0> A   1      -3.663   7.485  47.435  0.00  0.00    +0.013 C 
ENDBRANCH   9  10
ENDBRANCH   6   9
BRANCH   5  16
ATOM     16  O1  <0> A   1      -6.192   3.253  45.549  0.00  0.00    -0.307 OA
BRANCH  16  17
ATOM     17  C14 <0> A   1      -6.728   2.273  46.439  0.00  0.00    +0.152 C 
BRANCH  17  18
ATOM     18  C15 <0> A   1      -7.478   2.970  47.575  0.00  0.00    +0.227 C 
BRANCH  18  19
ATOM     19  O5  <0> A   1      -6.561   3.298  48.621  0.00  0.00    -0.529 OA
ATOM     20  H25 <0> A   1      -6.470   4.247  48.780  0.00  0.00    +0.364 HD
ENDBRANCH  18  19
BRANCH  18  21
ATOM     21  C16 <0> A   1      -8.128   4.250  47.048  0.00  0.00    -0.043 C 
BRANCH  21  22
ATOM     22  C17 <0> A   1      -9.566   4.342  47.564  0.00  0.00    +0.235 C 
BRANCH  22  23
ATOM     23  O4  <0> A   1      -9.667   3.664  48.818  0.00  0.00    -0.527 OA
ATOM     24  H24 <0> A   1      -9.295   2.771  48.813  0.00  0.00    +0.351 HD
ENDBRANCH  22  23
BRANCH  22  25
ATOM     25  C18 <0> A   1      -9.950   5.812  47.746  0.00  0.00    -0.101 C 
BRANCH  25  26
ATOM     26  C19 <0> A   1     -10.516   6.015  49.128  0.00  0.00    +0.490 C 
ATOM     27  O2  <0> A   1     -11.720   5.960  49.308  0.00  0.00    -0.680 OA
ATOM     28  O3  <0> A   1      -9.769   6.236  50.067  0.00  0.00    -0.713 OA
ENDBRANCH  25  26
ENDBRANCH  22  25
ENDBRANCH  21  22
ENDBRANCH  18  21
ENDBRANCH  17  18
ENDBRANCH  16  17
ENDBRANCH   5  16
TORSDOF 11
