REMARK VINA RESULT:      -6.9     10.149     13.264
REMARK  Name = CHEMBL39312
REMARK  12 active torsions:
REMARK  status: ('A' for Active; 'I' for Inactive)
REMARK    1  A    between atoms: C4_4  and  C7_7
REMARK    2  A    between atoms: C7_7  and  O1_8
REMARK    3  A    between atoms: O1_8  and  C8_9
REMARK    4  A    between atoms: C13_14  and  C14_15
REMARK    5  A    between atoms: C14_15  and  C15_16
REMARK    6  A    between atoms: C15_16  and  C16_17
REMARK    7  A    between atoms: C16_17  and  C17_19
REMARK    8  A    between atoms: C16_17  and  O5_27
REMARK    9  A    between atoms: C17_19  and  C18_20
REMARK   10  A    between atoms: C18_20  and  C19_22
REMARK   11  A    between atoms: C18_20  and  O4_26
REMARK   12  A    between atoms: C19_22  and  C20_23
REMARK                            x       y       z     vdW  Elec       q    Type
REMARK                         _______ _______ _______ _____ _____    ______ ____
ROOT
ATOM      1  C8  <0> A   1      -3.816   4.263  45.701  0.00  0.00    +0.159 A 
ATOM      2  C9  <0> A   1      -2.447   4.084  45.574  0.00  0.00    -0.056 A 
ATOM      3  C10 <0> A   1      -1.954   2.981  44.901  0.00  0.00    +0.009 A 
ATOM      4  C11 <0> A   1      -2.827   2.057  44.353  0.00  0.00    +0.006 A 
ATOM      5  C12 <0> A   1      -4.194   2.234  44.478  0.00  0.00    +0.011 A 
ATOM      6  C13 <0> A   1      -4.690   3.333  45.156  0.00  0.00    -0.094 A 
ATOM      7 Cl1  <0> A   1      -5.285   1.074  43.790  0.00  0.00    -0.040 Cl
ATOM      8 Cl2  <0> A   1      -0.241   2.755  44.742  0.00  0.00    -0.057 Cl
ENDROOT
BRANCH   1   9
ATOM      9  O1  <0> A   1      -4.303   5.346  46.362  0.00  0.00    -0.289 OA
BRANCH   9  10
ATOM     10  C7  <0> A   1      -3.470   6.508  46.405  0.00  0.00    +0.246 C 
BRANCH  10  14
ATOM     11  C1  <0> A   1      -3.034   7.799  50.454  0.00  0.00    +0.019 A 
ATOM     12  C2  <0> A   1      -3.494   6.523  50.181  0.00  0.00    +0.003 A 
ATOM     13  C3  <0> A   1      -3.635   6.106  48.870  0.00  0.00    +0.030 A 
ATOM     14  C4  <0> A   1      -3.317   6.963  47.834  0.00  0.00    -0.099 A 
ATOM     15  C5  <0> A   1      -2.857   8.238  48.107  0.00  0.00    +0.031 A 
ATOM     16  C6  <0> A   1      -2.715   8.655  49.417  0.00  0.00    +0.005 A 
ENDBRANCH  10  14
ENDBRANCH   9  10
ENDBRANCH   1   9
BRANCH   6  17
ATOM     17  C14 <0> A   1      -6.178   3.523  45.298  0.00  0.00    +0.097 C 
BRANCH  17  18
ATOM     18  C15 <0> A   1      -6.692   2.671  46.461  0.00  0.00    -0.007 C 
BRANCH  18  19
ATOM     19  C16 <0> A   1      -7.269   3.584  47.545  0.00  0.00    +0.211 C 
BRANCH  19  20
ATOM     20  O5  <0> A   1      -8.546   3.090  47.953  0.00  0.00    -0.540 OA
ATOM     21  H21 <0> A   1      -8.598   2.858  48.891  0.00  0.00    +0.364 HD
ENDBRANCH  19  20
BRANCH  19  22
ATOM     22  C17 <0> A   1      -6.323   3.608  48.748  0.00  0.00    -0.053 C 
BRANCH  22  23
ATOM     23  C18 <0> A   1      -6.924   2.778  49.885  0.00  0.00    +0.230 C 
BRANCH  23  24
ATOM     24  O4  <0> A   1      -6.736   1.389  49.611  0.00  0.00    -0.528 OA
ATOM     25  H20 <0> A   1      -7.559   0.902  49.468  0.00  0.00    +0.349 HD
ENDBRANCH  23  24
BRANCH  23  26
ATOM     26  C19 <0> A   1      -6.230   3.138  51.200  0.00  0.00    -0.103 C 
BRANCH  26  27
ATOM     27  C20 <0> A   1      -5.477   1.939  51.716  0.00  0.00    +0.490 C 
ATOM     28  O2  <0> A   1      -4.341   1.720  51.331  0.00  0.00    -0.681 OA
ATOM     29  O3  <0> A   1      -6.004   1.187  52.518  0.00  0.00    -0.714 OA
ENDBRANCH  26  27
ENDBRANCH  23  26
ENDBRANCH  22  23
ENDBRANCH  19  22
ENDBRANCH  18  19
ENDBRANCH  17  18
ENDBRANCH   6  17
TORSDOF 12
