REMARK VINA RESULT:      -8.3      2.616      4.650
REMARK  Name = CHEMBL66368
REMARK  12 active torsions:
REMARK  status: ('A' for Active; 'I' for Inactive)
REMARK    1  A    between atoms: C1_1  and  C2_2
REMARK    2  A    between atoms: C2_2  and  C3_3
REMARK    3  A    between atoms: C2_2  and  C4_4
REMARK    4  A    between atoms: C5_5  and  C20_25
REMARK    5  A    between atoms: C6_6  and  C14_18
REMARK    6  A    between atoms: C21_26  and  C22_27
REMARK    7  A    between atoms: C22_27  and  C23_28
REMARK    8  A    between atoms: C22_27  and  O4_36
REMARK    9  A    between atoms: C23_28  and  C24_29
REMARK   10  A    between atoms: C24_29  and  C25_31
REMARK   11  A    between atoms: C24_29  and  O3_35
REMARK   12  A    between atoms: C25_31  and  C26_32
REMARK                            x       y       z     vdW  Elec       q    Type
REMARK                         _______ _______ _______ _____ _____    ______ ____
ROOT
ATOM      1  C4  <0> A   1     -15.055   6.401  45.313  0.00  0.00    +0.131 C 
ATOM      2  C5  <0> A   1     -14.352   7.608  45.116  0.00  0.00    -0.154 C 
ATOM      3  C6  <0> A   1     -14.506   8.366  46.271  0.00  0.00    +0.154 C 
ATOM      4  N1  <0> A   1     -15.277   7.632  47.129  0.00  0.00    -0.294 N 
ATOM      5  N2  <0> A   1     -15.600   6.425  46.499  0.00  0.00    -0.268 NA
ATOM      6  C7  <0> A   1     -15.673   8.019  48.404  0.00  0.00    +0.390 C 
ATOM      7  N3  <0> A   1     -15.411   9.134  49.043  0.00  0.00    -0.522 NA
ATOM      8  C8  <0> A   1     -15.867   9.380  50.290  0.00  0.00    +0.100 A 
ATOM      9  C9  <0> A   1     -15.658  10.531  51.085  0.00  0.00    +0.073 A 
ATOM     10  C10 <0> A   1     -16.195  10.620  52.342  0.00  0.00    +0.030 A 
ATOM     11  C11 <0> A   1     -16.957   9.592  52.880  0.00  0.00    +0.044 A 
ATOM     12  C12 <0> A   1     -17.180   8.452  52.131  0.00  0.00    +0.074 A 
ATOM     13  C13 <0> A   1     -16.647   8.353  50.870  0.00  0.00    -0.157 A 
ATOM     14  S1  <0> A   1     -16.674   7.127  49.585  0.00  0.00    +0.069 S 
ENDROOT
BRANCH   3  15
ATOM     15  C14 <0> A   1     -13.944   9.707  46.522  0.00  0.00    -0.061 A 
ATOM     16  C15 <0> A   1     -14.672  10.848  46.177  0.00  0.00    +0.095 A 
ATOM     17  C16 <0> A   1     -14.143  12.099  46.414  0.00  0.00    -0.018 A 
ATOM     18  C17 <0> A   1     -12.891  12.226  46.995  0.00  0.00    +0.120 A 
ATOM     19  C18 <0> A   1     -12.164  11.097  47.340  0.00  0.00    -0.025 A 
ATOM     20  C19 <0> A   1     -12.685   9.842  47.113  0.00  0.00    +0.109 A 
ATOM     21  F1  <0> A   1     -12.377  13.454  47.226  0.00  0.00    -0.137 F 
ENDBRANCH   3  15
BRANCH   1  23
ATOM     22  C1  <0> A   1     -14.386   4.061  44.836  0.00  0.00    +0.042 C 
ATOM     23  C2  <0> A   1     -15.163   5.274  44.318  0.00  0.00    +0.084 C 
ATOM     24  C3  <0> A   1     -16.634   4.897  44.133  0.00  0.00    +0.042 C 
ENDBRANCH   1  23
BRANCH   2  25
ATOM     25  C20 <0> A   1     -13.595   7.993  43.909  0.00  0.00    +0.039 C 
ATOM     26  C21 <0> A   1     -12.325   7.632  43.779  0.00  0.00    -0.044 C 
BRANCH  26  27
ATOM     27  C22 <0> A   1     -11.553   8.026  42.547  0.00  0.00    +0.252 C 
BRANCH  27  28
ATOM     28  O4  <0> A   1     -10.571   7.028  42.260  0.00  0.00    -0.538 OA
ATOM     29  H25 <0> A   1     -10.526   6.778  41.328  0.00  0.00    +0.366 HD
ENDBRANCH  27  28
BRANCH  27  30
ATOM     30  C23 <0> A   1     -12.513   8.151  41.362  0.00  0.00    -0.041 C 
BRANCH  30  31
ATOM     31  C24 <0> A   1     -12.741   9.631  41.044  0.00  0.00    +0.231 C 
BRANCH  31  32
ATOM     32  O3  <0> A   1     -11.650  10.400  41.551  0.00  0.00    -0.528 OA
ATOM     33  H24 <0> A   1     -11.050  10.730  40.868  0.00  0.00    +0.350 HD
ENDBRANCH  31  32
BRANCH  31  34
ATOM     34  C25 <0> A   1     -12.838   9.819  39.530  0.00  0.00    -0.102 C 
BRANCH  34  35
ATOM     35  C26 <0> A   1     -13.061  11.276  39.217  0.00  0.00    +0.490 C 
ATOM     36  O1  <0> A   1     -12.107  12.024  39.087  0.00  0.00    -0.681 OA
ATOM     37  O2  <0> A   1     -14.195  11.706  39.095  0.00  0.00    -0.713 OA
ENDBRANCH  34  35
ENDBRANCH  31  34
ENDBRANCH  30  31
ENDBRANCH  27  30
ENDBRANCH  26  27
ENDBRANCH   2  25
TORSDOF 10
