REMARK  Name = CHEMBL250383
REMARK  17 active torsions:
REMARK  status: ('A' for Active; 'I' for Inactive)
REMARK    1  A    between atoms: C1_1  and  C2_2
REMARK    2  A    between atoms: C2_2  and  C3_3
REMARK    3  A    between atoms: C2_2  and  C4_4
REMARK    4  A    between atoms: C5_5  and  C19_29
REMARK    5  A    between atoms: N2_7  and  C13_22
REMARK    6  A    between atoms: C6_8  and  O1_9
REMARK    7  A    between atoms: O1_9  and  C7_10
REMARK    8  A    between atoms: C7_10  and  C8_11
REMARK    9  A    between atoms: C8_11  and  C9_13
REMARK   10  A    between atoms: C8_11  and  O5_21
REMARK   11  A    between atoms: C9_13  and  C10_14
REMARK   12  A    between atoms: C10_14  and  C11_16
REMARK   13  A    between atoms: C10_14  and  O4_20
REMARK   14  A    between atoms: C11_16  and  C12_17
REMARK   15  A    between atoms: N3_31  and  C20_32
REMARK   16  A    between atoms: N3_31  and  C21_33
REMARK   17  A    between atoms: C21_33  and  C22_34
REMARK                            x       y       z     vdW  Elec       q    Type
REMARK                         _______ _______ _______ _____ _____    ______ ____
ROOT
ATOM      1  C4  <0> A   1      -1.549  -1.155   0.670  0.00  0.00    -0.159 C 
ATOM      2  C5  <0> A   1      -2.634  -0.408   1.177  0.00  0.00    +0.047 C 
ATOM      3  N1  <0> A   1      -3.748  -0.923   0.694  0.00  0.00    -0.236 NA
ATOM      4  N2  <0> A   1      -3.409  -2.005  -0.129  0.00  0.00    -0.325 N 
ATOM      5  C6  <0> A   1      -2.053  -2.125  -0.132  0.00  0.00    +0.260 C 
ENDROOT
BRANCH   4   6
ATOM      6  C13 <0> A   1      -4.308  -2.820  -0.830  0.00  0.00    +0.127 A 
ATOM      7  C14 <0> A   1      -5.483  -3.241  -0.223  0.00  0.00    +0.066 A 
ATOM      8  C15 <0> A   1      -6.368  -4.044  -0.916  0.00  0.00    +0.008 A 
ATOM      9  C16 <0> A   1      -6.084  -4.428  -2.216  0.00  0.00    +0.108 A 
ATOM     10  C17 <0> A   1      -4.913  -4.008  -2.823  0.00  0.00    +0.017 A 
ATOM     11  C18 <0> A   1      -4.028  -3.201  -2.136  0.00  0.00    +0.066 A 
ATOM     12  F1  <0> A   1      -6.951  -5.213  -2.892  0.00  0.00    -0.132 F 
ENDBRANCH   4   6
BRANCH   2  13
ATOM     13  C19 <0> A   1      -2.538   0.749   2.090  0.00  0.00    +0.600 C 
ATOM     14  O6  <0> A   1      -1.453   1.112   2.500  0.00  0.00    -0.516 OA
ATOM     15  N3  <0> A   1      -3.655   1.402   2.469  0.00  0.00    -0.600 N 
ATOM     16  C20 <0> A   1      -4.970   0.906   2.056  0.00  0.00    +0.296 C 
BRANCH  15  17
ATOM     17  C21 <0> A   1      -3.553   2.609   3.294  0.00  0.00    +0.287 C 
BRANCH  17  18
ATOM     18  C22 <0> A   1      -3.449   3.838   2.389  0.00  0.00    -0.027 C 
ATOM     19  C23 <0> A   1      -4.747   3.999   1.595  0.00  0.00    +0.009 C 
ATOM     20  C24 <0> A   1      -4.642   5.228   0.690  0.00  0.00    +0.001 C 
ATOM     21  C25 <0> A   1      -4.411   6.474   1.547  0.00  0.00    +0.000 C 
ATOM     22  C26 <0> A   1      -3.113   6.314   2.341  0.00  0.00    +0.004 C 
ATOM     23  C27 <0> A   1      -3.218   5.084   3.246  0.00  0.00    +0.017 C 
ENDBRANCH  17  18
ENDBRANCH  15  17
ENDBRANCH   2  13
BRANCH   1  25
ATOM     24  C1  <0> A   1       0.534  -2.190   1.528  0.00  0.00    +0.020 C 
ATOM     25  C2  <0> A   1      -0.091  -0.913   0.963  0.00  0.00    +0.078 C 
ATOM     26  C3  <0> A   1       0.630  -0.520  -0.328  0.00  0.00    +0.028 C 
ENDBRANCH   1  25
BRANCH   5  27
ATOM     27  O1  <0> A   1      -1.333  -3.052  -0.813  0.00  0.00    -0.283 OA
BRANCH  27  28
ATOM     28  C7  <0> A   1      -1.230  -4.352  -0.229  0.00  0.00    +0.154 C 
BRANCH  28  29
ATOM     29  C8  <0> A   1      -0.284  -5.215  -1.067  0.00  0.00    +0.230 C 
BRANCH  29  30
ATOM     30  O5  <0> A   1       1.035  -4.670  -1.009  0.00  0.00    -0.527 OA
ATOM     31  H17 <0> A   1       1.404  -4.626  -0.116  0.00  0.00    +0.365 HD
ENDBRANCH  29  30
BRANCH  29  32
ATOM     32  C9  <0> A   1      -0.271  -6.642  -0.514  0.00  0.00    -0.041 C 
BRANCH  32  33
ATOM     33  C10 <0> A   1       0.576  -7.534  -1.424  0.00  0.00    +0.236 C 
BRANCH  33  34
ATOM     34  O4  <0> A   1       1.937  -7.100  -1.383  0.00  0.00    -0.526 OA
ATOM     35  H16 <0> A   1       2.334  -7.132  -0.502  0.00  0.00    +0.351 HD
ENDBRANCH  33  34
BRANCH  33  36
ATOM     36  C11 <0> A   1       0.488  -8.983  -0.942  0.00  0.00    -0.101 C 
BRANCH  36  37
ATOM     37  C12 <0> A   1       1.221  -9.878  -1.908  0.00  0.00    +0.491 C 
ATOM     38  O2  <0> A   1       1.763  -9.401  -2.890  0.00  0.00    -0.680 OA
ATOM     39  O3  <0> A   1       1.272 -11.080  -1.707  0.00  0.00    -0.712 OA
ENDBRANCH  36  37
ENDBRANCH  33  36
ENDBRANCH  32  33
ENDBRANCH  29  32
ENDBRANCH  28  29
ENDBRANCH  27  28
ENDBRANCH   5  27
TORSDOF 14
