REMARK  Name = CHEMBL350272
REMARK  4 active torsions:
REMARK  status: ('A' for Active; 'I' for Inactive)
REMARK    1  A    between atoms: C7_8  and  C11_14
REMARK    2  A    between atoms: C11_14  and  C12_15
REMARK    3  A    between atoms: C12_15  and  C13_16
REMARK    4  A    between atoms: C15_18  and  O3_24
REMARK                            x       y       z     vdW  Elec       q    Type
REMARK                         _______ _______ _______ _____ _____    ______ ____
ROOT
ATOM      1  C1  <0> A   1      -0.017   1.390   0.010  0.00  0.00    +0.042 A 
ATOM      2  C2  <0> A   1       1.141   2.106   0.003  0.00  0.00    +0.057 A 
ATOM      3  C3  <0> A   1       2.374   1.435  -0.013  0.00  0.00    -0.043 A 
ATOM      4  C4  <0> A   1       2.394   0.017  -0.021  0.00  0.00    -0.021 A 
ATOM      5  C5  <0> A   1       1.180  -0.689  -0.013  0.00  0.00    +0.059 A 
ATOM      6  C6  <0> A   1       0.002  -0.004   0.002  0.00  0.00    -0.022 A 
ATOM      7 Cl1  <0> A   1      -1.497  -0.880   0.012  0.00  0.00    -0.058 Cl
ATOM      8  C7  <0> A   1       3.629  -0.654  -0.035  0.00  0.00    -0.046 A 
ATOM      9  C8  <0> A   1       4.787   0.063  -0.041  0.00  0.00    -0.024 A 
ATOM     10  C9  <0> A   1       4.768   1.457  -0.034  0.00  0.00    +0.056 A 
ATOM     11  C10 <0> A   1       3.590   2.142  -0.020  0.00  0.00    -0.015 A 
ATOM     12 Cl2  <0> A   1       3.590   3.878  -0.011  0.00  0.00    -0.044 Cl
ATOM     13 Cl3  <0> A   1       6.309  -0.772  -0.059  0.00  0.00    -0.047 Cl
ENDROOT
BRANCH   8  14
ATOM     14  C11 <0> A   1       3.671  -2.161  -0.043  0.00  0.00    +0.090 C 
BRANCH  14  15
ATOM     15  C12 <0> A   1       3.672  -2.663  -1.488  0.00  0.00    +0.065 C 
BRANCH  15  16
ATOM     16  C13 <0> A   1       3.715  -4.193  -1.496  0.00  0.00    +0.200 C 
ATOM     17  C14 <0> A   1       3.837  -4.693  -2.938  0.00  0.00    +0.043 C 
ATOM     18  C15 <0> A   1       3.838  -6.225  -2.945  0.00  0.00    +0.185 C 
ATOM     19  C16 <0> A   1       2.530  -6.725  -2.318  0.00  0.00    +0.022 C 
ATOM     20  C17 <0> A   1       2.357  -6.047  -0.977  0.00  0.00    +0.497 C 
ATOM     21  O1  <0> A   1       2.089  -6.686   0.013  0.00  0.00    -0.451 OA
ATOM     22  O2  <0> A   1       2.511  -4.708  -0.917  0.00  0.00    -0.369 OA
BRANCH  18  23
ATOM     23  O3  <0> A   1       4.950  -6.707  -2.188  0.00  0.00    -0.564 OA
ATOM     24  H15 <0> A   1       5.012  -7.671  -2.150  0.00  0.00    +0.387 HD
ENDBRANCH  18  23
ENDBRANCH  15  16
ENDBRANCH  14  15
ENDBRANCH   8  14
TORSDOF 4
