MODEL 1
REMARK VINA RESULT:      -8.6      0.000      0.000
REMARK  Name = CHEMBL468205
REMARK  13 active torsions:
REMARK  status: ('A' for Active; 'I' for Inactive)
REMARK    1  A    between atoms: C1_1  and  C2_2
REMARK    2  A    between atoms: C2_2  and  C3_3
REMARK    3  A    between atoms: C2_2  and  C4_4
REMARK    4  A    between atoms: C5_5  and  C18_24
REMARK    5  A    between atoms: C6_6  and  C12_17
REMARK    6  A    between atoms: N4_14  and  C11_16
REMARK    7  A    between atoms: C19_25  and  C20_26
REMARK    8  A    between atoms: C20_26  and  C21_28
REMARK    9  A    between atoms: C20_26  and  O4_36
REMARK   10  A    between atoms: C21_28  and  C22_29
REMARK   11  A    between atoms: C22_29  and  C23_31
REMARK   12  A    between atoms: C22_29  and  O3_35
REMARK   13  A    between atoms: C23_31  and  C24_32
REMARK                            x       y       z     vdW  Elec       q    Type
REMARK                         _______ _______ _______ _____ _____    ______ ____
ROOT
ATOM      1  C4  <0> A   1     -15.242   6.009  45.410  0.00  0.00    +0.240 A 
ATOM      2  C5  <0> A   1     -14.441   7.152  45.353  0.00  0.00    -0.186 A 
ATOM      3  C6  <0> A   1     -14.701   8.194  46.267  0.00  0.00    +0.263 A 
ATOM      4  N1  <0> A   1     -15.693   8.047  47.141  0.00  0.00    -0.541 NA
ATOM      5  C7  <0> A   1     -16.423   6.943  47.156  0.00  0.00    +0.571 A 
ATOM      6  N2  <0> A   1     -16.209   5.947  46.308  0.00  0.00    -0.551 NA
ATOM      7  N3  <0> A   1     -17.447   6.828  48.081  0.00  0.00    -0.600 N 
ATOM      8  C8  <0> A   1     -17.694   7.870  48.984  0.00  0.00    +0.316 C 
ATOM      9  C9  <0> A   1     -16.991   9.084  49.057  0.00  0.00    -0.084 C 
ATOM     10  C10 <0> A   1     -17.533   9.818  50.054  0.00  0.00    +0.234 C 
ATOM     11  N4  <0> A   1     -18.541   9.102  50.595  0.00  0.00    -0.374 N 
ATOM     12  N5  <0> A   1     -18.629   7.886  49.905  0.00  0.00    -0.332 NA
ATOM     13  C11 <0> A   1     -19.397   9.525  51.707  0.00  0.00    +0.353 C 
ATOM     14  H10 <0> A   1     -17.991   6.026  48.105  0.00  0.00    +0.428 HD
ENDROOT
BRANCH   3  15
ATOM     15  C12 <0> A   1     -13.885   9.430  46.254  0.00  0.00    -0.072 A 
ATOM     16  C13 <0> A   1     -14.285  10.524  45.486  0.00  0.00    +0.099 A 
ATOM     17  C14 <0> A   1     -13.522  11.672  45.477  0.00  0.00    -0.014 A 
ATOM     18  C15 <0> A   1     -12.360  11.742  46.230  0.00  0.00    +0.120 A 
ATOM     19  C16 <0> A   1     -11.958  10.657  46.993  0.00  0.00    -0.024 A 
ATOM     20  C17 <0> A   1     -12.718   9.505  47.014  0.00  0.00    +0.090 A 
ATOM     21  F1  <0> A   1     -11.616  12.868  46.217  0.00  0.00    -0.136 F 
ENDBRANCH   3  15
BRANCH   1  23
ATOM     22  C1  <0> A   1     -14.110   3.821  45.124  0.00  0.00    +0.043 C 
ATOM     23  C2  <0> A   1     -15.009   4.864  44.457  0.00  0.00    +0.050 C 
ATOM     24  C3  <0> A   1     -16.350   4.223  44.093  0.00  0.00    +0.043 C 
ENDBRANCH   1  23
BRANCH   2  25
ATOM     25  C18 <0> A   1     -13.352   7.267  44.362  0.00  0.00    +0.014 C 
ATOM     26  C19 <0> A   1     -13.631   7.567  43.101  0.00  0.00    -0.039 C 
BRANCH  26  27
ATOM     27  C20 <0> A   1     -12.519   7.684  42.090  0.00  0.00    +0.252 C 
BRANCH  27  28
ATOM     28  O4  <0> A   1     -11.779   6.461  42.053  0.00  0.00    -0.537 OA
ATOM     29  H27 <0> A   1     -11.099   6.393  42.737  0.00  0.00    +0.366 HD
ENDBRANCH  27  28
BRANCH  27  30
ATOM     30  C21 <0> A   1     -13.113   7.963  40.708  0.00  0.00    -0.041 C 
BRANCH  30  31
ATOM     31  C22 <0> A   1     -12.349   9.111  40.047  0.00  0.00    +0.231 C 
BRANCH  31  32
ATOM     32  O3  <0> A   1     -12.517   9.041  38.629  0.00  0.00    -0.528 OA
ATOM     33  H26 <0> A   1     -13.418   9.224  38.330  0.00  0.00    +0.350 HD
ENDBRANCH  31  32
BRANCH  31  34
ATOM     34  C23 <0> A   1     -12.891  10.447  40.560  0.00  0.00    -0.102 C 
BRANCH  34  35
ATOM     35  C24 <0> A   1     -13.247  11.327  39.389  0.00  0.00    +0.490 C 
ATOM     36  O1  <0> A   1     -14.405  11.404  39.013  0.00  0.00    -0.681 OA
ATOM     37  O2  <0> A   1     -12.377  11.962  38.818  0.00  0.00    -0.713 OA
ENDBRANCH  34  35
ENDBRANCH  31  34
ENDBRANCH  30  31
ENDBRANCH  27  30
ENDBRANCH  26  27
ENDBRANCH   2  25
TORSDOF 10
ENDMDL
MODEL 2
REMARK VINA RESULT:      -8.1      1.706      1.878
REMARK  Name = CHEMBL468205
REMARK  13 active torsions:
REMARK  status: ('A' for Active; 'I' for Inactive)
REMARK    1  A    between atoms: C1_1  and  C2_2
REMARK    2  A    between atoms: C2_2  and  C3_3
REMARK    3  A    between atoms: C2_2  and  C4_4
REMARK    4  A    between atoms: C5_5  and  C18_24
REMARK    5  A    between atoms: C6_6  and  C12_17
REMARK    6  A    between atoms: N4_14  and  C11_16
REMARK    7  A    between atoms: C19_25  and  C20_26
REMARK    8  A    between atoms: C20_26  and  C21_28
REMARK    9  A    between atoms: C20_26  and  O4_36
REMARK   10  A    between atoms: C21_28  and  C22_29
REMARK   11  A    between atoms: C22_29  and  C23_31
REMARK   12  A    between atoms: C22_29  and  O3_35
REMARK   13  A    between atoms: C23_31  and  C24_32
REMARK                            x       y       z     vdW  Elec       q    Type
REMARK                         _______ _______ _______ _____ _____    ______ ____
ROOT
ATOM      1  C4  <0> A   1     -15.134   6.387  45.704  0.00  0.00    +0.240 A 
ATOM      2  C5  <0> A   1     -14.633   7.640  46.068  0.00  0.00    -0.186 A 
ATOM      3  C6  <0> A   1     -15.314   8.364  47.068  0.00  0.00    +0.263 A 
ATOM      4  N1  <0> A   1     -16.399   7.828  47.620  0.00  0.00    -0.541 NA
ATOM      5  C7  <0> A   1     -16.833   6.637  47.241  0.00  0.00    +0.571 A 
ATOM      6  N2  <0> A   1     -16.220   5.932  46.300  0.00  0.00    -0.551 NA
ATOM      7  N3  <0> A   1     -17.967   6.114  47.840  0.00  0.00    -0.600 N 
ATOM      8  C8  <0> A   1     -18.634   6.843  48.832  0.00  0.00    +0.316 C 
ATOM      9  C9  <0> A   1     -18.270   8.113  49.309  0.00  0.00    -0.084 C 
ATOM     10  C10 <0> A   1     -19.162   8.472  50.259  0.00  0.00    +0.234 C 
ATOM     11  N4  <0> A   1     -20.060   7.471  50.382  0.00  0.00    -0.374 N 
ATOM     12  N5  <0> A   1     -19.713   6.463  49.474  0.00  0.00    -0.332 NA
ATOM     13  C11 <0> A   1     -21.200   7.447  51.302  0.00  0.00    +0.353 C 
ATOM     14  H10 <0> A   1     -18.298   5.243  47.574  0.00  0.00    +0.428 HD
ENDROOT
BRANCH   3  15
ATOM     15  C12 <0> A   1     -14.831   9.697  47.496  0.00  0.00    -0.072 A 
ATOM     16  C13 <0> A   1     -15.295  10.848  46.857  0.00  0.00    +0.099 A 
ATOM     17  C14 <0> A   1     -14.842  12.086  47.258  0.00  0.00    -0.014 A 
ATOM     18  C15 <0> A   1     -13.927  12.190  48.295  0.00  0.00    +0.120 A 
ATOM     19  C16 <0> A   1     -13.462  11.050  48.931  0.00  0.00    -0.024 A 
ATOM     20  C17 <0> A   1     -13.914   9.806  48.541  0.00  0.00    +0.090 A 
ATOM     21  F1  <0> A   1     -13.486  13.406  48.684  0.00  0.00    -0.136 F 
ENDBRANCH   3  15
BRANCH   1  23
ATOM     22  C1  <0> A   1     -14.416   4.100  45.067  0.00  0.00    +0.043 C 
ATOM     23  C2  <0> A   1     -14.446   5.569  44.641  0.00  0.00    +0.050 C 
ATOM     24  C3  <0> A   1     -15.209   5.703  43.321  0.00  0.00    +0.043 C 
ENDBRANCH   1  23
BRANCH   2  25
ATOM     25  C18 <0> A   1     -13.423   8.191  45.424  0.00  0.00    +0.014 C 
ATOM     26  C19 <0> A   1     -13.536   8.949  44.341  0.00  0.00    -0.039 C 
BRANCH  26  27
ATOM     27  C20 <0> A   1     -12.302   9.511  43.684  0.00  0.00    +0.252 C 
BRANCH  27  28
ATOM     28  O4  <0> A   1     -11.138   8.960  44.306  0.00  0.00    -0.537 OA
ATOM     29  H27 <0> A   1     -10.308   9.216  43.881  0.00  0.00    +0.366 HD
ENDBRANCH  27  28
BRANCH  27  30
ATOM     30  C21 <0> A   1     -12.305   9.149  42.197  0.00  0.00    -0.041 C 
BRANCH  30  31
ATOM     31  C22 <0> A   1     -13.086  10.207  41.416  0.00  0.00    +0.231 C 
BRANCH  31  32
ATOM     32  O3  <0> A   1     -12.677  11.510  41.839  0.00  0.00    -0.528 OA
ATOM     33  H26 <0> A   1     -11.752  11.714  41.644  0.00  0.00    +0.350 HD
ENDBRANCH  31  32
BRANCH  31  34
ATOM     34  C23 <0> A   1     -12.808  10.045  39.920  0.00  0.00    -0.102 C 
BRANCH  34  35
ATOM     35  C24 <0> A   1     -13.144  11.328  39.205  0.00  0.00    +0.490 C 
ATOM     36  O1  <0> A   1     -14.305  11.689  39.111  0.00  0.00    -0.681 OA
ATOM     37  O2  <0> A   1     -12.254  12.008  38.722  0.00  0.00    -0.713 OA
ENDBRANCH  34  35
ENDBRANCH  31  34
ENDBRANCH  30  31
ENDBRANCH  27  30
ENDBRANCH  26  27
ENDBRANCH   2  25
TORSDOF 10
ENDMDL
MODEL 3
REMARK VINA RESULT:      -8.1      3.754      6.310
REMARK  Name = CHEMBL468205
REMARK  13 active torsions:
REMARK  status: ('A' for Active; 'I' for Inactive)
REMARK    1  A    between atoms: C1_1  and  C2_2
REMARK    2  A    between atoms: C2_2  and  C3_3
REMARK    3  A    between atoms: C2_2  and  C4_4
REMARK    4  A    between atoms: C5_5  and  C18_24
REMARK    5  A    between atoms: C6_6  and  C12_17
REMARK    6  A    between atoms: N4_14  and  C11_16
REMARK    7  A    between atoms: C19_25  and  C20_26
REMARK    8  A    between atoms: C20_26  and  C21_28
REMARK    9  A    between atoms: C20_26  and  O4_36
REMARK   10  A    between atoms: C21_28  and  C22_29
REMARK   11  A    between atoms: C22_29  and  C23_31
REMARK   12  A    between atoms: C22_29  and  O3_35
REMARK   13  A    between atoms: C23_31  and  C24_32
REMARK                            x       y       z     vdW  Elec       q    Type
REMARK                         _______ _______ _______ _____ _____    ______ ____
ROOT
ATOM      1  C4  <0> A   1     -12.899   9.681  48.258  0.00  0.00    +0.240 A 
ATOM      2  C5  <0> A   1     -12.924   9.367  46.897  0.00  0.00    -0.186 A 
ATOM      3  C6  <0> A   1     -12.212   8.230  46.463  0.00  0.00    +0.263 A 
ATOM      4  N1  <0> A   1     -11.549   7.507  47.362  0.00  0.00    -0.541 NA
ATOM      5  C7  <0> A   1     -11.558   7.846  48.642  0.00  0.00    +0.571 A 
ATOM      6  N2  <0> A   1     -12.212   8.911  49.082  0.00  0.00    -0.551 NA
ATOM      7  N3  <0> A   1     -10.856   7.068  49.546  0.00  0.00    -0.600 N 
ATOM      8  C8  <0> A   1     -10.153   5.941  49.102  0.00  0.00    +0.316 C 
ATOM      9  C9  <0> A   1     -10.068   5.490  47.775  0.00  0.00    -0.084 C 
ATOM     10  C10 <0> A   1      -9.301   4.378  47.762  0.00  0.00    +0.234 C 
ATOM     11  N4  <0> A   1      -8.910   4.129  49.030  0.00  0.00    -0.374 N 
ATOM     12  N5  <0> A   1      -9.451   5.125  49.853  0.00  0.00    -0.332 NA
ATOM     13  C11 <0> A   1      -8.065   3.015  49.467  0.00  0.00    +0.353 C 
ATOM     14  H10 <0> A   1     -10.851   7.302  50.487  0.00  0.00    +0.428 HD
ENDROOT
BRANCH   3  15
ATOM     15  C12 <0> A   1     -12.201   7.847  45.032  0.00  0.00    -0.072 A 
ATOM     16  C13 <0> A   1     -11.075   8.102  44.248  0.00  0.00    +0.099 A 
ATOM     17  C14 <0> A   1     -11.070   7.744  42.917  0.00  0.00    -0.014 A 
ATOM     18  C15 <0> A   1     -12.180   7.131  42.357  0.00  0.00    +0.120 A 
ATOM     19  C16 <0> A   1     -13.301   6.876  43.131  0.00  0.00    -0.024 A 
ATOM     20  C17 <0> A   1     -13.314   7.225  44.466  0.00  0.00    +0.090 A 
ATOM     21  F1  <0> A   1     -12.170   6.783  41.052  0.00  0.00    -0.136 F 
ENDBRANCH   3  15
BRANCH   1  23
ATOM     22  C1  <0> A   1     -14.356  10.521  50.082  0.00  0.00    +0.043 C 
ATOM     23  C2  <0> A   1     -13.643  10.885  48.778  0.00  0.00    +0.050 C 
ATOM     24  C3  <0> A   1     -12.653  12.022  49.037  0.00  0.00    +0.043 C 
ENDBRANCH   1  23
BRANCH   2  25
ATOM     25  C18 <0> A   1     -13.675  10.202  45.938  0.00  0.00    +0.014 C 
ATOM     26  C19 <0> A   1     -13.043  11.125  45.225  0.00  0.00    -0.039 C 
BRANCH  26  27
ATOM     27  C20 <0> A   1     -13.809  11.977  44.247  0.00  0.00    +0.252 C 
BRANCH  27  28
ATOM     28  O4  <0> A   1     -13.000  13.086  43.845  0.00  0.00    -0.537 OA
ATOM     29  H27 <0> A   1     -13.300  13.517  43.033  0.00  0.00    +0.366 HD
ENDBRANCH  27  28
BRANCH  27  30
ATOM     30  C21 <0> A   1     -14.176  11.142  43.019  0.00  0.00    -0.041 C 
BRANCH  30  31
ATOM     31  C22 <0> A   1     -13.305  11.565  41.835  0.00  0.00    +0.231 C 
BRANCH  31  32
ATOM     32  O3  <0> A   1     -12.060  10.866  41.885  0.00  0.00    -0.528 OA
ATOM     33  H26 <0> A   1     -11.911  10.387  42.712  0.00  0.00    +0.350 HD
ENDBRANCH  31  32
BRANCH  31  34
ATOM     34  C23 <0> A   1     -14.025  11.232  40.526  0.00  0.00    -0.102 C 
BRANCH  34  35
ATOM     35  C24 <0> A   1     -13.008  10.958  39.449  0.00  0.00    +0.490 C 
ATOM     36  O1  <0> A   1     -12.467  11.885  38.871  0.00  0.00    -0.681 OA
ATOM     37  O2  <0> A   1     -12.725   9.809  39.156  0.00  0.00    -0.713 OA
ENDBRANCH  34  35
ENDBRANCH  31  34
ENDBRANCH  30  31
ENDBRANCH  27  30
ENDBRANCH  26  27
ENDBRANCH   2  25
TORSDOF 10
ENDMDL
MODEL 4
REMARK VINA RESULT:      -7.7      2.196      4.309
REMARK  Name = CHEMBL468205
REMARK  13 active torsions:
REMARK  status: ('A' for Active; 'I' for Inactive)
REMARK    1  A    between atoms: C1_1  and  C2_2
REMARK    2  A    between atoms: C2_2  and  C3_3
REMARK    3  A    between atoms: C2_2  and  C4_4
REMARK    4  A    between atoms: C5_5  and  C18_24
REMARK    5  A    between atoms: C6_6  and  C12_17
REMARK    6  A    between atoms: N4_14  and  C11_16
REMARK    7  A    between atoms: C19_25  and  C20_26
REMARK    8  A    between atoms: C20_26  and  C21_28
REMARK    9  A    between atoms: C20_26  and  O4_36
REMARK   10  A    between atoms: C21_28  and  C22_29
REMARK   11  A    between atoms: C22_29  and  C23_31
REMARK   12  A    between atoms: C22_29  and  O3_35
REMARK   13  A    between atoms: C23_31  and  C24_32
REMARK                            x       y       z     vdW  Elec       q    Type
REMARK                         _______ _______ _______ _____ _____    ______ ____
ROOT
ATOM      1  C4  <0> A   1     -13.321   9.856  46.629  0.00  0.00    +0.240 A 
ATOM      2  C5  <0> A   1     -13.696   8.655  46.019  0.00  0.00    -0.186 A 
ATOM      3  C6  <0> A   1     -14.813   7.968  46.535  0.00  0.00    +0.263 A 
ATOM      4  N1  <0> A   1     -15.462   8.486  47.574  0.00  0.00    -0.541 NA
ATOM      5  C7  <0> A   1     -15.068   9.628  48.116  0.00  0.00    +0.571 A 
ATOM      6  N2  <0> A   1     -14.018  10.297  47.660  0.00  0.00    -0.551 NA
ATOM      7  N3  <0> A   1     -15.769  10.134  49.197  0.00  0.00    -0.600 N 
ATOM      8  C8  <0> A   1     -16.878   9.442  49.699  0.00  0.00    +0.316 C 
ATOM      9  C9  <0> A   1     -17.381   8.225  49.210  0.00  0.00    -0.084 C 
ATOM     10  C10 <0> A   1     -18.454   7.888  49.961  0.00  0.00    +0.234 C 
ATOM     11  N4  <0> A   1     -18.626   8.851  50.892  0.00  0.00    -0.374 N 
ATOM     12  N5  <0> A   1     -17.623   9.812  50.713  0.00  0.00    -0.332 NA
ATOM     13  C11 <0> A   1     -19.676   8.881  51.913  0.00  0.00    +0.353 C 
ATOM     14  H10 <0> A   1     -15.493  10.969  49.605  0.00  0.00    +0.428 HD
ENDROOT
BRANCH   3  15
ATOM     15  C12 <0> A   1     -15.258   6.690  45.930  0.00  0.00    -0.072 A 
ATOM     16  C13 <0> A   1     -16.300   6.680  45.003  0.00  0.00    +0.099 A 
ATOM     17  C14 <0> A   1     -16.711   5.489  44.444  0.00  0.00    -0.014 A 
ATOM     18  C15 <0> A   1     -16.090   4.302  44.800  0.00  0.00    +0.120 A 
ATOM     19  C16 <0> A   1     -15.054   4.307  45.721  0.00  0.00    -0.024 A 
ATOM     20  C17 <0> A   1     -14.632   5.495  46.283  0.00  0.00    +0.090 A 
ATOM     21  F1  <0> A   1     -16.495   3.138  44.250  0.00  0.00    -0.136 F 
ENDBRANCH   3  15
BRANCH   1  23
ATOM     22  C1  <0> A   1     -12.610  11.962  45.528  0.00  0.00    +0.043 C 
ATOM     23  C2  <0> A   1     -12.134  10.633  46.119  0.00  0.00    +0.050 C 
ATOM     24  C3  <0> A   1     -11.169  10.905  47.275  0.00  0.00    +0.043 C 
ENDBRANCH   1  23
BRANCH   2  25
ATOM     25  C18 <0> A   1     -12.942   8.121  44.867  0.00  0.00    +0.014 C 
ATOM     26  C19 <0> A   1     -13.367   8.350  43.632  0.00  0.00    -0.039 C 
BRANCH  26  27
ATOM     27  C20 <0> A   1     -12.598   7.805  42.456  0.00  0.00    +0.252 C 
BRANCH  27  28
ATOM     28  O4  <0> A   1     -12.432   6.393  42.610  0.00  0.00    -0.537 OA
ATOM     29  H27 <0> A   1     -12.941   6.015  43.340  0.00  0.00    +0.366 HD
ENDBRANCH  27  28
BRANCH  27  30
ATOM     30  C21 <0> A   1     -13.367   8.091  41.165  0.00  0.00    -0.041 C 
BRANCH  30  31
ATOM     31  C22 <0> A   1     -12.593   9.106  40.323  0.00  0.00    +0.231 C 
BRANCH  31  32
ATOM     32  O3  <0> A   1     -12.873   8.889  38.939  0.00  0.00    -0.528 OA
ATOM     33  H26 <0> A   1     -12.502   8.069  38.586  0.00  0.00    +0.350 HD
ENDBRANCH  31  32
BRANCH  31  34
ATOM     34  C23 <0> A   1     -13.017  10.523  40.715  0.00  0.00    -0.102 C 
BRANCH  34  35
ATOM     35  C24 <0> A   1     -13.330  11.315  39.471  0.00  0.00    +0.490 C 
ATOM     36  O1  <0> A   1     -14.482  11.412  39.083  0.00  0.00    -0.681 OA
ATOM     37  O2  <0> A   1     -12.431  11.859  38.853  0.00  0.00    -0.713 OA
ENDBRANCH  34  35
ENDBRANCH  31  34
ENDBRANCH  30  31
ENDBRANCH  27  30
ENDBRANCH  26  27
ENDBRANCH   2  25
TORSDOF 10
ENDMDL
MODEL 5
REMARK VINA RESULT:      -7.7      2.662      4.657
REMARK  Name = CHEMBL468205
REMARK  13 active torsions:
REMARK  status: ('A' for Active; 'I' for Inactive)
REMARK    1  A    between atoms: C1_1  and  C2_2
REMARK    2  A    between atoms: C2_2  and  C3_3
REMARK    3  A    between atoms: C2_2  and  C4_4
REMARK    4  A    between atoms: C5_5  and  C18_24
REMARK    5  A    between atoms: C6_6  and  C12_17
REMARK    6  A    between atoms: N4_14  and  C11_16
REMARK    7  A    between atoms: C19_25  and  C20_26
REMARK    8  A    between atoms: C20_26  and  C21_28
REMARK    9  A    between atoms: C20_26  and  O4_36
REMARK   10  A    between atoms: C21_28  and  C22_29
REMARK   11  A    between atoms: C22_29  and  C23_31
REMARK   12  A    between atoms: C22_29  and  O3_35
REMARK   13  A    between atoms: C23_31  and  C24_32
REMARK                            x       y       z     vdW  Elec       q    Type
REMARK                         _______ _______ _______ _____ _____    ______ ____
ROOT
ATOM      1  C4  <0> A   1     -15.533  10.017  47.971  0.00  0.00    +0.240 A 
ATOM      2  C5  <0> A   1     -15.088   8.974  47.154  0.00  0.00    -0.186 A 
ATOM      3  C6  <0> A   1     -15.768   7.741  47.219  0.00  0.00    +0.263 A 
ATOM      4  N1  <0> A   1     -16.801   7.621  48.049  0.00  0.00    -0.541 NA
ATOM      5  C7  <0> A   1     -17.185   8.640  48.801  0.00  0.00    +0.571 A 
ATOM      6  N2  <0> A   1     -16.564   9.811  48.770  0.00  0.00    -0.551 NA
ATOM      7  N3  <0> A   1     -18.264   8.475  49.653  0.00  0.00    -0.600 N 
ATOM      8  C8  <0> A   1     -18.932   7.245  49.707  0.00  0.00    +0.316 C 
ATOM      9  C9  <0> A   1     -18.611   6.098  48.962  0.00  0.00    -0.084 C 
ATOM     10  C10 <0> A   1     -19.488   5.126  49.300  0.00  0.00    +0.234 C 
ATOM     11  N4  <0> A   1     -20.333   5.632  50.222  0.00  0.00    -0.374 N 
ATOM     12  N5  <0> A   1     -19.963   6.961  50.467  0.00  0.00    -0.332 NA
ATOM     13  C11 <0> A   1     -21.441   4.915  50.859  0.00  0.00    +0.353 C 
ATOM     14  H10 <0> A   1     -18.558   9.211  50.211  0.00  0.00    +0.428 HD
ENDROOT
BRANCH   3  15
ATOM     15  C12 <0> A   1     -15.342   6.598  46.377  0.00  0.00    -0.072 A 
ATOM     16  C13 <0> A   1     -16.071   6.258  45.238  0.00  0.00    +0.099 A 
ATOM     17  C14 <0> A   1     -15.671   5.194  44.458  0.00  0.00    -0.014 A 
ATOM     18  C15 <0> A   1     -14.545   4.463  44.803  0.00  0.00    +0.120 A 
ATOM     19  C16 <0> A   1     -13.818   4.797  45.935  0.00  0.00    -0.024 A 
ATOM     20  C17 <0> A   1     -14.207   5.864  46.719  0.00  0.00    +0.090 A 
ATOM     21  F1  <0> A   1     -14.157   3.422  44.037  0.00  0.00    -0.136 F 
ENDBRANCH   3  15
BRANCH   1  23
ATOM     22  C1  <0> A   1     -15.889  12.471  48.020  0.00  0.00    +0.043 C 
ATOM     23  C2  <0> A   1     -14.843  11.356  47.943  0.00  0.00    +0.050 C 
ATOM     24  C3  <0> A   1     -13.892  11.465  49.137  0.00  0.00    +0.043 C 
ENDBRANCH   1  23
BRANCH   2  25
ATOM     25  C18 <0> A   1     -13.935   9.157  46.249  0.00  0.00    +0.014 C 
ATOM     26  C19 <0> A   1     -14.118   9.661  45.035  0.00  0.00    -0.039 C 
BRANCH  26  27
ATOM     27  C20 <0> A   1     -12.942   9.848  44.112  0.00  0.00    +0.252 C 
BRANCH  27  28
ATOM     28  O4  <0> A   1     -11.928   8.893  44.434  0.00  0.00    -0.537 OA
ATOM     29  H27 <0> A   1     -11.191   9.259  44.941  0.00  0.00    +0.366 HD
ENDBRANCH  27  28
BRANCH  27  30
ATOM     30  C21 <0> A   1     -13.392   9.645  42.664  0.00  0.00    -0.041 C 
BRANCH  30  31
ATOM     31  C22 <0> A   1     -12.859  10.788  41.799  0.00  0.00    +0.231 C 
BRANCH  31  32
ATOM     32  O3  <0> A   1     -11.532  10.479  41.367  0.00  0.00    -0.528 OA
ATOM     33  H26 <0> A   1     -11.448   9.614  40.943  0.00  0.00    +0.350 HD
ENDBRANCH  31  32
BRANCH  31  34
ATOM     34  C23 <0> A   1     -13.764  10.970  40.578  0.00  0.00    -0.102 C 
BRANCH  34  35
ATOM     35  C24 <0> A   1     -12.928  10.938  39.325  0.00  0.00    +0.490 C 
ATOM     36  O1  <0> A   1     -12.657   9.872  38.799  0.00  0.00    -0.681 OA
ATOM     37  O2  <0> A   1     -12.523  11.979  38.836  0.00  0.00    -0.713 OA
ENDBRANCH  34  35
ENDBRANCH  31  34
ENDBRANCH  30  31
ENDBRANCH  27  30
ENDBRANCH  26  27
ENDBRANCH   2  25
TORSDOF 10
ENDMDL
MODEL 6
REMARK VINA RESULT:      -7.6      4.760      8.705
REMARK  Name = CHEMBL468205
REMARK  13 active torsions:
REMARK  status: ('A' for Active; 'I' for Inactive)
REMARK    1  A    between atoms: C1_1  and  C2_2
REMARK    2  A    between atoms: C2_2  and  C3_3
REMARK    3  A    between atoms: C2_2  and  C4_4
REMARK    4  A    between atoms: C5_5  and  C18_24
REMARK    5  A    between atoms: C6_6  and  C12_17
REMARK    6  A    between atoms: N4_14  and  C11_16
REMARK    7  A    between atoms: C19_25  and  C20_26
REMARK    8  A    between atoms: C20_26  and  C21_28
REMARK    9  A    between atoms: C20_26  and  O4_36
REMARK   10  A    between atoms: C21_28  and  C22_29
REMARK   11  A    between atoms: C22_29  and  C23_31
REMARK   12  A    between atoms: C22_29  and  O3_35
REMARK   13  A    between atoms: C23_31  and  C24_32
REMARK                            x       y       z     vdW  Elec       q    Type
REMARK                         _______ _______ _______ _____ _____    ______ ____
ROOT
ATOM      1  C4  <0> A   1     -14.175  11.410  46.994  0.00  0.00    +0.240 A 
ATOM      2  C5  <0> A   1     -14.224  10.015  47.070  0.00  0.00    -0.186 A 
ATOM      3  C6  <0> A   1     -14.002   9.276  45.890  0.00  0.00    +0.263 A 
ATOM      4  N1  <0> A   1     -13.757   9.933  44.759  0.00  0.00    -0.541 NA
ATOM      5  C7  <0> A   1     -13.720  11.256  44.740  0.00  0.00    +0.571 A 
ATOM      6  N2  <0> A   1     -13.930  11.981  45.829  0.00  0.00    -0.551 NA
ATOM      7  N3  <0> A   1     -13.462  11.902  43.543  0.00  0.00    -0.600 N 
ATOM      8  C8  <0> A   1     -13.243  11.156  42.378  0.00  0.00    +0.316 C 
ATOM      9  C9  <0> A   1     -13.264   9.755  42.278  0.00  0.00    -0.084 C 
ATOM     10  C10 <0> A   1     -13.008   9.427  40.992  0.00  0.00    +0.234 C 
ATOM     11  N4  <0> A   1     -12.833  10.572  40.299  0.00  0.00    -0.374 N 
ATOM     12  N5  <0> A   1     -12.991  11.645  41.186  0.00  0.00    -0.332 NA
ATOM     13  C11 <0> A   1     -12.534  10.675  38.868  0.00  0.00    +0.353 C 
ATOM     14  H10 <0> A   1     -13.432  12.870  43.511  0.00  0.00    +0.428 HD
ENDROOT
BRANCH   3  15
ATOM     15  C12 <0> A   1     -14.042   7.795  45.908  0.00  0.00    -0.072 A 
ATOM     16  C13 <0> A   1     -15.111   7.117  45.323  0.00  0.00    +0.099 A 
ATOM     17  C14 <0> A   1     -15.144   5.739  45.343  0.00  0.00    -0.014 A 
ATOM     18  C15 <0> A   1     -14.116   5.027  45.942  0.00  0.00    +0.120 A 
ATOM     19  C16 <0> A   1     -13.052   5.697  46.525  0.00  0.00    -0.024 A 
ATOM     20  C17 <0> A   1     -13.007   7.076  46.505  0.00  0.00    +0.090 A 
ATOM     21  F1  <0> A   1     -14.152   3.677  45.959  0.00  0.00    -0.136 F 
ENDBRANCH   3  15
BRANCH   1  23
ATOM     22  C1  <0> A   1     -13.223  13.202  48.420  0.00  0.00    +0.043 C 
ATOM     23  C2  <0> A   1     -14.405  12.250  48.225  0.00  0.00    +0.050 C 
ATOM     24  C3  <0> A   1     -15.692  13.061  48.055  0.00  0.00    +0.043 C 
ENDBRANCH   1  23
BRANCH   2  25
ATOM     25  C18 <0> A   1     -14.501   9.333  48.351  0.00  0.00    +0.014 C 
ATOM     26  C19 <0> A   1     -15.741   8.981  48.660  0.00  0.00    -0.039 C 
BRANCH  26  27
ATOM     27  C20 <0> A   1     -16.023   8.285  49.967  0.00  0.00    +0.252 C 
BRANCH  27  28
ATOM     28  O4  <0> A   1     -16.833   9.129  50.790  0.00  0.00    -0.537 OA
ATOM     29  H27 <0> A   1     -17.779   8.937  50.738  0.00  0.00    +0.366 HD
ENDBRANCH  27  28
BRANCH  27  30
ATOM     30  C21 <0> A   1     -16.763   6.973  49.698  0.00  0.00    -0.041 C 
BRANCH  30  31
ATOM     31  C22 <0> A   1     -17.760   7.174  48.555  0.00  0.00    +0.231 C 
BRANCH  31  32
ATOM     32  O3  <0> A   1     -17.644   6.093  47.627  0.00  0.00    -0.528 OA
ATOM     33  H26 <0> A   1     -18.221   6.175  46.855  0.00  0.00    +0.350 HD
ENDBRANCH  31  32
BRANCH  31  34
ATOM     34  C23 <0> A   1     -19.182   7.212  49.120  0.00  0.00    -0.102 C 
BRANCH  34  35
ATOM     35  C24 <0> A   1     -20.017   6.153  48.448  0.00  0.00    +0.490 C 
ATOM     36  O1  <0> A   1     -20.522   6.373  47.360  0.00  0.00    -0.681 OA
ATOM     37  O2  <0> A   1     -20.187   5.075  48.991  0.00  0.00    -0.713 OA
ENDBRANCH  34  35
ENDBRANCH  31  34
ENDBRANCH  30  31
ENDBRANCH  27  30
ENDBRANCH  26  27
ENDBRANCH   2  25
TORSDOF 10
ENDMDL
MODEL 7
REMARK VINA RESULT:      -7.6     12.798     15.913
REMARK  Name = CHEMBL468205
REMARK  13 active torsions:
REMARK  status: ('A' for Active; 'I' for Inactive)
REMARK    1  A    between atoms: C1_1  and  C2_2
REMARK    2  A    between atoms: C2_2  and  C3_3
REMARK    3  A    between atoms: C2_2  and  C4_4
REMARK    4  A    between atoms: C5_5  and  C18_24
REMARK    5  A    between atoms: C6_6  and  C12_17
REMARK    6  A    between atoms: N4_14  and  C11_16
REMARK    7  A    between atoms: C19_25  and  C20_26
REMARK    8  A    between atoms: C20_26  and  C21_28
REMARK    9  A    between atoms: C20_26  and  O4_36
REMARK   10  A    between atoms: C21_28  and  C22_29
REMARK   11  A    between atoms: C22_29  and  C23_31
REMARK   12  A    between atoms: C22_29  and  O3_35
REMARK   13  A    between atoms: C23_31  and  C24_32
REMARK                            x       y       z     vdW  Elec       q    Type
REMARK                         _______ _______ _______ _____ _____    ______ ____
ROOT
ATOM      1  C4  <0> A   1     -22.498  -2.847  52.279  0.00  0.00    +0.240 A 
ATOM      2  C5  <0> A   1     -23.489  -1.879  52.090  0.00  0.00    -0.186 A 
ATOM      3  C6  <0> A   1     -24.716  -2.285  51.525  0.00  0.00    +0.263 A 
ATOM      4  N1  <0> A   1     -24.879  -3.563  51.197  0.00  0.00    -0.541 NA
ATOM      5  C7  <0> A   1     -23.909  -4.442  51.397  0.00  0.00    +0.571 A 
ATOM      6  N2  <0> A   1     -22.742  -4.094  51.921  0.00  0.00    -0.551 NA
ATOM      7  N3  <0> A   1     -24.118  -5.764  51.042  0.00  0.00    -0.600 N 
ATOM      8  C8  <0> A   1     -25.341  -6.154  50.482  0.00  0.00    +0.316 C 
ATOM      9  C9  <0> A   1     -26.434  -5.312  50.219  0.00  0.00    -0.084 C 
ATOM     10  C10 <0> A   1     -27.418  -6.066  49.680  0.00  0.00    +0.234 C 
ATOM     11  N4  <0> A   1     -26.970  -7.337  49.601  0.00  0.00    -0.374 N 
ATOM     12  N5  <0> A   1     -25.663  -7.368  50.103  0.00  0.00    -0.332 NA
ATOM     13  C11 <0> A   1     -27.720  -8.482  49.076  0.00  0.00    +0.353 C 
ATOM     14  H10 <0> A   1     -23.418  -6.420  51.182  0.00  0.00    +0.428 HD
ENDROOT
BRANCH   3  15
ATOM     15  C12 <0> A   1     -25.804  -1.305  51.300  0.00  0.00    -0.072 A 
ATOM     16  C13 <0> A   1     -25.906  -0.642  50.077  0.00  0.00    +0.099 A 
ATOM     17  C14 <0> A   1     -26.919   0.270  49.873  0.00  0.00    -0.014 A 
ATOM     18  C15 <0> A   1     -27.837   0.528  50.880  0.00  0.00    +0.120 A 
ATOM     19  C16 <0> A   1     -27.739  -0.128  52.097  0.00  0.00    -0.024 A 
ATOM     20  C17 <0> A   1     -26.731  -1.047  52.309  0.00  0.00    +0.090 A 
ATOM     21  F1  <0> A   1     -28.828   1.422  50.675  0.00  0.00    -0.136 F 
ENDBRANCH   3  15
BRANCH   1  23
ATOM     22  C1  <0> A   1     -21.211  -2.690  54.393  0.00  0.00    +0.043 C 
ATOM     23  C2  <0> A   1     -21.168  -2.470  52.879  0.00  0.00    +0.050 C 
ATOM     24  C3  <0> A   1     -20.068  -3.341  52.268  0.00  0.00    +0.043 C 
ENDBRANCH   1  23
BRANCH   2  25
ATOM     25  C18 <0> A   1     -23.259  -0.472  52.471  0.00  0.00    +0.014 C 
ATOM     26  C19 <0> A   1     -22.636   0.349  51.635  0.00  0.00    -0.039 C 
BRANCH  26  27
ATOM     27  C20 <0> A   1     -22.401   1.785  52.024  0.00  0.00    +0.252 C 
BRANCH  27  28
ATOM     28  O4  <0> A   1     -21.207   1.877  52.806  0.00  0.00    -0.537 OA
ATOM     29  H27 <0> A   1     -21.329   1.644  53.737  0.00  0.00    +0.366 HD
ENDBRANCH  27  28
BRANCH  27  30
ATOM     30  C21 <0> A   1     -22.251   2.638  50.763  0.00  0.00    -0.041 C 
BRANCH  30  31
ATOM     31  C22 <0> A   1     -20.987   3.494  50.872  0.00  0.00    +0.231 C 
BRANCH  31  32
ATOM     32  O3  <0> A   1     -19.984   2.976  49.996  0.00  0.00    -0.528 OA
ATOM     33  H26 <0> A   1     -19.528   2.195  50.338  0.00  0.00    +0.350 HD
ENDBRANCH  31  32
BRANCH  31  34
ATOM     34  C23 <0> A   1     -21.313   4.936  50.480  0.00  0.00    -0.102 C 
BRANCH  34  35
ATOM     35  C24 <0> A   1     -20.506   5.321  49.266  0.00  0.00    +0.490 C 
ATOM     36  O1  <0> A   1     -21.003   5.251  48.155  0.00  0.00    -0.681 OA
ATOM     37  O2  <0> A   1     -19.355   5.703  49.396  0.00  0.00    -0.713 OA
ENDBRANCH  34  35
ENDBRANCH  31  34
ENDBRANCH  30  31
ENDBRANCH  27  30
ENDBRANCH  26  27
ENDBRANCH   2  25
TORSDOF 10
ENDMDL
MODEL 8
REMARK VINA RESULT:      -7.6     16.173     19.317
REMARK  Name = CHEMBL468205
REMARK  13 active torsions:
REMARK  status: ('A' for Active; 'I' for Inactive)
REMARK    1  A    between atoms: C1_1  and  C2_2
REMARK    2  A    between atoms: C2_2  and  C3_3
REMARK    3  A    between atoms: C2_2  and  C4_4
REMARK    4  A    between atoms: C5_5  and  C18_24
REMARK    5  A    between atoms: C6_6  and  C12_17
REMARK    6  A    between atoms: N4_14  and  C11_16
REMARK    7  A    between atoms: C19_25  and  C20_26
REMARK    8  A    between atoms: C20_26  and  C21_28
REMARK    9  A    between atoms: C20_26  and  O4_36
REMARK   10  A    between atoms: C21_28  and  C22_29
REMARK   11  A    between atoms: C22_29  and  C23_31
REMARK   12  A    between atoms: C22_29  and  O3_35
REMARK   13  A    between atoms: C23_31  and  C24_32
REMARK                            x       y       z     vdW  Elec       q    Type
REMARK                         _______ _______ _______ _____ _____    ______ ____
ROOT
ATOM      1  C4  <0> A   1     -25.752  -2.748  51.072  0.00  0.00    +0.240 A 
ATOM      2  C5  <0> A   1     -25.018  -3.935  50.987  0.00  0.00    -0.186 A 
ATOM      3  C6  <0> A   1     -25.717  -5.132  50.730  0.00  0.00    +0.263 A 
ATOM      4  N1  <0> A   1     -27.038  -5.084  50.579  0.00  0.00    -0.541 NA
ATOM      5  C7  <0> A   1     -27.688  -3.934  50.668  0.00  0.00    +0.571 A 
ATOM      6  N2  <0> A   1     -27.063  -2.791  50.914  0.00  0.00    -0.551 NA
ATOM      7  N3  <0> A   1     -29.062  -3.926  50.506  0.00  0.00    -0.600 N 
ATOM      8  C8  <0> A   1     -29.744  -5.122  50.250  0.00  0.00    +0.316 C 
ATOM      9  C9  <0> A   1     -29.163  -6.396  50.141  0.00  0.00    -0.084 C 
ATOM     10  C10 <0> A   1     -30.153  -7.283  49.891  0.00  0.00    +0.234 C 
ATOM     11  N4  <0> A   1     -31.317  -6.602  49.845  0.00  0.00    -0.374 N 
ATOM     12  N5  <0> A   1     -31.039  -5.249  50.078  0.00  0.00    -0.332 NA
ATOM     13  C11 <0> A   1     -32.642  -7.179  49.597  0.00  0.00    +0.353 C 
ATOM     14  H10 <0> A   1     -29.553  -3.092  50.568  0.00  0.00    +0.428 HD
ENDROOT
BRANCH   3  15
ATOM     15  C12 <0> A   1     -24.994  -6.421  50.628  0.00  0.00    -0.072 A 
ATOM     16  C13 <0> A   1     -24.727  -6.977  49.377  0.00  0.00    +0.099 A 
ATOM     17  C14 <0> A   1     -24.054  -8.177  49.288  0.00  0.00    -0.014 A 
ATOM     18  C15 <0> A   1     -23.642  -8.831  50.439  0.00  0.00    +0.120 A 
ATOM     19  C16 <0> A   1     -23.906  -8.283  51.684  0.00  0.00    -0.024 A 
ATOM     20  C17 <0> A   1     -24.574  -7.079  51.784  0.00  0.00    +0.090 A 
ATOM     21  F1  <0> A   1     -22.983 -10.006  50.346  0.00  0.00    -0.136 F 
ENDBRANCH   3  15
BRANCH   1  23
ATOM     22  C1  <0> A   1     -25.272  -0.491  50.164  0.00  0.00    +0.043 C 
ATOM     23  C2  <0> A   1     -25.057  -1.439  51.345  0.00  0.00    +0.050 C 
ATOM     24  C3  <0> A   1     -25.635  -0.811  52.616  0.00  0.00    +0.043 C 
ENDBRANCH   1  23
BRANCH   2  25
ATOM     25  C18 <0> A   1     -23.552  -3.935  51.162  0.00  0.00    +0.014 C 
ATOM     26  C19 <0> A   1     -23.024  -3.612  52.335  0.00  0.00    -0.039 C 
BRANCH  26  27
ATOM     27  C20 <0> A   1     -21.528  -3.613  52.513  0.00  0.00    +0.252 C 
BRANCH  27  28
ATOM     28  O4  <0> A   1     -20.900  -3.305  51.267  0.00  0.00    -0.537 OA
ATOM     29  H27 <0> A   1     -20.322  -4.005  50.934  0.00  0.00    +0.366 HD
ENDBRANCH  27  28
BRANCH  27  30
ATOM     30  C21 <0> A   1     -21.137  -2.562  53.555  0.00  0.00    -0.041 C 
BRANCH  30  31
ATOM     31  C22 <0> A   1     -20.128  -3.164  54.534  0.00  0.00    +0.231 C 
BRANCH  31  32
ATOM     32  O3  <0> A   1     -20.561  -4.469  54.921  0.00  0.00    -0.528 OA
ATOM     33  H26 <0> A   1     -20.131  -5.187  54.436  0.00  0.00    +0.350 HD
ENDBRANCH  31  32
BRANCH  31  34
ATOM     34  C23 <0> A   1     -18.757  -3.259  53.860  0.00  0.00    -0.102 C 
BRANCH  34  35
ATOM     35  C24 <0> A   1     -18.167  -4.622  54.115  0.00  0.00    +0.490 C 
ATOM     36  O1  <0> A   1     -18.362  -5.529  53.324  0.00  0.00    -0.681 OA
ATOM     37  O2  <0> A   1     -17.493  -4.817  55.112  0.00  0.00    -0.713 OA
ENDBRANCH  34  35
ENDBRANCH  31  34
ENDBRANCH  30  31
ENDBRANCH  27  30
ENDBRANCH  26  27
ENDBRANCH   2  25
TORSDOF 10
ENDMDL
MODEL 9
REMARK VINA RESULT:      -7.4     19.470     22.887
REMARK  Name = CHEMBL468205
REMARK  13 active torsions:
REMARK  status: ('A' for Active; 'I' for Inactive)
REMARK    1  A    between atoms: C1_1  and  C2_2
REMARK    2  A    between atoms: C2_2  and  C3_3
REMARK    3  A    between atoms: C2_2  and  C4_4
REMARK    4  A    between atoms: C5_5  and  C18_24
REMARK    5  A    between atoms: C6_6  and  C12_17
REMARK    6  A    between atoms: N4_14  and  C11_16
REMARK    7  A    between atoms: C19_25  and  C20_26
REMARK    8  A    between atoms: C20_26  and  C21_28
REMARK    9  A    between atoms: C20_26  and  O4_36
REMARK   10  A    between atoms: C21_28  and  C22_29
REMARK   11  A    between atoms: C22_29  and  C23_31
REMARK   12  A    between atoms: C22_29  and  O3_35
REMARK   13  A    between atoms: C23_31  and  C24_32
REMARK                            x       y       z     vdW  Elec       q    Type
REMARK                         _______ _______ _______ _____ _____    ______ ____
ROOT
ATOM      1  C4  <0> A   1     -26.182  -8.293  50.229  0.00  0.00    +0.240 A 
ATOM      2  C5  <0> A   1     -27.297  -7.937  50.993  0.00  0.00    -0.186 A 
ATOM      3  C6  <0> A   1     -27.349  -6.633  51.526  0.00  0.00    +0.263 A 
ATOM      4  N1  <0> A   1     -26.342  -5.800  51.281  0.00  0.00    -0.541 NA
ATOM      5  C7  <0> A   1     -25.307  -6.185  50.550  0.00  0.00    +0.571 A 
ATOM      6  N2  <0> A   1     -25.224  -7.405  50.039  0.00  0.00    -0.551 NA
ATOM      7  N3  <0> A   1     -24.279  -5.288  50.318  0.00  0.00    -0.600 N 
ATOM      8  C8  <0> A   1     -24.343  -3.995  50.853  0.00  0.00    +0.316 C 
ATOM      9  C9  <0> A   1     -25.383  -3.480  51.644  0.00  0.00    -0.084 C 
ATOM     10  C10 <0> A   1     -25.071  -2.203  51.959  0.00  0.00    +0.234 C 
ATOM     11  N4  <0> A   1     -23.880  -1.916  51.393  0.00  0.00    -0.374 N 
ATOM     12  N5  <0> A   1     -23.439  -3.055  50.709  0.00  0.00    -0.332 NA
ATOM     13  C11 <0> A   1     -23.171  -0.636  51.482  0.00  0.00    +0.353 C 
ATOM     14  H10 <0> A   1     -23.514  -5.554  49.785  0.00  0.00    +0.428 HD
ENDROOT
BRANCH   3  15
ATOM     15  C12 <0> A   1     -28.505  -6.198  52.344  0.00  0.00    -0.072 A 
ATOM     16  C13 <0> A   1     -28.500  -6.398  53.724  0.00  0.00    +0.099 A 
ATOM     17  C14 <0> A   1     -29.578  -5.992  54.481  0.00  0.00    -0.014 A 
ATOM     18  C15 <0> A   1     -30.666  -5.385  53.873  0.00  0.00    +0.120 A 
ATOM     19  C16 <0> A   1     -30.676  -5.184  52.502  0.00  0.00    -0.024 A 
ATOM     20  C17 <0> A   1     -29.599  -5.582  51.736  0.00  0.00    +0.090 A 
ATOM     21  F1  <0> A   1     -31.720  -4.989  54.619  0.00  0.00    -0.136 F 
ENDBRANCH   3  15
BRANCH   1  23
ATOM     22  C1  <0> A   1     -25.588  -9.570  48.187  0.00  0.00    +0.043 C 
ATOM     23  C2  <0> A   1     -26.073  -9.674  49.635  0.00  0.00    +0.050 C 
ATOM     24  C3  <0> A   1     -25.077 -10.503  50.449  0.00  0.00    +0.043 C 
ENDBRANCH   1  23
BRANCH   2  25
ATOM     25  C18 <0> A   1     -28.390  -8.900  51.236  0.00  0.00    +0.014 C 
ATOM     26  C19 <0> A   1     -29.415  -8.966  50.396  0.00  0.00    -0.039 C 
BRANCH  26  27
ATOM     27  C20 <0> A   1     -30.530  -9.949  50.644  0.00  0.00    +0.252 C 
BRANCH  27  28
ATOM     28  O4  <0> A   1     -30.590 -10.884  49.565  0.00  0.00    -0.537 OA
ATOM     29  H27 <0> A   1     -29.886 -11.547  49.580  0.00  0.00    +0.366 HD
ENDBRANCH  27  28
BRANCH  27  30
ATOM     30  C21 <0> A   1     -30.269 -10.698  51.953  0.00  0.00    -0.041 C 
BRANCH  30  31
ATOM     31  C22 <0> A   1     -31.433 -10.461  52.917  0.00  0.00    +0.231 C 
BRANCH  31  32
ATOM     32  O3  <0> A   1     -31.484 -11.523  53.872  0.00  0.00    -0.528 OA
ATOM     33  H26 <0> A   1     -31.285 -12.394  53.502  0.00  0.00    +0.350 HD
ENDBRANCH  31  32
BRANCH  31  34
ATOM     34  C23 <0> A   1     -31.231  -9.130  53.644  0.00  0.00    -0.102 C 
BRANCH  34  35
ATOM     35  C24 <0> A   1     -30.854  -9.394  55.079  0.00  0.00    +0.490 C 
ATOM     36  O1  <0> A   1     -29.763  -9.871  55.345  0.00  0.00    -0.681 OA
ATOM     37  O2  <0> A   1     -31.638  -9.130  55.974  0.00  0.00    -0.713 OA
ENDBRANCH  34  35
ENDBRANCH  31  34
ENDBRANCH  30  31
ENDBRANCH  27  30
ENDBRANCH  26  27
ENDBRANCH   2  25
TORSDOF 10
ENDMDL
MODEL 10
REMARK VINA RESULT:      -7.4     16.345     19.593
REMARK  Name = CHEMBL468205
REMARK  13 active torsions:
REMARK  status: ('A' for Active; 'I' for Inactive)
REMARK    1  A    between atoms: C1_1  and  C2_2
REMARK    2  A    between atoms: C2_2  and  C3_3
REMARK    3  A    between atoms: C2_2  and  C4_4
REMARK    4  A    between atoms: C5_5  and  C18_24
REMARK    5  A    between atoms: C6_6  and  C12_17
REMARK    6  A    between atoms: N4_14  and  C11_16
REMARK    7  A    between atoms: C19_25  and  C20_26
REMARK    8  A    between atoms: C20_26  and  C21_28
REMARK    9  A    between atoms: C20_26  and  O4_36
REMARK   10  A    between atoms: C21_28  and  C22_29
REMARK   11  A    between atoms: C22_29  and  C23_31
REMARK   12  A    between atoms: C22_29  and  O3_35
REMARK   13  A    between atoms: C23_31  and  C24_32
REMARK                            x       y       z     vdW  Elec       q    Type
REMARK                         _______ _______ _______ _____ _____    ______ ____
ROOT
ATOM      1  C4  <0> A   1     -28.663  -5.167  52.212  0.00  0.00    +0.240 A 
ATOM      2  C5  <0> A   1     -27.437  -4.536  51.981  0.00  0.00    -0.186 A 
ATOM      3  C6  <0> A   1     -27.420  -3.129  51.895  0.00  0.00    +0.263 A 
ATOM      4  N1  <0> A   1     -28.562  -2.463  52.038  0.00  0.00    -0.541 NA
ATOM      5  C7  <0> A   1     -29.698  -3.108  52.257  0.00  0.00    +0.571 A 
ATOM      6  N2  <0> A   1     -29.751  -4.430  52.338  0.00  0.00    -0.551 NA
ATOM      7  N3  <0> A   1     -30.866  -2.378  52.400  0.00  0.00    -0.600 N 
ATOM      8  C8  <0> A   1     -30.834  -0.981  52.313  0.00  0.00    +0.316 C 
ATOM      9  C9  <0> A   1     -29.694  -0.194  52.079  0.00  0.00    -0.084 C 
ATOM     10  C10 <0> A   1     -30.080   1.101  52.067  0.00  0.00    +0.234 C 
ATOM     11  N4  <0> A   1     -31.412   1.139  52.283  0.00  0.00    -0.374 N 
ATOM     12  N5  <0> A   1     -31.865  -0.178  52.429  0.00  0.00    -0.332 NA
ATOM     13  C11 <0> A   1     -32.239   2.347  52.349  0.00  0.00    +0.353 C 
ATOM     14  H10 <0> A   1     -31.706  -2.835  52.560  0.00  0.00    +0.428 HD
ENDROOT
BRANCH   3  15
ATOM     15  C12 <0> A   1     -26.151  -2.404  51.651  0.00  0.00    -0.072 A 
ATOM     16  C13 <0> A   1     -25.844  -1.943  50.371  0.00  0.00    +0.099 A 
ATOM     17  C14 <0> A   1     -24.662  -1.270  50.148  0.00  0.00    -0.014 A 
ATOM     18  C15 <0> A   1     -23.779  -1.049  51.194  0.00  0.00    +0.120 A 
ATOM     19  C16 <0> A   1     -24.079  -1.506  52.468  0.00  0.00    -0.024 A 
ATOM     20  C17 <0> A   1     -25.263  -2.176  52.702  0.00  0.00    +0.090 A 
ATOM     21  F1  <0> A   1     -22.622  -0.389  50.971  0.00  0.00    -0.136 F 
ENDBRANCH   3  15
BRANCH   1  23
ATOM     22  C1  <0> A   1     -29.476  -7.057  53.598  0.00  0.00    +0.043 C 
ATOM     23  C2  <0> A   1     -28.741  -6.669  52.313  0.00  0.00    +0.050 C 
ATOM     24  C3  <0> A   1     -29.499  -7.222  51.104  0.00  0.00    +0.043 C 
ENDBRANCH   1  23
BRANCH   2  25
ATOM     25  C18 <0> A   1     -26.196  -5.321  51.829  0.00  0.00    +0.014 C 
ATOM     26  C19 <0> A   1     -25.833  -5.765  50.633  0.00  0.00    -0.039 C 
BRANCH  26  27
ATOM     27  C20 <0> A   1     -24.566  -6.566  50.479  0.00  0.00    +0.252 C 
BRANCH  27  28
ATOM     28  O4  <0> A   1     -23.717  -6.334  51.605  0.00  0.00    -0.537 OA
ATOM     29  H27 <0> A   1     -23.410  -5.420  51.684  0.00  0.00    +0.366 HD
ENDBRANCH  27  28
BRANCH  27  30
ATOM     30  C21 <0> A   1     -24.910  -8.055  50.397  0.00  0.00    -0.041 C 
BRANCH  30  31
ATOM     31  C22 <0> A   1     -24.210  -8.674  49.186  0.00  0.00    +0.231 C 
BRANCH  31  32
ATOM     32  O3  <0> A   1     -23.299  -7.726  48.626  0.00  0.00    -0.528 OA
ATOM     33  H26 <0> A   1     -22.718  -7.308  49.276  0.00  0.00    +0.350 HD
ENDBRANCH  31  32
BRANCH  31  34
ATOM     34  C23 <0> A   1     -23.442  -9.923  49.624  0.00  0.00    -0.102 C 
BRANCH  34  35
ATOM     35  C24 <0> A   1     -24.115 -11.149  49.062  0.00  0.00    +0.490 C 
ATOM     36  O1  <0> A   1     -23.449 -12.123  48.752  0.00  0.00    -0.681 OA
ATOM     37  O2  <0> A   1     -25.325 -11.167  48.918  0.00  0.00    -0.713 OA
ENDBRANCH  34  35
ENDBRANCH  31  34
ENDBRANCH  30  31
ENDBRANCH  27  30
ENDBRANCH  26  27
ENDBRANCH   2  25
TORSDOF 10
ENDMDL
