REMARK VINA RESULT:      -8.1      0.000      0.000
REMARK  Name = CHEMBL421614
REMARK  9 active torsions:
REMARK  status: ('A' for Active; 'I' for Inactive)
REMARK    1  A    between atoms: C1_1  and  C2_2
REMARK    2  A    between atoms: C2_2  and  C3_3
REMARK    3  A    between atoms: C2_2  and  C4_4
REMARK    4  A    between atoms: C5_5  and  C19_23
REMARK    5  A    between atoms: C6_6  and  C13_16
REMARK    6  A    between atoms: N1_7  and  C7_9
REMARK    7  A    between atoms: C19_23  and  C20_24
REMARK    8  A    between atoms: C20_24  and  C21_25
REMARK    9  A    between atoms: C23_28  and  O3_34
REMARK                            x       y       z     vdW  Elec       q    Type
REMARK                         _______ _______ _______ _____ _____    ______ ____
ROOT
ATOM      1  C4  <0> A   1     -27.738  -5.096  50.937  0.00  0.00    +0.098 C 
ATOM      2  C5  <0> A   1     -26.402  -4.888  51.281  0.00  0.00    -0.197 C 
ATOM      3  C6  <0> A   1     -26.189  -3.539  51.336  0.00  0.00    +0.128 C 
ATOM      4  N1  <0> A   1     -27.371  -2.929  51.032  0.00  0.00    -0.321 N 
ATOM      5  N2  <0> A   1     -28.317  -3.932  50.783  0.00  0.00    -0.270 NA
ENDROOT
BRANCH   4   6
ATOM      6  C7  <0> A   1     -27.598  -1.546  50.974  0.00  0.00    +0.144 A 
ATOM      7  C8  <0> A   1     -28.503  -0.954  51.845  0.00  0.00    +0.044 A 
ATOM      8  C9  <0> A   1     -28.726   0.407  51.786  0.00  0.00    +0.016 A 
ATOM      9  C10 <0> A   1     -28.048   1.182  50.861  0.00  0.00    +0.100 A 
ATOM     10  C11 <0> A   1     -27.145   0.593  49.992  0.00  0.00    +0.013 A 
ATOM     11  C12 <0> A   1     -26.914  -0.767  50.051  0.00  0.00    +0.063 A 
ATOM     12  F1  <0> A   1     -28.266   2.514  50.805  0.00  0.00    -0.133 F 
ENDBRANCH   4   6
BRANCH   3  13
ATOM     13  C13 <0> A   1     -24.914  -2.866  51.665  0.00  0.00    -0.051 A 
ATOM     14  C14 <0> A   1     -23.868  -2.855  50.741  0.00  0.00    +0.086 A 
ATOM     15  C15 <0> A   1     -22.682  -2.224  51.052  0.00  0.00    -0.004 A 
ATOM     16  C16 <0> A   1     -22.526  -1.602  52.281  0.00  0.00    +0.114 A 
ATOM     17  C17 <0> A   1     -23.562  -1.609  53.202  0.00  0.00    -0.010 A 
ATOM     18  C18 <0> A   1     -24.755  -2.232  52.898  0.00  0.00    +0.062 A 
ATOM     19  F2  <0> A   1     -21.362  -0.987  52.581  0.00  0.00    -0.135 F 
ENDBRANCH   3  13
BRANCH   1  21
ATOM     20  C1  <0> A   1     -29.686  -6.481  51.598  0.00  0.00    +0.036 C 
ATOM     21  C2  <0> A   1     -28.403  -6.438  50.767  0.00  0.00    +0.075 C 
ATOM     22  C3  <0> A   1     -28.743  -6.654  49.291  0.00  0.00    +0.037 C 
ENDBRANCH   1  21
BRANCH   2  23
ATOM     23  C19 <0> A   1     -25.376  -5.960  51.544  0.00  0.00    +0.111 C 
BRANCH  23  24
ATOM     24  C20 <0> A   1     -24.607  -6.258  50.256  0.00  0.00    +0.056 C 
BRANCH  24  25
ATOM     25  C21 <0> A   1     -25.154  -7.537  49.621  0.00  0.00    +0.197 C 
ATOM     26  C22 <0> A   1     -24.046  -8.221  48.814  0.00  0.00    +0.040 C 
ATOM     27  C23 <0> A   1     -24.585  -9.524  48.213  0.00  0.00    +0.184 C 
ATOM     28  C24 <0> A   1     -25.056 -10.438  49.352  0.00  0.00    +0.020 C 
ATOM     29  C25 <0> A   1     -25.998  -9.649  50.235  0.00  0.00    +0.496 C 
ATOM     30  O1  <0> A   1     -27.069 -10.103  50.562  0.00  0.00    -0.453 OA
ATOM     31  O2  <0> A   1     -25.608  -8.426  50.648  0.00  0.00    -0.366 OA
BRANCH  27  32
ATOM     32  O3  <0> A   1     -25.684  -9.232  47.346  0.00  0.00    -0.563 OA
ATOM     33  H26 <0> A   1     -25.770  -9.843  46.602  0.00  0.00    +0.386 HD
ENDBRANCH  27  32
ENDBRANCH  24  25
ENDBRANCH  23  24
ENDBRANCH   2  23
TORSDOF 7
