REMARK VINA RESULT:      -8.5      0.021      1.778
REMARK  Name = CHEMBL46057
REMARK  6 active torsions:
REMARK  status: ('A' for Active; 'I' for Inactive)
REMARK    1  A    between atoms: C4_4  and  C7_7
REMARK    2  A    between atoms: C7_7  and  O1_8
REMARK    3  A    between atoms: O1_8  and  C8_9
REMARK    4  A    between atoms: C11_12  and  C14_16
REMARK    5  A    between atoms: C15_17  and  C16_18
REMARK    6  A    between atoms: C18_20  and  O4_26
REMARK                            x       y       z     vdW  Elec       q    Type
REMARK                         _______ _______ _______ _____ _____    ______ ____
ROOT
ATOM      1  C8  <0> A   1      -5.968   0.947  43.751  0.00  0.00    +0.160 A 
ATOM      2  C9  <0> A   1      -4.609   1.127  43.975  0.00  0.00    -0.051 A 
ATOM      3  C10 <0> A   1      -4.159   2.257  44.626  0.00  0.00    +0.025 A 
ATOM      4  C11 <0> A   1      -5.072   3.223  45.059  0.00  0.00    -0.078 A 
ATOM      5  C12 <0> A   1      -6.437   3.037  44.831  0.00  0.00    +0.019 A 
ATOM      6  C13 <0> A   1      -6.878   1.907  44.175  0.00  0.00    +0.013 A 
ATOM      7 Cl1  <0> A   1      -7.577   4.232  45.367  0.00  0.00    -0.037 Cl
ATOM      8 Cl2  <0> A   1      -2.461   2.480  44.906  0.00  0.00    -0.042 Cl
ENDROOT
BRANCH   4   9
ATOM      9  C14 <0> A   1      -4.593   4.434  45.757  0.00  0.00    +0.046 C 
ATOM     10  C15 <0> A   1      -4.766   4.556  47.066  0.00  0.00    -0.003 C 
BRANCH  10  11
ATOM     11  C16 <0> A   1      -4.279   5.791  47.779  0.00  0.00    +0.243 C 
ATOM     12  C17 <0> A   1      -2.890   6.168  47.258  0.00  0.00    +0.051 C 
ATOM     13  C18 <0> A   1      -2.382   7.400  48.015  0.00  0.00    +0.186 C 
ATOM     14  C19 <0> A   1      -2.317   7.071  49.512  0.00  0.00    +0.024 C 
ATOM     15  C20 <0> A   1      -3.659   6.514  49.933  0.00  0.00    +0.497 C 
ATOM     16  O2  <0> A   1      -4.227   6.936  50.913  0.00  0.00    -0.451 OA
ATOM     17  O3  <0> A   1      -4.204   5.532  49.185  0.00  0.00    -0.368 OA
BRANCH  13  18
ATOM     18  O4  <0> A   1      -3.275   8.495  47.801  0.00  0.00    -0.564 OA
ATOM     19  H18 <0> A   1      -4.204   8.282  47.963  0.00  0.00    +0.387 HD
ENDBRANCH  13  18
ENDBRANCH  10  11
ENDBRANCH   4   9
BRANCH   1  20
ATOM     20  O1  <0> A   1      -6.407  -0.167  43.110  0.00  0.00    -0.297 OA
BRANCH  20  21
ATOM     21  C7  <0> A   1      -7.694  -0.094  42.492  0.00  0.00    +0.252 C 
BRANCH  21  25
ATOM     22  C1  <0> A   1      -8.059  -3.209  39.591  0.00  0.00    +0.019 A 
ATOM     23  C2  <0> A   1      -7.007  -3.220  40.489  0.00  0.00    +0.004 A 
ATOM     24  C3  <0> A   1      -6.889  -2.212  41.427  0.00  0.00    +0.031 A 
ATOM     25  C4  <0> A   1      -7.822  -1.193  41.468  0.00  0.00    -0.101 A 
ATOM     26  C5  <0> A   1      -8.874  -1.181  40.570  0.00  0.00    +0.031 A 
ATOM     27  C6  <0> A   1      -8.992  -2.190  39.633  0.00  0.00    +0.004 A 
ENDBRANCH  21  25
ENDBRANCH  20  21
ENDBRANCH   1  20
TORSDOF 6
