REMARK VINA RESULT:      -8.2      9.842     12.725
REMARK  Name = CHEMBL352790
REMARK  9 active torsions:
REMARK  status: ('A' for Active; 'I' for Inactive)
REMARK    1  A    between atoms: C1_1  and  C2_2
REMARK    2  A    between atoms: C4_5  and  O4_28
REMARK    3  A    between atoms: C6_8  and  C13_17
REMARK    4  A    between atoms: C7_10  and  C12_16
REMARK    5  A    between atoms: C13_17  and  C14_18
REMARK    6  A    between atoms: C14_18  and  C15_19
REMARK    7  A    between atoms: C17_21  and  O3_27
REMARK    8  A    between atoms: O4_28  and  C20_29
REMARK    9  A    between atoms: C20_29  and  C21_31
REMARK                            x       y       z     vdW  Elec       q    Type
REMARK                         _______ _______ _______ _____ _____    ______ ____
ROOT
ATOM      1  C1  <0> A   1     -16.761  12.889  47.498  0.00  0.00    +0.033 C 
ATOM      2  C2  <0> A   1     -15.387  12.269  47.757  0.00  0.00    +0.026 C 
ATOM      3  C3  <0> A   1     -14.987  11.379  46.571  0.00  0.00    +0.019 C 
ATOM      4  C4  <0> A   1     -13.603  10.797  46.853  0.00  0.00    +0.179 C 
ATOM      5  C5  <0> A   1     -13.579   9.989  48.128  0.00  0.00    +0.043 C 
ATOM      6  C6  <0> A   1     -13.689   8.487  47.854  0.00  0.00    +0.013 C 
ATOM      7  C7  <0> A   1     -13.424   7.730  49.157  0.00  0.00    +0.022 C 
ATOM      8  C8  <0> A   1     -14.249   8.268  50.287  0.00  0.00    -0.032 C 
ATOM      9  C9  <0> A   1     -14.804   9.468  50.292  0.00  0.00    -0.006 C 
ATOM     10  C10 <0> A   1     -14.639  10.361  49.122  0.00  0.00    -0.086 C 
ATOM     11  C11 <0> A   1     -15.444  11.399  48.986  0.00  0.00    -0.021 C 
ATOM     12  C12 <0> A   1     -11.943   7.859  49.518  0.00  0.00    +0.029 C 
ENDROOT
BRANCH   6  13
ATOM     13  C13 <0> A   1     -12.655   8.080  46.802  0.00  0.00    +0.056 C 
BRANCH  13  14
ATOM     14  C14 <0> A   1     -12.757   6.576  46.542  0.00  0.00    +0.039 C 
BRANCH  14  15
ATOM     15  C15 <0> A   1     -14.029   6.281  45.744  0.00  0.00    +0.192 C 
ATOM     16  C16 <0> A   1     -14.746   5.074  46.354  0.00  0.00    +0.039 C 
ATOM     17  C17 <0> A   1     -15.996   4.756  45.528  0.00  0.00    +0.183 C 
ATOM     18  C18 <0> A   1     -15.574   4.451  44.085  0.00  0.00    +0.018 C 
ATOM     19  C19 <0> A   1     -14.701   5.586  43.596  0.00  0.00    +0.495 C 
ATOM     20  O1  <0> A   1     -14.908   6.114  42.530  0.00  0.00    -0.452 OA
ATOM     21  O2  <0> A   1     -13.684   5.990  44.385  0.00  0.00    -0.365 OA
BRANCH  17  22
ATOM     22  O3  <0> A   1     -16.879   5.880  45.543  0.00  0.00    -0.562 OA
ATOM     23  H27 <0> A   1     -16.459   6.707  45.814  0.00  0.00    +0.386 HD
ENDBRANCH  17  22
ENDBRANCH  14  15
ENDBRANCH  13  14
ENDBRANCH   6  13
BRANCH   4  24
ATOM     24  O4  <0> A   1     -13.222   9.955  45.762  0.00  0.00    -0.316 OA
BRANCH  24  25
ATOM     25  C20 <0> A   1     -12.454  10.507  44.804  0.00  0.00    +0.498 C 
ATOM     26  O5  <0> A   1     -11.356  10.946  45.083  0.00  0.00    -0.498 OA
BRANCH  25  27
ATOM     27  C21 <0> A   1     -12.945  10.577  43.413  0.00  0.00    -0.137 A 
ATOM     28  C22 <0> A   1     -14.011  11.419  43.088  0.00  0.00    +0.105 A 
ATOM     29  C23 <0> A   1     -14.465  11.481  41.788  0.00  0.00    -0.014 A 
ATOM     30  C24 <0> A   1     -13.866  10.710  40.804  0.00  0.00    +0.137 A 
ATOM     31  C25 <0> A   1     -12.808   9.872  41.121  0.00  0.00    -0.017 A 
ATOM     32  C26 <0> A   1     -12.341   9.807  42.416  0.00  0.00    +0.124 A 
ATOM     33  F1  <0> A   1     -14.316  10.774  39.532  0.00  0.00    -0.131 F 
ENDBRANCH  25  27
ENDBRANCH  24  25
ENDBRANCH   4  24
TORSDOF 7
