REMARK VINA RESULT:      -8.2      0.000      0.000
REMARK  Name = CHEMBL387514
REMARK  15 active torsions:
REMARK  status: ('A' for Active; 'I' for Inactive)
REMARK    1  A    between atoms: C1_1  and  C2_2
REMARK    2  A    between atoms: C2_2  and  C3_3
REMARK    3  A    between atoms: C2_2  and  N1_4
REMARK    4  A    between atoms: C4_5  and  C25_29
REMARK    5  A    between atoms: C5_6  and  C19_22
REMARK    6  A    between atoms: N2_11  and  C12_15
REMARK    7  A    between atoms: C12_15  and  C13_16
REMARK    8  A    between atoms: C25_29  and  C26_30
REMARK    9  A    between atoms: C26_30  and  C27_31
REMARK   10  A    between atoms: C27_31  and  C28_33
REMARK   11  A    between atoms: C27_31  and  O5_41
REMARK   12  A    between atoms: C28_33  and  C29_34
REMARK   13  A    between atoms: C29_34  and  C30_36
REMARK   14  A    between atoms: C29_34  and  O4_40
REMARK   15  A    between atoms: C30_36  and  C31_37
REMARK                            x       y       z     vdW  Elec       q    Type
REMARK                         _______ _______ _______ _____ _____    ______ ____
ROOT
ATOM      1  N1  <0> A   1     -15.118   6.655  45.840  0.00  0.00    -0.392 N 
ATOM      2  C4  <0> A   1     -14.218   7.593  45.492  0.00  0.00    +0.099 C 
ATOM      3  C5  <0> A   1     -14.471   8.723  46.211  0.00  0.00    -0.158 C 
ATOM      4  C6  <0> A   1     -15.584   8.458  47.041  0.00  0.00    -0.074 C 
ATOM      5  C7  <0> A   1     -15.970   7.173  46.804  0.00  0.00    -0.042 C 
ATOM      6  C8  <0> A   1     -17.048   6.410  47.415  0.00  0.00    +0.595 C 
ATOM      7  O1  <0> A   1     -17.171   5.266  47.017  0.00  0.00    -0.567 OA
ATOM      8  N2  <0> A   1     -17.907   6.783  48.335  0.00  0.00    -0.574 N 
ATOM      9  C9  <0> A   1     -18.078   8.074  48.944  0.00  0.00    +0.260 C 
ATOM     10  C10 <0> A   1     -16.795   8.816  49.203  0.00  0.00    +0.021 C 
ATOM     11  C11 <0> A   1     -16.200   9.449  47.979  0.00  0.00    +0.099 C 
ENDROOT
BRANCH   3  12
ATOM     12  C19 <0> A   1     -13.715   9.999  46.138  0.00  0.00    -0.006 A 
ATOM     13  C20 <0> A   1     -14.133  11.009  45.275  0.00  0.00    +0.048 A 
ATOM     14  C21 <0> A   1     -13.427  12.193  45.210  0.00  0.00    -0.016 A 
ATOM     15  C22 <0> A   1     -12.305  12.378  46.001  0.00  0.00    +0.093 A 
ATOM     16  C23 <0> A   1     -11.886  11.375  46.860  0.00  0.00    -0.017 A 
ATOM     17  C24 <0> A   1     -12.590  10.190  46.936  0.00  0.00    +0.050 A 
ATOM     18  F1  <0> A   1     -11.616  13.538  45.933  0.00  0.00    -0.142 F 
ENDBRANCH   3  12
BRANCH   1  20
ATOM     19  C1  <0> A   1     -15.419   5.381  43.774  0.00  0.00    +0.037 C 
ATOM     20  C2  <0> A   1     -15.189   5.301  45.285  0.00  0.00    +0.244 C 
ATOM     21  C3  <0> A   1     -13.876   4.567  45.562  0.00  0.00    +0.037 C 
ENDBRANCH   1  20
BRANCH   8  22
ATOM     22  C12 <0> A   1     -18.818   5.737  48.807  0.00  0.00    +0.332 C 
BRANCH  22  23
ATOM     23  C13 <0> A   1     -18.754   5.657  50.311  0.00  0.00    -0.106 A 
ATOM     24  C14 <0> A   1     -19.894   5.869  51.063  0.00  0.00    +0.038 A 
ATOM     25  C15 <0> A   1     -19.835   5.796  52.443  0.00  0.00    -0.004 A 
ATOM     26  C16 <0> A   1     -18.637   5.512  53.069  0.00  0.00    +0.004 A 
ATOM     27  C17 <0> A   1     -17.496   5.300  52.316  0.00  0.00    -0.005 A 
ATOM     28  C18 <0> A   1     -17.556   5.368  50.937  0.00  0.00    +0.011 A 
ENDBRANCH  22  23
ENDBRANCH   8  22
BRANCH   2  29
ATOM     29  C25 <0> A   1     -13.117   7.423  44.478  0.00  0.00    +0.114 C 
BRANCH  29  30
ATOM     30  C26 <0> A   1     -13.552   8.039  43.145  0.00  0.00    -0.006 C 
BRANCH  30  31
ATOM     31  C27 <0> A   1     -12.496   7.742  42.078  0.00  0.00    +0.212 C 
BRANCH  31  32
ATOM     32  O5  <0> A   1     -12.033   6.398  42.228  0.00  0.00    -0.541 OA
ATOM     33  H36 <0> A   1     -11.590   6.045  41.444  0.00  0.00    +0.362 HD
ENDBRANCH  31  32
BRANCH  31  34
ATOM     34  C28 <0> A   1     -13.113   7.917  40.690  0.00  0.00    -0.051 C 
BRANCH  34  35
ATOM     35  C29 <0> A   1     -12.419   9.073  39.966  0.00  0.00    +0.230 C 
BRANCH  35  36
ATOM     36  O4  <0> A   1     -12.694   8.993  38.566  0.00  0.00    -0.528 OA
ATOM     37  H35 <0> A   1     -12.092   8.414  38.079  0.00  0.00    +0.349 HD
ENDBRANCH  35  36
BRANCH  35  38
ATOM     38  C30 <0> A   1     -12.941  10.404  40.512  0.00  0.00    -0.103 C 
BRANCH  38  39
ATOM     39  C31 <0> A   1     -13.292  11.314  39.363  0.00  0.00    +0.490 C 
ATOM     40  O2  <0> A   1     -12.414  11.921  38.775  0.00  0.00    -0.681 OA
ATOM     41  O3  <0> A   1     -14.456  11.443  39.022  0.00  0.00    -0.713 OA
ENDBRANCH  38  39
ENDBRANCH  35  38
ENDBRANCH  34  35
ENDBRANCH  31  34
ENDBRANCH  30  31
ENDBRANCH  29  30
ENDBRANCH   2  29
TORSDOF 13
