REMARK VINA RESULT:      -8.5     13.534     19.756
REMARK  Name = CHEMBL444210
REMARK  17 active torsions:
REMARK  status: ('A' for Active; 'I' for Inactive)
REMARK    1  A    between atoms: C1_1  and  C2_2
REMARK    2  A    between atoms: C2_2  and  C3_3
REMARK    3  A    between atoms: C2_2  and  C4_4
REMARK    4  A    between atoms: C5_5  and  C20_29
REMARK    5  A    between atoms: C6_7  and  C14_22
REMARK    6  A    between atoms: N2_8  and  C7_9
REMARK    7  A    between atoms: C7_9  and  C8_10
REMARK    8  A    between atoms: C8_10  and  C9_11
REMARK    9  A    between atoms: C9_11  and  C10_13
REMARK   10  A    between atoms: C9_11  and  O4_21
REMARK   11  A    between atoms: C10_13  and  C11_14
REMARK   12  A    between atoms: C11_14  and  C12_16
REMARK   13  A    between atoms: C11_14  and  O3_20
REMARK   14  A    between atoms: C12_16  and  C13_17
REMARK   15  A    between atoms: N3_31  and  C21_32
REMARK   16  A    between atoms: C21_32  and  C22_33
REMARK   17  A    between atoms: C26_37  and  C28_39
REMARK                            x       y       z     vdW  Elec       q    Type
REMARK                         _______ _______ _______ _____ _____    ______ ____
ROOT
ATOM      1  C4  <0> A   1     -26.395  -5.361  50.373  0.00  0.00    +0.092 C 
ATOM      2  C5  <0> A   1     -25.057  -5.099  50.443  0.00  0.00    -0.064 C 
ATOM      3  N1  <0> A   1     -24.396  -6.249  50.198  0.00  0.00    -0.446 NA
ATOM      4  C6  <0> A   1     -25.266  -7.205  49.982  0.00  0.00    +0.246 C 
ATOM      5  N2  <0> A   1     -26.526  -6.684  50.089  0.00  0.00    -0.436 N 
ENDROOT
BRANCH   4   6
ATOM      6  C14 <0> A   1     -24.941  -8.616  49.678  0.00  0.00    -0.022 A 
ATOM      7  C15 <0> A   1     -25.049  -9.094  48.372  0.00  0.00    +0.046 A 
ATOM      8  C16 <0> A   1     -24.744 -10.410  48.093  0.00  0.00    -0.001 A 
ATOM      9  C17 <0> A   1     -24.329 -11.257  49.109  0.00  0.00    +0.109 A 
ATOM     10  C18 <0> A   1     -24.221 -10.787  50.409  0.00  0.00    -0.010 A 
ATOM     11  C19 <0> A   1     -24.518  -9.472  50.696  0.00  0.00    +0.094 A 
ATOM     12  F1  <0> A   1     -24.032 -12.545  48.832  0.00  0.00    -0.136 F 
ENDBRANCH   4   6
BRANCH   2  13
ATOM     13  C20 <0> A   1     -24.443  -3.791  50.733  0.00  0.00    +0.610 C 
ATOM     14  O5  <0> A   1     -25.145  -2.843  51.032  0.00  0.00    -0.540 OA
ATOM     15  N3  <0> A   1     -23.105  -3.644  50.667  0.00  0.00    -0.715 N 
ATOM     16  H24 <0> A   1     -22.547  -4.400  50.427  0.00  0.00    +0.410 HD
BRANCH  15  17
ATOM     17  C21 <0> A   1     -22.496  -2.344  50.955  0.00  0.00    +0.320 C 
BRANCH  17  18
ATOM     18  C22 <0> A   1     -21.923  -2.356  52.348  0.00  0.00    -0.106 A 
ATOM     19  C23 <0> A   1     -22.667  -1.867  53.406  0.00  0.00    +0.035 A 
ATOM     20  C24 <0> A   1     -22.148  -1.875  54.688  0.00  0.00    +0.010 A 
ATOM     21  C25 <0> A   1     -20.881  -2.372  54.918  0.00  0.00    +0.034 A 
ATOM     22  C26 <0> A   1     -20.126  -2.867  53.857  0.00  0.00    -0.054 A 
ATOM     23  C27 <0> A   1     -20.657  -2.861  52.569  0.00  0.00    +0.047 A 
BRANCH  22  24
ATOM     24  C28 <0> A   1     -18.764  -3.403  54.099  0.00  0.00    -0.080 A 
ATOM     25  C29 <0> A   1     -18.503  -4.760  53.915  0.00  0.00    +0.058 A 
ATOM     26  C30 <0> A   1     -17.234  -5.253  54.142  0.00  0.00    +0.006 A 
ATOM     27  C31 <0> A   1     -16.221  -4.404  54.550  0.00  0.00    +0.045 A 
ATOM     28  C32 <0> A   1     -16.471  -3.058  54.734  0.00  0.00    -0.017 A 
ATOM     29  C33 <0> A   1     -17.737  -2.550  54.505  0.00  0.00    +0.108 A 
ATOM     30  F2  <0> A   1     -17.980  -1.232  54.679  0.00  0.00    -0.134 F 
ENDBRANCH  22  24
ENDBRANCH  17  18
ENDBRANCH  15  17
ENDBRANCH   2  13
BRANCH   1  32
ATOM     31  C1  <0> A   1     -28.585  -4.585  49.507  0.00  0.00    +0.032 C 
ATOM     32  C2  <0> A   1     -27.514  -4.373  50.579  0.00  0.00    +0.086 C 
ATOM     33  C3  <0> A   1     -28.131  -4.582  51.963  0.00  0.00    +0.034 C 
ENDBRANCH   1  32
BRANCH   5  34
ATOM     34  C7  <0> A   1     -27.785  -7.416  49.926  0.00  0.00    +0.304 C 
BRANCH  34  35
ATOM     35  C8  <0> A   1     -28.210  -8.004  51.273  0.00  0.00    -0.015 C 
BRANCH  35  36
ATOM     36  C9  <0> A   1     -28.883  -9.359  51.047  0.00  0.00    +0.219 C 
BRANCH  36  37
ATOM     37  O4  <0> A   1     -27.885 -10.375  50.933  0.00  0.00    -0.538 OA
ATOM     38  H19 <0> A   1     -27.043 -10.060  50.575  0.00  0.00    +0.367 HD
ENDBRANCH  36  37
BRANCH  36  39
ATOM     39  C10 <0> A   1     -29.800  -9.676  52.231  0.00  0.00    -0.046 C 
BRANCH  39  40
ATOM     40  C11 <0> A   1     -30.749 -10.815  51.850  0.00  0.00    +0.232 C 
BRANCH  40  41
ATOM     41  O3  <0> A   1     -30.403 -11.308  50.553  0.00  0.00    -0.527 OA
ATOM     42  H18 <0> A   1     -30.033 -12.201  50.557  0.00  0.00    +0.351 HD
ENDBRANCH  40  41
BRANCH  40  43
ATOM     43  C12 <0> A   1     -30.626 -11.945  52.874  0.00  0.00    -0.102 C 
BRANCH  43  44
ATOM     44  C13 <0> A   1     -29.840 -13.083  52.274  0.00  0.00    +0.491 C 
ATOM     45  O1  <0> A   1     -28.626 -13.008  52.192  0.00  0.00    -0.681 OA
ATOM     46  O2  <0> A   1     -30.419 -14.078  51.871  0.00  0.00    -0.712 OA
ENDBRANCH  43  44
ENDBRANCH  40  43
ENDBRANCH  39  40
ENDBRANCH  36  39
ENDBRANCH  35  36
ENDBRANCH  34  35
ENDBRANCH   5  34
TORSDOF 15
