REMARK VINA RESULT:      -6.8     10.299     12.481
REMARK  Name = CHEMBL39312
REMARK  12 active torsions:
REMARK  status: ('A' for Active; 'I' for Inactive)
REMARK    1  A    between atoms: C4_4  and  C7_7
REMARK    2  A    between atoms: C7_7  and  O1_8
REMARK    3  A    between atoms: O1_8  and  C8_9
REMARK    4  A    between atoms: C13_14  and  C14_15
REMARK    5  A    between atoms: C14_15  and  C15_16
REMARK    6  A    between atoms: C15_16  and  C16_17
REMARK    7  A    between atoms: C16_17  and  C17_19
REMARK    8  A    between atoms: C16_17  and  O5_27
REMARK    9  A    between atoms: C17_19  and  C18_20
REMARK   10  A    between atoms: C18_20  and  C19_22
REMARK   11  A    between atoms: C18_20  and  O4_26
REMARK   12  A    between atoms: C19_22  and  C20_23
REMARK                            x       y       z     vdW  Elec       q    Type
REMARK                         _______ _______ _______ _____ _____    ______ ____
ROOT
ATOM      1  C8  <0> A   1      -5.267   3.958  46.436  0.00  0.00    +0.159 A 
ATOM      2  C9  <0> A   1      -6.079   3.089  45.722  0.00  0.00    -0.056 A 
ATOM      3  C10 <0> A   1      -5.539   2.310  44.715  0.00  0.00    +0.009 A 
ATOM      4  C11 <0> A   1      -4.190   2.398  44.420  0.00  0.00    +0.006 A 
ATOM      5  C12 <0> A   1      -3.378   3.264  45.131  0.00  0.00    +0.011 A 
ATOM      6  C13 <0> A   1      -3.916   4.049  46.135  0.00  0.00    -0.094 A 
ATOM      7 Cl1  <0> A   1      -1.687   3.371  44.758  0.00  0.00    -0.040 Cl
ATOM      8 Cl2  <0> A   1      -6.553   1.222  43.821  0.00  0.00    -0.057 Cl
ENDROOT
BRANCH   1   9
ATOM      9  O1  <0> A   1      -5.796   4.724  47.427  0.00  0.00    -0.289 OA
BRANCH   9  10
ATOM     10  C7  <0> A   1      -6.712   4.087  48.320  0.00  0.00    +0.246 C 
BRANCH  10  14
ATOM     11  C1  <0> A   1      -4.623   2.803  51.818  0.00  0.00    +0.019 A 
ATOM     12  C2  <0> A   1      -5.603   2.000  51.265  0.00  0.00    +0.003 A 
ATOM     13  C3  <0> A   1      -6.280   2.416  50.134  0.00  0.00    +0.030 A 
ATOM     14  C4  <0> A   1      -5.976   3.634  49.555  0.00  0.00    -0.099 A 
ATOM     15  C5  <0> A   1      -4.995   4.437  50.108  0.00  0.00    +0.031 A 
ATOM     16  C6  <0> A   1      -4.318   4.021  51.239  0.00  0.00    +0.005 A 
ENDBRANCH  10  14
ENDBRANCH   9  10
ENDBRANCH   1   9
BRANCH   6  17
ATOM     17  C14 <0> A   1      -3.034   4.997  46.905  0.00  0.00    +0.097 C 
BRANCH  17  18
ATOM     18  C15 <0> A   1      -2.968   6.339  46.174  0.00  0.00    -0.007 C 
BRANCH  18  19
ATOM     19  C16 <0> A   1      -3.423   7.456  47.115  0.00  0.00    +0.211 C 
BRANCH  19  20
ATOM     20  O5  <0> A   1      -4.829   7.661  46.965  0.00  0.00    -0.540 OA
ATOM     21  H21 <0> A   1      -5.084   8.028  46.107  0.00  0.00    +0.364 HD
ENDBRANCH  19  20
BRANCH  19  22
ATOM     22  C17 <0> A   1      -3.116   7.061  48.561  0.00  0.00    -0.053 C 
BRANCH  22  23
ATOM     23  C18 <0> A   1      -2.421   8.224  49.272  0.00  0.00    +0.230 C 
BRANCH  23  24
ATOM     24  O4  <0> A   1      -2.888   9.460  48.728  0.00  0.00    -0.528 OA
ATOM     25  H20 <0> A   1      -2.431  10.239  49.076  0.00  0.00    +0.349 HD
ENDBRANCH  23  24
BRANCH  23  26
ATOM     26  C19 <0> A   1      -2.739   8.170  50.767  0.00  0.00    -0.103 C 
BRANCH  26  27
ATOM     27  C20 <0> A   1      -2.580   9.545  51.364  0.00  0.00    +0.490 C 
ATOM     28  O2  <0> A   1      -1.467   9.983  51.599  0.00  0.00    -0.681 OA
ATOM     29  O3  <0> A   1      -3.564  10.219  51.611  0.00  0.00    -0.714 OA
ENDBRANCH  26  27
ENDBRANCH  23  26
ENDBRANCH  22  23
ENDBRANCH  19  22
ENDBRANCH  18  19
ENDBRANCH  17  18
ENDBRANCH   6  17
TORSDOF 12
