REMARK VINA RESULT:      -7.6      3.312      5.914
REMARK  Name = CHEMBL100721
REMARK  12 active torsions:
REMARK  status: ('A' for Active; 'I' for Inactive)
REMARK    1  A    between atoms: C6_6  and  C7_7
REMARK    2  A    between atoms: C7_7  and  C8_8
REMARK    3  A    between atoms: C7_7  and  C14_15
REMARK    4  A    between atoms: C19_20  and  O1_21
REMARK    5  A    between atoms: O1_21  and  C20_22
REMARK    6  A    between atoms: C20_22  and  C21_23
REMARK    7  A    between atoms: C21_23  and  C22_24
REMARK    8  A    between atoms: C21_23  and  O5_32
REMARK    9  A    between atoms: C22_24  and  C23_25
REMARK   10  A    between atoms: C23_25  and  C24_27
REMARK   11  A    between atoms: C23_25  and  O4_31
REMARK   12  A    between atoms: C24_27  and  C25_28
REMARK                            x       y       z     vdW  Elec       q    Type
REMARK                         _______ _______ _______ _____ _____    ______ ____
ROOT
ATOM      1  C14 <0> A   1     -13.998   8.652  47.213  0.00  0.00    -0.071 A 
ATOM      2  C15 <0> A   1     -13.816   8.155  48.489  0.00  0.00    +0.059 A 
ATOM      3  C16 <0> A   1     -12.593   7.624  48.858  0.00  0.00    -0.030 A 
ATOM      4  C17 <0> A   1     -11.549   7.589  47.951  0.00  0.00    +0.058 A 
ATOM      5  C18 <0> A   1     -11.726   8.085  46.673  0.00  0.00    -0.045 A 
ATOM      6  C19 <0> A   1     -12.955   8.613  46.300  0.00  0.00    +0.124 A 
ATOM      7 Cl1  <0> A   1     -10.416   8.043  45.535  0.00  0.00    -0.036 Cl
ATOM      8 Cl2  <0> A   1     -12.367   7.000  50.463  0.00  0.00    -0.053 Cl
ENDROOT
BRANCH   1   9
ATOM      9  C7  <0> A   1     -15.330   9.231  46.813  0.00  0.00    +0.157 C 
BRANCH   9  15
ATOM     10  C1  <0> A   1     -16.813   8.759  48.773  0.00  0.00    +0.049 A 
ATOM     11  C2  <0> A   1     -17.827   8.048  49.385  0.00  0.00    -0.018 A 
ATOM     12  C3  <0> A   1     -18.465   7.027  48.701  0.00  0.00    +0.100 A 
ATOM     13  C4  <0> A   1     -18.087   6.720  47.405  0.00  0.00    -0.011 A 
ATOM     14  C5  <0> A   1     -17.073   7.434  46.796  0.00  0.00    +0.071 A 
ATOM     15  C6  <0> A   1     -16.436   8.453  47.478  0.00  0.00    -0.086 A 
ATOM     16  F2  <0> A   1     -19.457   6.329  49.299  0.00  0.00    -0.140 F 
ENDBRANCH   9  15
BRANCH   9  17
ATOM     17  C8  <0> A   1     -15.401  10.673  47.242  0.00  0.00    -0.090 A 
ATOM     18  C9  <0> A   1     -14.304  11.273  47.833  0.00  0.00    +0.045 A 
ATOM     19  C10 <0> A   1     -14.368  12.596  48.227  0.00  0.00    -0.013 A 
ATOM     20  C11 <0> A   1     -15.530  13.321  48.029  0.00  0.00    +0.099 A 
ATOM     21  C12 <0> A   1     -16.628  12.720  47.437  0.00  0.00    -0.012 A 
ATOM     22  C13 <0> A   1     -16.561  11.398  47.040  0.00  0.00    +0.061 A 
ATOM     23  F1  <0> A   1     -15.594  14.614  48.415  0.00  0.00    -0.140 F 
ENDBRANCH   9  17
ENDBRANCH   1   9
BRANCH   6  24
ATOM     24  O1  <0> A   1     -13.134   9.097  45.042  0.00  0.00    -0.309 OA
BRANCH  24  25
ATOM     25  C20 <0> A   1     -12.565  10.375  44.751  0.00  0.00    +0.155 C 
BRANCH  25  26
ATOM     26  C21 <0> A   1     -13.618  11.264  44.087  0.00  0.00    +0.229 C 
BRANCH  26  27
ATOM     27  O5  <0> A   1     -13.088  12.579  43.911  0.00  0.00    -0.530 OA
ATOM     28  H21 <0> A   1     -12.784  12.994  44.731  0.00  0.00    +0.363 HD
ENDBRANCH  26  27
BRANCH  26  29
ATOM     29  C22 <0> A   1     -13.994  10.679  42.724  0.00  0.00    -0.041 C 
BRANCH  29  30
ATOM     30  C23 <0> A   1     -13.201  11.392  41.627  0.00  0.00    +0.235 C 
BRANCH  30  31
ATOM     31  O4  <0> A   1     -11.899  10.811  41.527  0.00  0.00    -0.526 OA
ATOM     32  H20 <0> A   1     -11.903   9.851  41.416  0.00  0.00    +0.350 HD
ENDBRANCH  30  31
BRANCH  30  33
ATOM     33  C24 <0> A   1     -13.930  11.240  40.291  0.00  0.00    -0.101 C 
BRANCH  33  34
ATOM     34  C25 <0> A   1     -12.921  11.092  39.181  0.00  0.00    +0.490 C 
ATOM     35  O2  <0> A   1     -12.388  12.080  38.707  0.00  0.00    -0.680 OA
ATOM     36  O3  <0> A   1     -12.637   9.984  38.758  0.00  0.00    -0.712 OA
ENDBRANCH  33  34
ENDBRANCH  30  33
ENDBRANCH  29  30
ENDBRANCH  26  29
ENDBRANCH  25  26
ENDBRANCH  24  25
ENDBRANCH   6  24
TORSDOF 12
