REMARK VINA RESULT:      -7.3     19.567     22.489
REMARK  Name = CHEMBL298482
REMARK  6 active torsions:
REMARK  status: ('A' for Active; 'I' for Inactive)
REMARK    1  A    between atoms: C3_3  and  C5_6
REMARK    2  A    between atoms: C5_6  and  O2_7
REMARK    3  A    between atoms: O2_7  and  C6_8
REMARK    4  A    between atoms: C11_13  and  C12_14
REMARK    5  A    between atoms: C13_15  and  C14_16
REMARK    6  A    between atoms: C16_18  and  O5_24
REMARK                            x       y       z     vdW  Elec       q    Type
REMARK                         _______ _______ _______ _____ _____    ______ ____
ROOT
ATOM      1  C6  <0> A   1     -26.608  -0.471  50.286  0.00  0.00    +0.169 A 
ATOM      2  C7  <0> A   1     -27.134   0.764  50.629  0.00  0.00    -0.050 A 
ATOM      3  C8  <0> A   1     -28.377   0.846  51.231  0.00  0.00    +0.017 A 
ATOM      4  C9  <0> A   1     -29.103  -0.304  51.495  0.00  0.00    +0.014 A 
ATOM      5  C10 <0> A   1     -28.592  -1.542  51.159  0.00  0.00    +0.017 A 
ATOM      6  C11 <0> A   1     -27.341  -1.635  50.546  0.00  0.00    -0.074 A 
ATOM      7 Cl1  <0> A   1     -29.506  -2.979  51.492  0.00  0.00    -0.036 Cl
ATOM      8 Cl2  <0> A   1     -29.030   2.396  51.659  0.00  0.00    -0.047 Cl
ENDROOT
BRANCH   6   9
ATOM      9  C12 <0> A   1     -26.790  -2.955  50.178  0.00  0.00    +0.055 C 
ATOM     10  C13 <0> A   1     -26.097  -3.655  51.066  0.00  0.00    -0.009 C 
BRANCH  10  11
ATOM     11  C14 <0> A   1     -25.536  -5.003  50.692  0.00  0.00    +0.243 C 
ATOM     12  C15 <0> A   1     -26.626  -5.844  50.024  0.00  0.00    +0.051 C 
ATOM     13  C16 <0> A   1     -26.064  -7.228  49.684  0.00  0.00    +0.186 C 
ATOM     14  C17 <0> A   1     -25.592  -7.902  50.978  0.00  0.00    +0.023 C 
ATOM     15  C18 <0> A   1     -24.668  -6.948  51.702  0.00  0.00    +0.498 C 
ATOM     16  O3  <0> A   1     -23.594  -7.315  52.116  0.00  0.00    -0.451 OA
ATOM     17  O4  <0> A   1     -25.080  -5.674  51.873  0.00  0.00    -0.367 OA
BRANCH  13  18
ATOM     18  O5  <0> A   1     -24.963  -7.089  48.783  0.00  0.00    -0.564 OA
ATOM     19  H16 <0> A   1     -25.019  -6.311  48.212  0.00  0.00    +0.387 HD
ENDBRANCH  13  18
ENDBRANCH  10  11
ENDBRANCH   6   9
BRANCH   1  20
ATOM     20  O2  <0> A   1     -25.387  -0.551  49.696  0.00  0.00    -0.292 OA
BRANCH  20  21
ATOM     21  C5  <0> A   1     -24.283   0.007  50.410  0.00  0.00    +0.326 C 
BRANCH  21  24
ATOM     22  C1  <0> A   1     -22.688  -2.498  52.593  0.00  0.00    -0.065 C 
ATOM     23  C2  <0> A   1     -23.558  -1.402  52.396  0.00  0.00    -0.016 C 
ATOM     24  C3  <0> A   1     -23.513  -1.099  51.086  0.00  0.00    -0.032 C 
ATOM     25  O1  <0> A   1     -22.665  -1.948  50.483  0.00  0.00    -0.170 OA
ATOM     26  C4  <0> A   1     -22.162  -2.799  51.392  0.00  0.00    +0.187 C 
ENDBRANCH  21  24
ENDBRANCH  20  21
ENDBRANCH   1  20
TORSDOF 6
