REMARK VINA RESULT:      -8.4     23.718     27.369
REMARK  Name = CHEMBL352558
REMARK  9 active torsions:
REMARK  status: ('A' for Active; 'I' for Inactive)
REMARK    1  A    between atoms: C1_1  and  C2_2
REMARK    2  A    between atoms: C4_5  and  O4_28
REMARK    3  A    between atoms: C6_8  and  C13_17
REMARK    4  A    between atoms: C7_10  and  C12_16
REMARK    5  A    between atoms: C13_17  and  C14_18
REMARK    6  A    between atoms: C14_18  and  C15_19
REMARK    7  A    between atoms: C17_21  and  O3_27
REMARK    8  A    between atoms: O4_28  and  C20_29
REMARK    9  A    between atoms: C20_29  and  C21_31
REMARK                            x       y       z     vdW  Elec       q    Type
REMARK                         _______ _______ _______ _____ _____    ______ ____
ROOT
ATOM      1  C1  <0> A   1     -29.975 -12.726  52.667  0.00  0.00    +0.032 C 
ATOM      2  C2  <0> A   1     -30.387 -11.308  52.266  0.00  0.00    +0.024 C 
ATOM      3  C3  <0> A   1     -29.188 -10.572  51.652  0.00  0.00    +0.018 C 
ATOM      4  C4  <0> A   1     -29.640  -9.172  51.241  0.00  0.00    +0.173 C 
ATOM      5  C5  <0> A   1     -30.174  -8.386  52.415  0.00  0.00    +0.044 C 
ATOM      6  C6  <0> A   1     -29.130  -7.421  52.979  0.00  0.00    +0.011 C 
ATOM      7  C7  <0> A   1     -29.809  -6.504  53.998  0.00  0.00    +0.022 C 
ATOM      8  C8  <0> A   1     -30.611  -7.283  54.995  0.00  0.00    -0.033 C 
ATOM      9  C9  <0> A   1     -31.031  -8.522  54.804  0.00  0.00    -0.006 C 
ATOM     10  C10 <0> A   1     -30.694  -9.225  53.543  0.00  0.00    -0.087 C 
ATOM     11  C11 <0> A   1     -30.823 -10.538  53.486  0.00  0.00    -0.023 C 
ATOM     12  C12 <0> A   1     -30.736  -5.537  53.259  0.00  0.00    +0.030 C 
ENDROOT
BRANCH   6  13
ATOM     13  C13 <0> A   1     -28.539  -6.582  51.844  0.00  0.00    +0.063 C 
BRANCH  13  14
ATOM     14  C14 <0> A   1     -27.409  -5.707  52.391  0.00  0.00    +0.035 C 
BRANCH  14  15
ATOM     15  C15 <0> A   1     -27.047  -4.637  51.359  0.00  0.00    +0.195 C 
ATOM     16  C16 <0> A   1     -26.562  -3.377  52.079  0.00  0.00    +0.036 C 
ATOM     17  C17 <0> A   1     -26.240  -2.293  51.044  0.00  0.00    +0.182 C 
ATOM     18  C18 <0> A   1     -27.506  -1.990  50.233  0.00  0.00    +0.015 C 
ATOM     19  C19 <0> A   1     -28.058  -3.297  49.706  0.00  0.00    +0.495 C 
ATOM     20  O1  <0> A   1     -28.361  -3.421  48.544  0.00  0.00    -0.449 OA
ATOM     21  O2  <0> A   1     -28.201  -4.320  50.573  0.00  0.00    -0.364 OA
BRANCH  17  22
ATOM     22  O3  <0> A   1     -25.209  -2.758  50.170  0.00  0.00    -0.559 OA
ATOM     23  H27 <0> A   1     -24.761  -3.557  50.480  0.00  0.00    +0.385 HD
ENDBRANCH  17  22
ENDBRANCH  14  15
ENDBRANCH  13  14
ENDBRANCH   6  13
BRANCH   4  24
ATOM     24  O4  <0> A   1     -28.530  -8.470  50.680  0.00  0.00    -0.319 OA
BRANCH  24  25
ATOM     25  C20 <0> A   1     -27.985  -8.983  49.565  0.00  0.00    +0.457 C 
ATOM     26  O5  <0> A   1     -28.696  -9.361  48.664  0.00  0.00    -0.502 OA
BRANCH  25  27
ATOM     27  C21 <0> A   1     -26.487  -9.086  49.437  0.00  0.00    -0.041 C 
ATOM     28  C22 <0> A   1     -25.943  -9.997  50.539  0.00  0.00    +0.045 C 
ATOM     29  C23 <0> A   1     -24.421 -10.102  50.408  0.00  0.00    -0.003 C 
ATOM     30  C24 <0> A   1     -23.801  -8.711  50.544  0.00  0.00    +0.016 C 
ATOM     31  C25 <0> A   1     -24.345  -7.800  49.442  0.00  0.00    -0.009 C 
ATOM     32  C26 <0> A   1     -25.867  -7.695  49.572  0.00  0.00    +0.047 C 
ATOM     33  C27 <0> A   1     -23.990  -8.385  48.074  0.00  0.00    +0.016 C 
ATOM     34  C28 <0> A   1     -24.611  -9.778  47.938  0.00  0.00    -0.009 C 
ATOM     35  C29 <0> A   1     -24.067 -10.688  49.041  0.00  0.00    +0.026 C 
ATOM     36  C30 <0> A   1     -26.131  -9.672  48.069  0.00  0.00    +0.038 C 
ENDBRANCH  25  27
ENDBRANCH  24  25
ENDBRANCH   4  24
TORSDOF 7
