MODEL 1
REMARK VINA RESULT:      -7.9      0.000      0.000
REMARK  Name = CHEMBL330753
REMARK  9 active torsions:
REMARK  status: ('A' for Active; 'I' for Inactive)
REMARK    1  A    between atoms: C1_1  and  C2_2
REMARK    2  A    between atoms: C2_2  and  C3_3
REMARK    3  A    between atoms: C2_2  and  C4_4
REMARK    4  A    between atoms: C6_6  and  C21_28
REMARK    5  A    between atoms: C7_7  and  C15_21
REMARK    6  A    between atoms: N1_8  and  C8_9
REMARK    7  A    between atoms: C8_9  and  C9_10
REMARK    8  A    between atoms: C9_10  and  C10_11
REMARK    9  A    between atoms: C12_14  and  O3_20
REMARK                            x       y       z     vdW  Elec       q    Type
REMARK                         _______ _______ _______ _____ _____    ______ ____
ROOT
ATOM      1  C4  <0> A   1     -13.559  10.253  42.564  0.00  0.00    +0.037 C 
ATOM      2  C5  <0> A   1     -13.694  11.309  43.389  0.00  0.00    -0.025 C 
ATOM      3  C6  <0> A   1     -13.364  10.877  44.696  0.00  0.00    -0.118 C 
ATOM      4  C7  <0> A   1     -13.034   9.535  44.602  0.00  0.00    +0.098 C 
ATOM      5  N1  <0> A   1     -13.164   9.168  43.291  0.00  0.00    -0.428 N 
ENDROOT
BRANCH   4   6
ATOM      6  C15 <0> A   1     -12.620   8.659  45.717  0.00  0.00    -0.032 A 
ATOM      7  C16 <0> A   1     -11.310   8.175  45.778  0.00  0.00    +0.040 A 
ATOM      8  C17 <0> A   1     -10.928   7.357  46.821  0.00  0.00    -0.027 A 
ATOM      9  C18 <0> A   1     -11.841   7.016  47.807  0.00  0.00    +0.106 A 
ATOM     10  C19 <0> A   1     -13.141   7.492  47.751  0.00  0.00    -0.028 A 
ATOM     11  C20 <0> A   1     -13.532   8.315  46.716  0.00  0.00    +0.130 A 
ATOM     12  F1  <0> A   1     -11.462   6.213  48.825  0.00  0.00    -0.141 F 
ENDBRANCH   4   6
BRANCH   3  13
ATOM     13  C21 <0> A   1     -13.370  11.702  45.926  0.00  0.00    +0.211 A 
ATOM     14  C22 <0> A   1     -14.565  11.899  46.620  0.00  0.00    -0.032 A 
ATOM     15  C23 <0> A   1     -14.554  12.672  47.767  0.00  0.00    +0.063 A 
ATOM     16  C24 <0> A   1     -13.350  13.221  48.186  0.00  0.00    -0.055 A 
ATOM     17  C25 <0> A   1     -12.204  12.984  47.451  0.00  0.00    +0.257 A 
ATOM     18  N2  <0> A   1     -12.239  12.240  46.364  0.00  0.00    -0.482 NA
ENDBRANCH   3  13
BRANCH   1  20
ATOM     19  C1  <0> A   1     -14.702  11.458  40.722  0.00  0.00    +0.040 C 
ATOM     20  C2  <0> A   1     -13.812  10.266  41.078  0.00  0.00    +0.048 C 
ATOM     21  C3  <0> A   1     -12.479  10.384  40.336  0.00  0.00    +0.032 C 
ENDBRANCH   1  20
BRANCH   5  22
ATOM     22  C8  <0> A   1     -12.913   7.829  42.753  0.00  0.00    +0.292 C 
BRANCH  22  23
ATOM     23  C9  <0> A   1     -14.223   7.040  42.715  0.00  0.00    +0.053 C 
BRANCH  23  24
ATOM     24  C10 <0> A   1     -14.386   6.259  44.020  0.00  0.00    +0.203 C 
ATOM     25  C11 <0> A   1     -14.166   4.767  43.754  0.00  0.00    +0.045 C 
ATOM     26  C12 <0> A   1     -14.371   3.983  45.055  0.00  0.00    +0.186 C 
ATOM     27  C13 <0> A   1     -15.798   4.229  45.562  0.00  0.00    +0.024 C 
ATOM     28  C14 <0> A   1     -16.032   5.722  45.619  0.00  0.00    +0.497 C 
ATOM     29  O1  <0> A   1     -16.496   6.242  46.606  0.00  0.00    -0.450 OA
ATOM     30  O2  <0> A   1     -15.708   6.458  44.535  0.00  0.00    -0.370 OA
BRANCH  26  31
ATOM     31  O3  <0> A   1     -13.429   4.427  46.034  0.00  0.00    -0.563 OA
ATOM     32  H19 <0> A   1     -13.833   4.834  46.813  0.00  0.00    +0.388 HD
ENDBRANCH  26  31
ENDBRANCH  23  24
ENDBRANCH  22  23
ENDBRANCH   5  22
TORSDOF 7
ENDMDL
MODEL 2
REMARK VINA RESULT:      -7.7      3.154      6.008
REMARK  Name = CHEMBL330753
REMARK  9 active torsions:
REMARK  status: ('A' for Active; 'I' for Inactive)
REMARK    1  A    between atoms: C1_1  and  C2_2
REMARK    2  A    between atoms: C2_2  and  C3_3
REMARK    3  A    between atoms: C2_2  and  C4_4
REMARK    4  A    between atoms: C6_6  and  C21_28
REMARK    5  A    between atoms: C7_7  and  C15_21
REMARK    6  A    between atoms: N1_8  and  C8_9
REMARK    7  A    between atoms: C8_9  and  C9_10
REMARK    8  A    between atoms: C9_10  and  C10_11
REMARK    9  A    between atoms: C12_14  and  O3_20
REMARK                            x       y       z     vdW  Elec       q    Type
REMARK                         _______ _______ _______ _____ _____    ______ ____
ROOT
ATOM      1  C4  <0> A   1     -15.130  10.370  47.262  0.00  0.00    +0.037 C 
ATOM      2  C5  <0> A   1     -16.084   9.793  48.016  0.00  0.00    -0.025 C 
ATOM      3  C6  <0> A   1     -16.133   8.421  47.671  0.00  0.00    -0.118 C 
ATOM      4  C7  <0> A   1     -15.175   8.221  46.690  0.00  0.00    +0.098 C 
ATOM      5  N1  <0> A   1     -14.574   9.426  46.448  0.00  0.00    -0.428 N 
ENDROOT
BRANCH   4   6
ATOM      6  C15 <0> A   1     -14.862   6.941  46.024  0.00  0.00    -0.032 A 
ATOM      7  C16 <0> A   1     -15.489   6.605  44.822  0.00  0.00    +0.040 A 
ATOM      8  C17 <0> A   1     -15.194   5.408  44.204  0.00  0.00    -0.027 A 
ATOM      9  C18 <0> A   1     -14.276   4.539  44.774  0.00  0.00    +0.106 A 
ATOM     10  C19 <0> A   1     -13.652   4.867  45.967  0.00  0.00    -0.028 A 
ATOM     11  C20 <0> A   1     -13.935   6.063  46.590  0.00  0.00    +0.130 A 
ATOM     12  F1  <0> A   1     -13.992   3.367  44.165  0.00  0.00    -0.141 F 
ENDBRANCH   4   6
BRANCH   3  13
ATOM     13  C21 <0> A   1     -17.033   7.396  48.247  0.00  0.00    +0.211 A 
ATOM     14  C22 <0> A   1     -18.311   7.220  47.714  0.00  0.00    -0.032 A 
ATOM     15  C23 <0> A   1     -19.140   6.259  48.263  0.00  0.00    +0.063 A 
ATOM     16  C24 <0> A   1     -18.666   5.503  49.328  0.00  0.00    -0.055 A 
ATOM     17  C25 <0> A   1     -17.389   5.731  49.805  0.00  0.00    +0.257 A 
ATOM     18  N2  <0> A   1     -16.616   6.649  49.262  0.00  0.00    -0.482 NA
ENDBRANCH   3  13
BRANCH   1  20
ATOM     19  C1  <0> A   1     -15.970  12.670  47.658  0.00  0.00    +0.040 C 
ATOM     20  C2  <0> A   1     -14.743  11.826  47.304  0.00  0.00    +0.048 C 
ATOM     21  C3  <0> A   1     -13.657  12.035  48.362  0.00  0.00    +0.032 C 
ENDBRANCH   1  20
BRANCH   5  22
ATOM     22  C8  <0> A   1     -13.504   9.664  45.476  0.00  0.00    +0.292 C 
BRANCH  22  23
ATOM     23  C9  <0> A   1     -14.065  10.424  44.273  0.00  0.00    +0.053 C 
BRANCH  23  24
ATOM     24  C10 <0> A   1     -13.318   9.999  43.008  0.00  0.00    +0.203 C 
ATOM     25  C11 <0> A   1     -13.748  10.888  41.838  0.00  0.00    +0.045 C 
ATOM     26  C12 <0> A   1     -13.029  10.433  40.563  0.00  0.00    +0.186 C 
ATOM     27  C13 <0> A   1     -13.396   8.970  40.282  0.00  0.00    +0.024 C 
ATOM     28  C14 <0> A   1     -13.138   8.166  41.538  0.00  0.00    +0.497 C 
ATOM     29  O1  <0> A   1     -12.510   7.134  41.498  0.00  0.00    -0.450 OA
ATOM     30  O2  <0> A   1     -13.629   8.634  42.705  0.00  0.00    -0.370 OA
BRANCH  26  31
ATOM     31  O3  <0> A   1     -11.616  10.549  40.743  0.00  0.00    -0.563 OA
ATOM     32  H19 <0> A   1     -11.098   9.943  40.197  0.00  0.00    +0.388 HD
ENDBRANCH  26  31
ENDBRANCH  23  24
ENDBRANCH  22  23
ENDBRANCH   5  22
TORSDOF 7
ENDMDL
MODEL 3
REMARK VINA RESULT:      -7.7     16.356     19.299
REMARK  Name = CHEMBL330753
REMARK  9 active torsions:
REMARK  status: ('A' for Active; 'I' for Inactive)
REMARK    1  A    between atoms: C1_1  and  C2_2
REMARK    2  A    between atoms: C2_2  and  C3_3
REMARK    3  A    between atoms: C2_2  and  C4_4
REMARK    4  A    between atoms: C6_6  and  C21_28
REMARK    5  A    between atoms: C7_7  and  C15_21
REMARK    6  A    between atoms: N1_8  and  C8_9
REMARK    7  A    between atoms: C8_9  and  C9_10
REMARK    8  A    between atoms: C9_10  and  C10_11
REMARK    9  A    between atoms: C12_14  and  O3_20
REMARK                            x       y       z     vdW  Elec       q    Type
REMARK                         _______ _______ _______ _____ _____    ______ ____
ROOT
ATOM      1  C4  <0> A   1     -27.741  -5.017  50.962  0.00  0.00    +0.037 C 
ATOM      2  C5  <0> A   1     -28.412  -3.862  50.791  0.00  0.00    -0.025 C 
ATOM      3  C6  <0> A   1     -27.510  -2.800  51.045  0.00  0.00    -0.118 C 
ATOM      4  C7  <0> A   1     -26.294  -3.379  51.370  0.00  0.00    +0.098 C 
ATOM      5  N1  <0> A   1     -26.455  -4.736  51.320  0.00  0.00    -0.428 N 
ENDROOT
BRANCH   4   6
ATOM      6  C15 <0> A   1     -25.050  -2.659  51.712  0.00  0.00    -0.032 A 
ATOM      7  C16 <0> A   1     -24.011  -2.575  50.782  0.00  0.00    +0.040 A 
ATOM      8  C17 <0> A   1     -22.852  -1.902  51.106  0.00  0.00    -0.027 A 
ATOM      9  C18 <0> A   1     -22.716  -1.311  52.352  0.00  0.00    +0.106 A 
ATOM     10  C19 <0> A   1     -23.743  -1.392  53.279  0.00  0.00    -0.028 A 
ATOM     11  C20 <0> A   1     -24.909  -2.057  52.964  0.00  0.00    +0.130 A 
ATOM     12  F1  <0> A   1     -21.578  -0.654  52.665  0.00  0.00    -0.141 F 
ENDBRANCH   4   6
BRANCH   3  13
ATOM     13  C21 <0> A   1     -27.809  -1.352  50.975  0.00  0.00    +0.211 A 
ATOM     14  C22 <0> A   1     -27.061  -0.531  50.129  0.00  0.00    -0.032 A 
ATOM     15  C23 <0> A   1     -27.353   0.819  50.076  0.00  0.00    +0.063 A 
ATOM     16  C24 <0> A   1     -28.384   1.308  50.868  0.00  0.00    -0.055 A 
ATOM     17  C25 <0> A   1     -29.084   0.439  51.682  0.00  0.00    +0.257 A 
ATOM     18  N2  <0> A   1     -28.790  -0.846  51.712  0.00  0.00    -0.482 NA
ENDBRANCH   3  13
BRANCH   1  20
ATOM     19  C1  <0> A   1     -29.601  -6.519  51.624  0.00  0.00    +0.040 C 
ATOM     20  C2  <0> A   1     -28.321  -6.398  50.794  0.00  0.00    +0.048 C 
ATOM     21  C3  <0> A   1     -28.646  -6.638  49.318  0.00  0.00    +0.032 C 
ENDBRANCH   1  20
BRANCH   5  22
ATOM     22  C8  <0> A   1     -25.413  -5.728  51.599  0.00  0.00    +0.292 C 
BRANCH  22  23
ATOM     23  C9  <0> A   1     -24.832  -6.244  50.282  0.00  0.00    +0.053 C 
BRANCH  23  24
ATOM     24  C10 <0> A   1     -24.133  -7.582  50.523  0.00  0.00    +0.203 C 
ATOM     25  C11 <0> A   1     -25.107  -8.727  50.233  0.00  0.00    +0.045 C 
ATOM     26  C12 <0> A   1     -24.417 -10.066  50.514  0.00  0.00    +0.186 C 
ATOM     27  C13 <0> A   1     -23.979 -10.099  51.984  0.00  0.00    +0.024 C 
ATOM     28  C14 <0> A   1     -23.183  -8.845  52.272  0.00  0.00    +0.497 C 
ATOM     29  O1  <0> A   1     -22.113  -8.901  52.830  0.00  0.00    -0.450 OA
ATOM     30  O2  <0> A   1     -23.704  -7.660  51.887  0.00  0.00    -0.370 OA
BRANCH  26  31
ATOM     31  O3  <0> A   1     -23.272 -10.201  49.668  0.00  0.00    -0.563 OA
ATOM     32  H19 <0> A   1     -23.383 -10.845  48.956  0.00  0.00    +0.388 HD
ENDBRANCH  26  31
ENDBRANCH  23  24
ENDBRANCH  22  23
ENDBRANCH   5  22
TORSDOF 7
ENDMDL
MODEL 4
REMARK VINA RESULT:      -7.7      3.554      6.200
REMARK  Name = CHEMBL330753
REMARK  9 active torsions:
REMARK  status: ('A' for Active; 'I' for Inactive)
REMARK    1  A    between atoms: C1_1  and  C2_2
REMARK    2  A    between atoms: C2_2  and  C3_3
REMARK    3  A    between atoms: C2_2  and  C4_4
REMARK    4  A    between atoms: C6_6  and  C21_28
REMARK    5  A    between atoms: C7_7  and  C15_21
REMARK    6  A    between atoms: N1_8  and  C8_9
REMARK    7  A    between atoms: C8_9  and  C9_10
REMARK    8  A    between atoms: C9_10  and  C10_11
REMARK    9  A    between atoms: C12_14  and  O3_20
REMARK                            x       y       z     vdW  Elec       q    Type
REMARK                         _______ _______ _______ _____ _____    ______ ____
ROOT
ATOM      1  C4  <0> A   1     -14.892   6.452  45.682  0.00  0.00    +0.037 C 
ATOM      2  C5  <0> A   1     -15.960   6.153  46.446  0.00  0.00    -0.025 C 
ATOM      3  C6  <0> A   1     -16.325   7.325  47.152  0.00  0.00    -0.118 C 
ATOM      4  C7  <0> A   1     -15.432   8.314  46.772  0.00  0.00    +0.098 C 
ATOM      5  N1  <0> A   1     -14.559   7.761  45.876  0.00  0.00    -0.428 N 
ENDROOT
BRANCH   4   6
ATOM      6  C15 <0> A   1     -15.423   9.711  47.251  0.00  0.00    -0.032 A 
ATOM      7  C16 <0> A   1     -16.343  10.631  46.743  0.00  0.00    +0.040 A 
ATOM      8  C17 <0> A   1     -16.331  11.935  47.193  0.00  0.00    -0.027 A 
ATOM      9  C18 <0> A   1     -15.407  12.333  48.148  0.00  0.00    +0.106 A 
ATOM     10  C19 <0> A   1     -14.491  11.424  48.654  0.00  0.00    -0.028 A 
ATOM     11  C20 <0> A   1     -14.498  10.117  48.215  0.00  0.00    +0.130 A 
ATOM     12  F1  <0> A   1     -15.399  13.611  48.584  0.00  0.00    -0.141 F 
ENDBRANCH   4   6
BRANCH   3  13
ATOM     13  C21 <0> A   1     -17.445   7.467  48.110  0.00  0.00    +0.211 A 
ATOM     14  C22 <0> A   1     -17.231   8.101  49.335  0.00  0.00    -0.032 A 
ATOM     15  C23 <0> A   1     -18.287   8.225  50.219  0.00  0.00    +0.063 A 
ATOM     16  C24 <0> A   1     -19.525   7.713  49.851  0.00  0.00    -0.055 A 
ATOM     17  C25 <0> A   1     -19.666   7.099  48.621  0.00  0.00    +0.257 A 
ATOM     18  N2  <0> A   1     -18.645   6.996  47.794  0.00  0.00    -0.482 NA
ENDBRANCH   3  13
BRANCH   1  20
ATOM     19  C1  <0> A   1     -14.150   4.102  45.404  0.00  0.00    +0.040 C 
ATOM     20  C2  <0> A   1     -14.176   5.493  44.767  0.00  0.00    +0.048 C 
ATOM     21  C3  <0> A   1     -14.908   5.427  43.424  0.00  0.00    +0.032 C 
ENDBRANCH   1  20
BRANCH   5  22
ATOM     22  C8  <0> A   1     -13.448   8.462  45.226  0.00  0.00    +0.292 C 
BRANCH  22  23
ATOM     23  C9  <0> A   1     -14.000   9.454  44.202  0.00  0.00    +0.053 C 
BRANCH  23  24
ATOM     24  C10 <0> A   1     -13.185   9.361  42.911  0.00  0.00    +0.203 C 
ATOM     25  C11 <0> A   1     -13.750  10.339  41.878  0.00  0.00    +0.045 C 
ATOM     26  C12 <0> A   1     -12.957  10.214  40.572  0.00  0.00    +0.186 C 
ATOM     27  C13 <0> A   1     -13.071   8.772  40.059  0.00  0.00    +0.024 C 
ATOM     28  C14 <0> A   1     -12.689   7.836  41.185  0.00  0.00    +0.497 C 
ATOM     29  O1  <0> A   1     -11.896   6.941  41.007  0.00  0.00    -0.450 OA
ATOM     30  O2  <0> A   1     -13.259   8.028  42.393  0.00  0.00    -0.370 OA
BRANCH  26  31
ATOM     31  O3  <0> A   1     -11.585  10.532  40.814  0.00  0.00    -0.563 OA
ATOM     32  H19 <0> A   1     -11.093  10.784  40.020  0.00  0.00    +0.388 HD
ENDBRANCH  26  31
ENDBRANCH  23  24
ENDBRANCH  22  23
ENDBRANCH   5  22
TORSDOF 7
ENDMDL
MODEL 5
REMARK VINA RESULT:      -7.6      2.699      5.723
REMARK  Name = CHEMBL330753
REMARK  9 active torsions:
REMARK  status: ('A' for Active; 'I' for Inactive)
REMARK    1  A    between atoms: C1_1  and  C2_2
REMARK    2  A    between atoms: C2_2  and  C3_3
REMARK    3  A    between atoms: C2_2  and  C4_4
REMARK    4  A    between atoms: C6_6  and  C21_28
REMARK    5  A    between atoms: C7_7  and  C15_21
REMARK    6  A    between atoms: N1_8  and  C8_9
REMARK    7  A    between atoms: C8_9  and  C9_10
REMARK    8  A    between atoms: C9_10  and  C10_11
REMARK    9  A    between atoms: C12_14  and  O3_20
REMARK                            x       y       z     vdW  Elec       q    Type
REMARK                         _______ _______ _______ _____ _____    ______ ____
ROOT
ATOM      1  C4  <0> A   1     -13.245   8.994  42.260  0.00  0.00    +0.037 C 
ATOM      2  C5  <0> A   1     -13.816   7.774  42.257  0.00  0.00    -0.025 C 
ATOM      3  C6  <0> A   1     -14.007   7.386  43.605  0.00  0.00    -0.118 C 
ATOM      4  C7  <0> A   1     -13.528   8.422  44.391  0.00  0.00    +0.098 C 
ATOM      5  N1  <0> A   1     -13.060   9.395  43.551  0.00  0.00    -0.428 N 
ENDROOT
BRANCH   4   6
ATOM      6  C15 <0> A   1     -13.521   8.465  45.867  0.00  0.00    -0.032 A 
ATOM      7  C16 <0> A   1     -12.338   8.220  46.569  0.00  0.00    +0.040 A 
ATOM      8  C17 <0> A   1     -12.336   8.262  47.948  0.00  0.00    -0.027 A 
ATOM      9  C18 <0> A   1     -13.506   8.546  48.636  0.00  0.00    +0.106 A 
ATOM     10  C19 <0> A   1     -14.682   8.789  47.945  0.00  0.00    -0.028 A 
ATOM     11  C20 <0> A   1     -14.694   8.756  46.566  0.00  0.00    +0.130 A 
ATOM     12  F1  <0> A   1     -13.499   8.584  49.987  0.00  0.00    -0.141 F 
ENDBRANCH   4   6
BRANCH   3  13
ATOM     13  C21 <0> A   1     -14.606   6.119  44.083  0.00  0.00    +0.211 A 
ATOM     14  C22 <0> A   1     -15.940   5.832  43.792  0.00  0.00    -0.032 A 
ATOM     15  C23 <0> A   1     -16.485   4.645  44.245  0.00  0.00    +0.063 A 
ATOM     16  C24 <0> A   1     -15.679   3.780  44.974  0.00  0.00    -0.055 A 
ATOM     17  C25 <0> A   1     -14.365   4.128  45.225  0.00  0.00    +0.257 A 
ATOM     18  N2  <0> A   1     -13.867   5.263  44.778  0.00  0.00    -0.482 NA
ENDBRANCH   3  13
BRANCH   1  20
ATOM     19  C1  <0> A   1     -12.714   8.837  39.843  0.00  0.00    +0.040 C 
ATOM     20  C2  <0> A   1     -12.863   9.784  41.035  0.00  0.00    +0.048 C 
ATOM     21  C3  <0> A   1     -13.954  10.815  40.734  0.00  0.00    +0.032 C 
ENDBRANCH   1  20
BRANCH   5  22
ATOM     22  C8  <0> A   1     -12.462  10.665  43.970  0.00  0.00    +0.292 C 
BRANCH  22  23
ATOM     23  C9  <0> A   1     -13.561  11.712  44.154  0.00  0.00    +0.053 C 
BRANCH  23  24
ATOM     24  C10 <0> A   1     -13.408  12.378  45.522  0.00  0.00    +0.203 C 
ATOM     25  C11 <0> A   1     -12.163  11.827  46.222  0.00  0.00    +0.045 C 
ATOM     26  C12 <0> A   1     -12.036  12.466  47.610  0.00  0.00    +0.186 C 
ATOM     27  C13 <0> A   1     -13.294  12.137  48.424  0.00  0.00    +0.024 C 
ATOM     28  C14 <0> A   1     -14.506  12.519  47.603  0.00  0.00    +0.497 C 
ATOM     29  O1  <0> A   1     -15.396  13.182  48.080  0.00  0.00    -0.450 OA
ATOM     30  O2  <0> A   1     -14.563  12.099  46.322  0.00  0.00    -0.370 OA
BRANCH  26  31
ATOM     31  O3  <0> A   1     -11.908  13.883  47.474  0.00  0.00    -0.563 OA
ATOM     32  H19 <0> A   1     -11.774  14.348  48.311  0.00  0.00    +0.388 HD
ENDBRANCH  26  31
ENDBRANCH  23  24
ENDBRANCH  22  23
ENDBRANCH   5  22
TORSDOF 7
ENDMDL
MODEL 6
REMARK VINA RESULT:      -7.6      3.202      5.654
REMARK  Name = CHEMBL330753
REMARK  9 active torsions:
REMARK  status: ('A' for Active; 'I' for Inactive)
REMARK    1  A    between atoms: C1_1  and  C2_2
REMARK    2  A    between atoms: C2_2  and  C3_3
REMARK    3  A    between atoms: C2_2  and  C4_4
REMARK    4  A    between atoms: C6_6  and  C21_28
REMARK    5  A    between atoms: C7_7  and  C15_21
REMARK    6  A    between atoms: N1_8  and  C8_9
REMARK    7  A    between atoms: C8_9  and  C9_10
REMARK    8  A    between atoms: C9_10  and  C10_11
REMARK    9  A    between atoms: C12_14  and  O3_20
REMARK                            x       y       z     vdW  Elec       q    Type
REMARK                         _______ _______ _______ _____ _____    ______ ____
ROOT
ATOM      1  C4  <0> A   1     -14.401   6.576  45.335  0.00  0.00    +0.037 C 
ATOM      2  C5  <0> A   1     -15.148   6.850  46.422  0.00  0.00    -0.025 C 
ATOM      3  C6  <0> A   1     -14.849   8.173  46.826  0.00  0.00    -0.118 C 
ATOM      4  C7  <0> A   1     -13.903   8.658  45.937  0.00  0.00    +0.098 C 
ATOM      5  N1  <0> A   1     -13.637   7.665  45.034  0.00  0.00    -0.428 N 
ENDROOT
BRANCH   4   6
ATOM      6  C15 <0> A   1     -13.292  10.002  45.962  0.00  0.00    -0.032 A 
ATOM      7  C16 <0> A   1     -13.924  11.071  45.323  0.00  0.00    +0.040 A 
ATOM      8  C17 <0> A   1     -13.349  12.325  45.349  0.00  0.00    -0.027 A 
ATOM      9  C18 <0> A   1     -12.146  12.524  46.007  0.00  0.00    +0.106 A 
ATOM     10  C19 <0> A   1     -11.513  11.467  46.643  0.00  0.00    -0.028 A 
ATOM     11  C20 <0> A   1     -12.082  10.211  46.628  0.00  0.00    +0.130 A 
ATOM     12  F1  <0> A   1     -11.586  13.754  46.029  0.00  0.00    -0.141 F 
ENDBRANCH   4   6
BRANCH   3  13
ATOM     13  C21 <0> A   1     -15.435   8.899  47.976  0.00  0.00    +0.211 A 
ATOM     14  C22 <0> A   1     -16.226  10.027  47.751  0.00  0.00    -0.032 A 
ATOM     15  C23 <0> A   1     -16.766  10.694  48.835  0.00  0.00    +0.063 A 
ATOM     16  C24 <0> A   1     -16.500  10.213  50.111  0.00  0.00    -0.055 A 
ATOM     17  C25 <0> A   1     -15.708   9.090  50.260  0.00  0.00    +0.257 A 
ATOM     18  N2  <0> A   1     -15.209   8.468  49.211  0.00  0.00    -0.482 NA
ENDBRANCH   3  13
BRANCH   1  20
ATOM     19  C1  <0> A   1     -14.150   4.118  45.549  0.00  0.00    +0.040 C 
ATOM     20  C2  <0> A   1     -14.404   5.273  44.578  0.00  0.00    +0.048 C 
ATOM     21  C3  <0> A   1     -15.762   5.081  43.899  0.00  0.00    +0.032 C 
ENDBRANCH   1  20
BRANCH   5  22
ATOM     22  C8  <0> A   1     -12.689   7.759  43.922  0.00  0.00    +0.292 C 
BRANCH  22  23
ATOM     23  C9  <0> A   1     -13.452   7.742  42.596  0.00  0.00    +0.053 C 
BRANCH  23  24
ATOM     24  C10 <0> A   1     -13.186   9.044  41.838  0.00  0.00    +0.203 C 
ATOM     25  C11 <0> A   1     -14.172  10.118  42.305  0.00  0.00    +0.045 C 
ATOM     26  C12 <0> A   1     -13.930  11.408  41.515  0.00  0.00    +0.186 C 
ATOM     27  C13 <0> A   1     -14.126  11.119  40.021  0.00  0.00    +0.024 C 
ATOM     28  C14 <0> A   1     -13.277   9.921  39.653  0.00  0.00    +0.497 C 
ATOM     29  O1  <0> A   1     -12.550   9.947  38.689  0.00  0.00    -0.450 OA
ATOM     30  O2  <0> A   1     -13.356   8.823  40.434  0.00  0.00    -0.370 OA
BRANCH  26  31
ATOM     31  O3  <0> A   1     -12.596  11.867  41.745  0.00  0.00    -0.563 OA
ATOM     32  H19 <0> A   1     -11.951  11.540  41.103  0.00  0.00    +0.388 HD
ENDBRANCH  26  31
ENDBRANCH  23  24
ENDBRANCH  22  23
ENDBRANCH   5  22
TORSDOF 7
ENDMDL
MODEL 7
REMARK VINA RESULT:      -7.6     16.944     21.133
REMARK  Name = CHEMBL330753
REMARK  9 active torsions:
REMARK  status: ('A' for Active; 'I' for Inactive)
REMARK    1  A    between atoms: C1_1  and  C2_2
REMARK    2  A    between atoms: C2_2  and  C3_3
REMARK    3  A    between atoms: C2_2  and  C4_4
REMARK    4  A    between atoms: C6_6  and  C21_28
REMARK    5  A    between atoms: C7_7  and  C15_21
REMARK    6  A    between atoms: N1_8  and  C8_9
REMARK    7  A    between atoms: C8_9  and  C9_10
REMARK    8  A    between atoms: C9_10  and  C10_11
REMARK    9  A    between atoms: C12_14  and  O3_20
REMARK                            x       y       z     vdW  Elec       q    Type
REMARK                         _______ _______ _______ _____ _____    ______ ____
ROOT
ATOM      1  C4  <0> A   1     -24.833  -3.167  51.324  0.00  0.00    +0.037 C 
ATOM      2  C5  <0> A   1     -24.055  -4.205  50.962  0.00  0.00    -0.025 C 
ATOM      3  C6  <0> A   1     -24.827  -5.385  51.092  0.00  0.00    -0.118 C 
ATOM      4  C7  <0> A   1     -26.079  -4.996  51.542  0.00  0.00    +0.098 C 
ATOM      5  N1  <0> A   1     -26.063  -3.635  51.683  0.00  0.00    -0.428 N 
ENDROOT
BRANCH   4   6
ATOM      6  C15 <0> A   1     -27.222  -5.889  51.820  0.00  0.00    -0.032 A 
ATOM      7  C16 <0> A   1     -27.847  -6.574  50.775  0.00  0.00    +0.040 A 
ATOM      8  C17 <0> A   1     -28.914  -7.406  51.040  0.00  0.00    -0.027 A 
ATOM      9  C18 <0> A   1     -29.366  -7.564  52.341  0.00  0.00    +0.106 A 
ATOM     10  C19 <0> A   1     -28.751  -6.887  53.382  0.00  0.00    -0.028 A 
ATOM     11  C20 <0> A   1     -27.679  -6.056  53.129  0.00  0.00    +0.130 A 
ATOM     12  F1  <0> A   1     -30.412  -8.380  52.595  0.00  0.00    -0.141 F 
ENDBRANCH   4   6
BRANCH   3  13
ATOM     13  C21 <0> A   1     -24.383  -6.768  50.803  0.00  0.00    +0.211 A 
ATOM     14  C22 <0> A   1     -24.058  -7.624  51.856  0.00  0.00    -0.032 A 
ATOM     15  C23 <0> A   1     -23.645  -8.912  51.569  0.00  0.00    +0.063 A 
ATOM     16  C24 <0> A   1     -23.571  -9.305  50.239  0.00  0.00    -0.055 A 
ATOM     17  C25 <0> A   1     -23.910  -8.406  49.246  0.00  0.00    +0.257 A 
ATOM     18  N2  <0> A   1     -24.305  -7.185  49.545  0.00  0.00    -0.482 NA
ENDBRANCH   3  13
BRANCH   1  20
ATOM     19  C1  <0> A   1     -22.887  -1.636  51.471  0.00  0.00    +0.040 C 
ATOM     20  C2  <0> A   1     -24.409  -1.721  51.337  0.00  0.00    +0.048 C 
ATOM     21  C3  <0> A   1     -24.845  -1.050  50.032  0.00  0.00    +0.032 C 
ENDBRANCH   1  20
BRANCH   5  22
ATOM     22  C8  <0> A   1     -27.186  -2.814  52.141  0.00  0.00    +0.292 C 
BRANCH  22  23
ATOM     23  C9  <0> A   1     -28.142  -2.559  50.975  0.00  0.00    +0.053 C 
BRANCH  23  24
ATOM     24  C10 <0> A   1     -29.586  -2.685  51.462  0.00  0.00    +0.203 C 
ATOM     25  C11 <0> A   1     -29.680  -2.202  52.912  0.00  0.00    +0.045 C 
ATOM     26  C12 <0> A   1     -31.120  -2.368  53.410  0.00  0.00    +0.186 C 
ATOM     27  C13 <0> A   1     -31.510  -3.849  53.316  0.00  0.00    +0.024 C 
ATOM     28  C14 <0> A   1     -31.212  -4.331  51.913  0.00  0.00    +0.497 C 
ATOM     29  O1  <0> A   1     -32.036  -4.945  51.278  0.00  0.00    -0.450 OA
ATOM     30  O2  <0> A   1     -29.997  -4.055  51.392  0.00  0.00    -0.370 OA
BRANCH  26  31
ATOM     31  O3  <0> A   1     -32.000  -1.586  52.599  0.00  0.00    -0.563 OA
ATOM     32  H19 <0> A   1     -32.241  -0.734  52.988  0.00  0.00    +0.388 HD
ENDBRANCH  26  31
ENDBRANCH  23  24
ENDBRANCH  22  23
ENDBRANCH   5  22
TORSDOF 7
ENDMDL
MODEL 8
REMARK VINA RESULT:      -7.6     16.237     19.236
REMARK  Name = CHEMBL330753
REMARK  9 active torsions:
REMARK  status: ('A' for Active; 'I' for Inactive)
REMARK    1  A    between atoms: C1_1  and  C2_2
REMARK    2  A    between atoms: C2_2  and  C3_3
REMARK    3  A    between atoms: C2_2  and  C4_4
REMARK    4  A    between atoms: C6_6  and  C21_28
REMARK    5  A    between atoms: C7_7  and  C15_21
REMARK    6  A    between atoms: N1_8  and  C8_9
REMARK    7  A    between atoms: C8_9  and  C9_10
REMARK    8  A    between atoms: C9_10  and  C10_11
REMARK    9  A    between atoms: C12_14  and  O3_20
REMARK                            x       y       z     vdW  Elec       q    Type
REMARK                         _______ _______ _______ _____ _____    ______ ____
ROOT
ATOM      1  C4  <0> A   1     -27.831  -4.844  50.979  0.00  0.00    +0.037 C 
ATOM      2  C5  <0> A   1     -28.492  -3.684  50.809  0.00  0.00    -0.025 C 
ATOM      3  C6  <0> A   1     -27.585  -2.630  51.075  0.00  0.00    -0.118 C 
ATOM      4  C7  <0> A   1     -26.375  -3.219  51.405  0.00  0.00    +0.098 C 
ATOM      5  N1  <0> A   1     -26.546  -4.575  51.347  0.00  0.00    -0.428 N 
ENDROOT
BRANCH   4   6
ATOM      6  C15 <0> A   1     -25.129  -2.510  51.759  0.00  0.00    -0.032 A 
ATOM      7  C16 <0> A   1     -24.951  -2.007  53.050  0.00  0.00    +0.040 A 
ATOM      8  C17 <0> A   1     -23.786  -1.346  53.376  0.00  0.00    -0.027 A 
ATOM      9  C18 <0> A   1     -22.791  -1.180  52.425  0.00  0.00    +0.106 A 
ATOM     10  C19 <0> A   1     -22.962  -1.676  51.142  0.00  0.00    -0.028 A 
ATOM     11  C20 <0> A   1     -24.121  -2.344  50.807  0.00  0.00    +0.130 A 
ATOM     12  F1  <0> A   1     -21.652  -0.531  52.749  0.00  0.00    -0.141 F 
ENDBRANCH   4   6
BRANCH   3  13
ATOM     13  C21 <0> A   1     -27.873  -1.179  51.011  0.00  0.00    +0.211 A 
ATOM     14  C22 <0> A   1     -27.145  -0.368  50.140  0.00  0.00    -0.032 A 
ATOM     15  C23 <0> A   1     -27.426   0.986  50.092  0.00  0.00    +0.063 A 
ATOM     16  C24 <0> A   1     -28.427   1.486  50.915  0.00  0.00    -0.055 A 
ATOM     17  C25 <0> A   1     -29.109   0.624  51.753  0.00  0.00    +0.257 A 
ATOM     18  N2  <0> A   1     -28.826  -0.662  51.777  0.00  0.00    -0.482 NA
ENDBRANCH   3  13
BRANCH   1  20
ATOM     19  C1  <0> A   1     -29.707  -6.336  51.619  0.00  0.00    +0.040 C 
ATOM     20  C2  <0> A   1     -28.420  -6.220  50.800  0.00  0.00    +0.048 C 
ATOM     21  C3  <0> A   1     -28.734  -6.452  49.320  0.00  0.00    +0.032 C 
ENDBRANCH   1  20
BRANCH   5  22
ATOM     22  C8  <0> A   1     -25.513  -5.575  51.628  0.00  0.00    +0.292 C 
BRANCH  22  23
ATOM     23  C9  <0> A   1     -24.674  -5.811  50.372  0.00  0.00    +0.053 C 
BRANCH  23  24
ATOM     24  C10 <0> A   1     -25.074  -7.142  49.733  0.00  0.00    +0.203 C 
ATOM     25  C11 <0> A   1     -25.109  -8.234  50.805  0.00  0.00    +0.045 C 
ATOM     26  C12 <0> A   1     -25.470  -9.574  50.155  0.00  0.00    +0.186 C 
ATOM     27  C13 <0> A   1     -24.418  -9.907  49.089  0.00  0.00    +0.024 C 
ATOM     28  C14 <0> A   1     -24.279  -8.715  48.168  0.00  0.00    +0.497 C 
ATOM     29  O1  <0> A   1     -24.310  -8.849  46.968  0.00  0.00    -0.450 OA
ATOM     30  O2  <0> A   1     -24.118  -7.496  48.727  0.00  0.00    -0.370 OA
BRANCH  26  31
ATOM     31  O3  <0> A   1     -26.759  -9.477  49.545  0.00  0.00    -0.563 OA
ATOM     32  H19 <0> A   1     -27.412  -9.005  50.078  0.00  0.00    +0.388 HD
ENDBRANCH  26  31
ENDBRANCH  23  24
ENDBRANCH  22  23
ENDBRANCH   5  22
TORSDOF 7
ENDMDL
MODEL 9
REMARK VINA RESULT:      -7.5     16.572     20.476
REMARK  Name = CHEMBL330753
REMARK  9 active torsions:
REMARK  status: ('A' for Active; 'I' for Inactive)
REMARK    1  A    between atoms: C1_1  and  C2_2
REMARK    2  A    between atoms: C2_2  and  C3_3
REMARK    3  A    between atoms: C2_2  and  C4_4
REMARK    4  A    between atoms: C6_6  and  C21_28
REMARK    5  A    between atoms: C7_7  and  C15_21
REMARK    6  A    between atoms: N1_8  and  C8_9
REMARK    7  A    between atoms: C8_9  and  C9_10
REMARK    8  A    between atoms: C9_10  and  C10_11
REMARK    9  A    between atoms: C12_14  and  O3_20
REMARK                            x       y       z     vdW  Elec       q    Type
REMARK                         _______ _______ _______ _____ _____    ______ ____
ROOT
ATOM      1  C4  <0> A   1     -24.788  -3.084  51.362  0.00  0.00    +0.037 C 
ATOM      2  C5  <0> A   1     -24.023  -4.129  50.995  0.00  0.00    -0.025 C 
ATOM      3  C6  <0> A   1     -24.823  -5.295  51.070  0.00  0.00    -0.118 C 
ATOM      4  C7  <0> A   1     -26.079  -4.890  51.493  0.00  0.00    +0.098 C 
ATOM      5  N1  <0> A   1     -26.038  -3.534  51.672  0.00  0.00    -0.428 N 
ENDROOT
BRANCH   4   6
ATOM      6  C15 <0> A   1     -27.248  -5.764  51.714  0.00  0.00    -0.032 A 
ATOM      7  C16 <0> A   1     -27.974  -6.252  50.624  0.00  0.00    +0.040 A 
ATOM      8  C17 <0> A   1     -29.065  -7.068  50.835  0.00  0.00    -0.027 A 
ATOM      9  C18 <0> A   1     -29.442  -7.405  52.126  0.00  0.00    +0.106 A 
ATOM     10  C19 <0> A   1     -28.727  -6.923  53.211  0.00  0.00    -0.028 A 
ATOM     11  C20 <0> A   1     -27.631  -6.111  53.011  0.00  0.00    +0.130 A 
ATOM     12  F1  <0> A   1     -30.513  -8.204  52.327  0.00  0.00    -0.141 F 
ENDBRANCH   4   6
BRANCH   3  13
ATOM     13  C21 <0> A   1     -24.400  -6.678  50.756  0.00  0.00    +0.211 A 
ATOM     14  C22 <0> A   1     -24.075  -7.554  51.793  0.00  0.00    -0.032 A 
ATOM     15  C23 <0> A   1     -23.681  -8.843  51.483  0.00  0.00    +0.063 A 
ATOM     16  C24 <0> A   1     -23.627  -9.218  50.147  0.00  0.00    -0.055 A 
ATOM     17  C25 <0> A   1     -23.965  -8.299  49.171  0.00  0.00    +0.257 A 
ATOM     18  N2  <0> A   1     -24.341  -7.078  49.491  0.00  0.00    -0.482 NA
ENDBRANCH   3  13
BRANCH   1  20
ATOM     19  C1  <0> A   1     -22.826  -1.600  51.679  0.00  0.00    +0.040 C 
ATOM     20  C2  <0> A   1     -24.334  -1.648  51.427  0.00  0.00    +0.048 C 
ATOM     21  C3  <0> A   1     -24.653  -0.952  50.101  0.00  0.00    +0.032 C 
ENDBRANCH   1  20
BRANCH   5  22
ATOM     22  C8  <0> A   1     -27.156  -2.701  52.119  0.00  0.00    +0.292 C 
BRANCH  22  23
ATOM     23  C9  <0> A   1     -28.047  -2.356  50.925  0.00  0.00    +0.053 C 
BRANCH  23  24
ATOM     24  C10 <0> A   1     -28.698  -0.990  51.150  0.00  0.00    +0.203 C 
ATOM     25  C11 <0> A   1     -27.840  -0.169  52.117  0.00  0.00    +0.045 C 
ATOM     26  C12 <0> A   1     -28.516   1.183  52.373  0.00  0.00    +0.186 C 
ATOM     27  C13 <0> A   1     -29.907   0.936  52.973  0.00  0.00    +0.024 C 
ATOM     28  C14 <0> A   1     -30.643  -0.040  52.081  0.00  0.00    +0.497 C 
ATOM     29  O1  <0> A   1     -31.771   0.185  51.711  0.00  0.00    -0.450 OA
ATOM     30  O2  <0> A   1     -30.003  -1.169  51.711  0.00  0.00    -0.370 OA
BRANCH  26  31
ATOM     31  O3  <0> A   1     -28.643   1.895  51.141  0.00  0.00    -0.563 OA
ATOM     32  H19 <0> A   1     -29.300   2.604  51.161  0.00  0.00    +0.388 HD
ENDBRANCH  26  31
ENDBRANCH  23  24
ENDBRANCH  22  23
ENDBRANCH   5  22
TORSDOF 7
ENDMDL
MODEL 10
REMARK VINA RESULT:      -7.5      9.331     12.149
REMARK  Name = CHEMBL330753
REMARK  9 active torsions:
REMARK  status: ('A' for Active; 'I' for Inactive)
REMARK    1  A    between atoms: C1_1  and  C2_2
REMARK    2  A    between atoms: C2_2  and  C3_3
REMARK    3  A    between atoms: C2_2  and  C4_4
REMARK    4  A    between atoms: C6_6  and  C21_28
REMARK    5  A    between atoms: C7_7  and  C15_21
REMARK    6  A    between atoms: N1_8  and  C8_9
REMARK    7  A    between atoms: C8_9  and  C9_10
REMARK    8  A    between atoms: C9_10  and  C10_11
REMARK    9  A    between atoms: C12_14  and  O3_20
REMARK                            x       y       z     vdW  Elec       q    Type
REMARK                         _______ _______ _______ _____ _____    ______ ____
ROOT
ATOM      1  C4  <0> A   1      -5.239   4.427  47.741  0.00  0.00    +0.037 C 
ATOM      2  C5  <0> A   1      -5.700   4.096  48.962  0.00  0.00    -0.025 C 
ATOM      3  C6  <0> A   1      -4.899   4.765  49.918  0.00  0.00    -0.118 C 
ATOM      4  C7  <0> A   1      -3.957   5.495  49.211  0.00  0.00    +0.098 C 
ATOM      5  N1  <0> A   1      -4.177   5.272  47.879  0.00  0.00    -0.428 N 
ENDROOT
BRANCH   4   6
ATOM      6  C15 <0> A   1      -2.906   6.355  49.790  0.00  0.00    -0.032 A 
ATOM      7  C16 <0> A   1      -1.732   5.786  50.289  0.00  0.00    +0.040 A 
ATOM      8  C17 <0> A   1      -0.752   6.593  50.829  0.00  0.00    -0.027 A 
ATOM      9  C18 <0> A   1      -0.932   7.967  50.876  0.00  0.00    +0.106 A 
ATOM     10  C19 <0> A   1      -2.095   8.537  50.384  0.00  0.00    -0.028 A 
ATOM     11  C20 <0> A   1      -3.078   7.740  49.836  0.00  0.00    +0.130 A 
ATOM     12  F1  <0> A   1       0.030   8.753  51.407  0.00  0.00    -0.141 F 
ENDBRANCH   4   6
BRANCH   3  13
ATOM     13  C21 <0> A   1      -5.041   4.699  51.391  0.00  0.00    +0.211 A 
ATOM     14  C22 <0> A   1      -4.319   3.748  52.112  0.00  0.00    -0.032 A 
ATOM     15  C23 <0> A   1      -4.462   3.698  53.487  0.00  0.00    +0.063 A 
ATOM     16  C24 <0> A   1      -5.321   4.602  54.098  0.00  0.00    -0.055 A 
ATOM     17  C25 <0> A   1      -6.005   5.519  53.322  0.00  0.00    +0.257 A 
ATOM     18  N2  <0> A   1      -5.848   5.549  52.014  0.00  0.00    -0.482 NA
ENDBRANCH   3  13
BRANCH   1  20
ATOM     19  C1  <0> A   1      -6.633   2.674  46.674  0.00  0.00    +0.040 C 
ATOM     20  C2  <0> A   1      -5.802   3.936  46.431  0.00  0.00    +0.048 C 
ATOM     21  C3  <0> A   1      -6.688   5.022  45.818  0.00  0.00    +0.032 C 
ENDBRANCH   1  20
BRANCH   5  22
ATOM     22  C8  <0> A   1      -3.401   5.850  46.780  0.00  0.00    +0.292 C 
BRANCH  22  23
ATOM     23  C9  <0> A   1      -2.049   5.142  46.679  0.00  0.00    +0.053 C 
BRANCH  23  24
ATOM     24  C10 <0> A   1      -2.192   3.890  45.813  0.00  0.00    +0.203 C 
ATOM     25  C11 <0> A   1      -0.831   3.524  45.215  0.00  0.00    +0.045 C 
ATOM     26  C12 <0> A   1      -0.986   2.293  44.314  0.00  0.00    +0.186 C 
ATOM     27  C13 <0> A   1      -1.988   2.618  43.199  0.00  0.00    +0.024 C 
ATOM     28  C14 <0> A   1      -3.248   3.163  43.835  0.00  0.00    +0.497 C 
ATOM     29  O1  <0> A   1      -4.335   2.733  43.531  0.00  0.00    -0.450 OA
ATOM     30  O2  <0> A   1      -3.122   4.144  44.754  0.00  0.00    -0.370 OA
BRANCH  26  31
ATOM     31  O3  <0> A   1      -1.467   1.192  45.089  0.00  0.00    -0.563 OA
ATOM     32  H19 <0> A   1      -2.155   1.429  45.725  0.00  0.00    +0.388 HD
ENDBRANCH  26  31
ENDBRANCH  23  24
ENDBRANCH  22  23
ENDBRANCH   5  22
TORSDOF 7
ENDMDL
