REMARK VINA RESULT:      -7.8     15.682     20.409
REMARK  Name = CHEMBL250180
REMARK  17 active torsions:
REMARK  status: ('A' for Active; 'I' for Inactive)
REMARK    1  A    between atoms: C1_1  and  C2_2
REMARK    2  A    between atoms: C2_2  and  C3_3
REMARK    3  A    between atoms: C2_2  and  C4_4
REMARK    4  A    between atoms: C5_5  and  C19_29
REMARK    5  A    between atoms: N2_7  and  C13_22
REMARK    6  A    between atoms: C6_8  and  O1_9
REMARK    7  A    between atoms: O1_9  and  C7_10
REMARK    8  A    between atoms: C7_10  and  C8_11
REMARK    9  A    between atoms: C8_11  and  C9_13
REMARK   10  A    between atoms: C8_11  and  O5_21
REMARK   11  A    between atoms: C9_13  and  C10_14
REMARK   12  A    between atoms: C10_14  and  C11_16
REMARK   13  A    between atoms: C10_14  and  O4_20
REMARK   14  A    between atoms: C11_16  and  C12_17
REMARK   15  A    between atoms: N3_31  and  C20_32
REMARK   16  A    between atoms: C20_32  and  C21_33
REMARK   17  A    between atoms: C21_33  and  C22_34
REMARK                            x       y       z     vdW  Elec       q    Type
REMARK                         _______ _______ _______ _____ _____    ______ ____
ROOT
ATOM      1  C4  <0> A   1     -27.682  -6.908  51.009  0.00  0.00    -0.161 C 
ATOM      2  C5  <0> A   1     -28.113  -6.251  52.181  0.00  0.00    +0.044 C 
ATOM      3  N1  <0> A   1     -27.385  -5.162  52.333  0.00  0.00    -0.238 NA
ATOM      4  N2  <0> A   1     -26.475  -5.092  51.270  0.00  0.00    -0.318 N 
ATOM      5  C6  <0> A   1     -26.673  -6.178  50.473  0.00  0.00    +0.260 C 
ENDROOT
BRANCH   4   6
ATOM      6  C13 <0> A   1     -25.523  -4.084  51.066  0.00  0.00    +0.126 A 
ATOM      7  C14 <0> A   1     -24.193  -4.308  51.394  0.00  0.00    +0.064 A 
ATOM      8  C15 <0> A   1     -23.256  -3.313  51.193  0.00  0.00    +0.005 A 
ATOM      9  C16 <0> A   1     -23.644  -2.092  50.666  0.00  0.00    +0.106 A 
ATOM     10  C17 <0> A   1     -24.971  -1.867  50.339  0.00  0.00    +0.020 A 
ATOM     11  C18 <0> A   1     -25.909  -2.862  50.532  0.00  0.00    +0.073 A 
ATOM     12  F1  <0> A   1     -22.726  -1.120  50.470  0.00  0.00    -0.133 F 
ENDBRANCH   4   6
BRANCH   2  13
ATOM     13  C19 <0> A   1     -29.193  -6.705  53.082  0.00  0.00    +0.605 C 
ATOM     14  O6  <0> A   1     -28.921  -7.148  54.181  0.00  0.00    -0.514 OA
ATOM     15  N3  <0> A   1     -30.478  -6.628  52.685  0.00  0.00    -0.718 N 
ATOM     16  H22 <0> A   1     -30.695  -6.275  51.808  0.00  0.00    +0.408 HD
BRANCH  15  17
ATOM     17  C20 <0> A   1     -31.549  -7.078  53.578  0.00  0.00    +0.273 C 
BRANCH  17  18
ATOM     18  C21 <0> A   1     -32.410  -8.118  52.859  0.00  0.00    +0.070 C 
BRANCH  18  19
ATOM     19  C22 <0> A   1     -31.596  -9.361  52.608  0.00  0.00    -0.083 A 
ATOM     20  C23 <0> A   1     -31.442  -9.839  51.321  0.00  0.00    +0.009 A 
ATOM     21  C24 <0> A   1     -30.695 -10.978  51.091  0.00  0.00    +0.004 A 
ATOM     22  C25 <0> A   1     -30.099 -11.640  52.149  0.00  0.00    -0.000 A 
ATOM     23  C26 <0> A   1     -30.251 -11.161  53.437  0.00  0.00    +0.004 A 
ATOM     24  C27 <0> A   1     -30.995 -10.019  53.665  0.00  0.00    +0.009 A 
ENDBRANCH  18  19
ENDBRANCH  17  18
ENDBRANCH  15  17
ENDBRANCH   2  13
BRANCH   1  26
ATOM     25  C1  <0> A   1     -28.380  -8.076  48.937  0.00  0.00    +0.029 C 
ATOM     26  C2  <0> A   1     -28.239  -8.194  50.455  0.00  0.00    +0.077 C 
ATOM     27  C3  <0> A   1     -27.291  -9.347  50.792  0.00  0.00    +0.021 C 
ENDBRANCH   1  26
BRANCH   5  28
ATOM     28  O1  <0> A   1     -25.985  -6.475  49.341  0.00  0.00    -0.282 OA
BRANCH  28  29
ATOM     29  C7  <0> A   1     -24.757  -7.188  49.497  0.00  0.00    +0.155 C 
BRANCH  29  30
ATOM     30  C8  <0> A   1     -24.683  -8.309  48.457  0.00  0.00    +0.232 C 
BRANCH  30  31
ATOM     31  O5  <0> A   1     -23.911  -7.869  47.337  0.00  0.00    -0.529 OA
ATOM     32  H17 <0> A   1     -23.361  -8.560  46.944  0.00  0.00    +0.363 HD
ENDBRANCH  30  31
BRANCH  30  33
ATOM     33  C9  <0> A   1     -24.022  -9.540  49.080  0.00  0.00    -0.040 C 
BRANCH  33  34
ATOM     34  C10 <0> A   1     -24.630 -10.807  48.477  0.00  0.00    +0.237 C 
BRANCH  34  35
ATOM     35  O4  <0> A   1     -24.623 -10.706  47.051  0.00  0.00    -0.526 OA
ATOM     36  H16 <0> A   1     -24.132  -9.945  46.712  0.00  0.00    +0.350 HD
ENDBRANCH  34  35
BRANCH  34  37
ATOM     37  C11 <0> A   1     -23.806 -12.023  48.904  0.00  0.00    -0.101 C 
BRANCH  37  38
ATOM     38  C12 <0> A   1     -24.507 -12.733  50.033  0.00  0.00    +0.491 C 
ATOM     39  O2  <0> A   1     -25.407 -13.521  49.792  0.00  0.00    -0.680 OA
ATOM     40  O3  <0> A   1     -24.175 -12.523  51.186  0.00  0.00    -0.712 OA
ENDBRANCH  37  38
ENDBRANCH  34  37
ENDBRANCH  33  34
ENDBRANCH  30  33
ENDBRANCH  29  30
ENDBRANCH  28  29
ENDBRANCH   5  28
TORSDOF 15
