REMARK VINA RESULT:      -7.5      2.883      4.840
REMARK  Name = CHEMBL438694
REMARK  15 active torsions:
REMARK  status: ('A' for Active; 'I' for Inactive)
REMARK    1  A    between atoms: C1_1  and  C2_2
REMARK    2  A    between atoms: C2_2  and  C3_3
REMARK    3  A    between atoms: C2_2  and  N1_4
REMARK    4  A    between atoms: C4_5  and  C21_25
REMARK    5  A    between atoms: C5_6  and  C15_18
REMARK    6  A    between atoms: C6_7  and  C9_12
REMARK    7  A    between atoms: C7_8  and  C8_9
REMARK    8  A    between atoms: C21_25  and  C22_26
REMARK    9  A    between atoms: C22_26  and  C23_27
REMARK   10  A    between atoms: C23_27  and  C24_29
REMARK   11  A    between atoms: C23_27  and  O5_37
REMARK   12  A    between atoms: C24_29  and  C25_30
REMARK   13  A    between atoms: C25_30  and  C26_32
REMARK   14  A    between atoms: C25_30  and  O4_36
REMARK   15  A    between atoms: C26_32  and  C27_33
REMARK                            x       y       z     vdW  Elec       q    Type
REMARK                         _______ _______ _______ _____ _____    ______ ____
ROOT
ATOM      1  N1  <0> A   1     -13.447  10.080  46.291  0.00  0.00    -0.402 N 
ATOM      2  C4  <0> A   1     -13.761   9.013  45.519  0.00  0.00    +0.073 C 
ATOM      3  C5  <0> A   1     -14.430   8.097  46.275  0.00  0.00    -0.122 C 
ATOM      4  C6  <0> A   1     -14.538   8.627  47.587  0.00  0.00    -0.059 C 
ATOM      5  C7  <0> A   1     -13.909   9.866  47.570  0.00  0.00    -0.034 C 
ENDROOT
BRANCH   3   6
ATOM      6  C15 <0> A   1     -14.951   6.788  45.812  0.00  0.00    -0.009 A 
ATOM      7  C16 <0> A   1     -14.193   5.632  45.990  0.00  0.00    +0.050 A 
ATOM      8  C17 <0> A   1     -14.682   4.416  45.557  0.00  0.00    -0.016 A 
ATOM      9  C18 <0> A   1     -15.923   4.344  44.946  0.00  0.00    +0.095 A 
ATOM     10  C19 <0> A   1     -16.679   5.491  44.767  0.00  0.00    -0.017 A 
ATOM     11  C20 <0> A   1     -16.202   6.710  45.203  0.00  0.00    +0.056 A 
ATOM     12  F1  <0> A   1     -16.397   3.151  44.523  0.00  0.00    -0.142 F 
ENDBRANCH   3   6
BRANCH   4  13
ATOM     13  C9  <0> A   1     -15.189   7.982  48.750  0.00  0.00    -0.010 A 
ATOM     14  C10 <0> A   1     -14.426   7.258  49.667  0.00  0.00    +0.026 A 
ATOM     15  C11 <0> A   1     -15.038   6.660  50.749  0.00  0.00    +0.003 A 
ATOM     16  C12 <0> A   1     -16.406   6.776  50.925  0.00  0.00    -0.002 A 
ATOM     17  C13 <0> A   1     -17.168   7.491  50.020  0.00  0.00    +0.000 A 
ATOM     18  C14 <0> A   1     -16.566   8.100  48.936  0.00  0.00    +0.008 A 
ENDBRANCH   4  13
BRANCH   5  19
ATOM     19  C8  <0> A   1     -13.769  10.780  48.704  0.00  0.00    +0.607 C 
ATOM     20  O1  <0> A   1     -14.607  11.642  48.900  0.00  0.00    -0.522 OA
ATOM     21  N2  <0> A   1     -12.713  10.668  49.533  0.00  0.00    -0.845 N 
ATOM     22  H10 <0> A   1     -12.005  10.034  49.335  0.00  0.00    +0.404 HD
ATOM     23  H11 <0> A   1     -12.658  11.220  50.329  0.00  0.00    +0.406 HD
ENDBRANCH   5  19
BRANCH   1  25
ATOM     24  C1  <0> A   1     -11.243  10.935  45.666  0.00  0.00    +0.044 C 
ATOM     25  C2  <0> A   1     -12.725  11.272  45.838  0.00  0.00    +0.229 C 
ATOM     26  C3  <0> A   1     -13.301  11.739  44.499  0.00  0.00    +0.042 C 
ENDBRANCH   1  25
BRANCH   2  27
ATOM     27  C21 <0> A   1     -13.422   8.860  44.059  0.00  0.00    +0.117 C 
BRANCH  27  28
ATOM     28  C22 <0> A   1     -12.259   7.878  43.904  0.00  0.00    -0.007 C 
BRANCH  28  29
ATOM     29  C23 <0> A   1     -11.949   7.685  42.418  0.00  0.00    +0.212 C 
BRANCH  29  30
ATOM     30  O5  <0> A   1     -11.716   6.299  42.156  0.00  0.00    -0.542 OA
ATOM     31  H30 <0> A   1     -11.107   5.879  42.779  0.00  0.00    +0.362 HD
ENDBRANCH  29  30
BRANCH  29  32
ATOM     32  C24 <0> A   1     -13.136   8.169  41.582  0.00  0.00    -0.051 C 
BRANCH  32  33
ATOM     33  C25 <0> A   1     -12.641   9.137  40.507  0.00  0.00    +0.230 C 
BRANCH  33  34
ATOM     34  O4  <0> A   1     -13.243   8.807  39.254  0.00  0.00    -0.528 OA
ATOM     35  H29 <0> A   1     -13.583   7.903  39.208  0.00  0.00    +0.349 HD
ENDBRANCH  33  34
BRANCH  33  36
ATOM     36  C26 <0> A   1     -13.023  10.568  40.894  0.00  0.00    -0.103 C 
BRANCH  36  37
ATOM     37  C27 <0> A   1     -13.681  11.247  39.721  0.00  0.00    +0.490 C 
ATOM     38  O2  <0> A   1     -12.997  11.772  38.858  0.00  0.00    -0.681 OA
ATOM     39  O3  <0> A   1     -14.897  11.272  39.634  0.00  0.00    -0.713 OA
ENDBRANCH  36  37
ENDBRANCH  33  36
ENDBRANCH  32  33
ENDBRANCH  29  32
ENDBRANCH  28  29
ENDBRANCH  27  28
ENDBRANCH   2  27
TORSDOF 13
