REMARK VINA RESULT:      -8.5      4.113      8.997
REMARK  Name = CHEMBL154699
REMARK  6 active torsions:
REMARK  status: ('A' for Active; 'I' for Inactive)
REMARK    1  A    between atoms: C4_4  and  C7_7
REMARK    2  A    between atoms: C9_9  and  C25_30
REMARK    3  A    between atoms: C10_10  and  C18_19
REMARK    4  A    between atoms: C11_11  and  C12_13
REMARK    5  A    between atoms: C19_20  and  C20_21
REMARK    6  A    between atoms: C22_23  and  O3_29
REMARK                            x       y       z     vdW  Elec       q    Type
REMARK                         _______ _______ _______ _____ _____    ______ ____
ROOT
ATOM      1  C7  <0> A   1     -25.439  -6.040  51.294  0.00  0.00    +0.178 A 
ATOM      2  C8  <0> A   1     -24.890  -4.766  51.183  0.00  0.00    -0.015 A 
ATOM      3  C9  <0> A   1     -25.660  -3.663  51.546  0.00  0.00    +0.012 A 
ATOM      4  C10 <0> A   1     -26.973  -3.891  52.012  0.00  0.00    -0.099 A 
ATOM      5  C11 <0> A   1     -27.442  -5.203  52.090  0.00  0.00    +0.164 A 
ATOM      6  N1  <0> A   1     -26.681  -6.214  51.733  0.00  0.00    -0.467 NA
ENDROOT
BRANCH   3   7
ATOM      7  C25 <0> A   1     -25.118  -2.288  51.445  0.00  0.00    -0.066 A 
ATOM      8  C26 <0> A   1     -24.513  -1.690  52.550  0.00  0.00    +0.075 A 
ATOM      9  C27 <0> A   1     -24.010  -0.410  52.449  0.00  0.00    -0.013 A 
ATOM     10  C28 <0> A   1     -24.103   0.281  51.252  0.00  0.00    +0.109 A 
ATOM     11  C29 <0> A   1     -24.703  -0.308  50.151  0.00  0.00    -0.013 A 
ATOM     12  C30 <0> A   1     -25.204  -1.590  50.240  0.00  0.00    +0.061 A 
ATOM     13  F1  <0> A   1     -23.609   1.535  51.160  0.00  0.00    -0.136 F 
ENDBRANCH   3   7
BRANCH   1  17
ATOM     14  C1  <0> A   1     -23.115  -9.426  50.195  0.00  0.00    +0.017 A 
ATOM     15  C2  <0> A   1     -23.371  -9.170  51.530  0.00  0.00    +0.000 A 
ATOM     16  C3  <0> A   1     -24.124  -8.073  51.893  0.00  0.00    +0.057 A 
ATOM     17  C4  <0> A   1     -24.628  -7.221  50.911  0.00  0.00    -0.052 A 
ATOM     18  C5  <0> A   1     -24.367  -7.484  49.568  0.00  0.00    +0.024 A 
ATOM     19  C6  <0> A   1     -23.612  -8.584  49.216  0.00  0.00    +0.003 A 
ENDBRANCH   1  17
BRANCH   5  20
ATOM     20  C12 <0> A   1     -28.841  -5.463  52.587  0.00  0.00    +0.054 C 
ATOM     21  C13 <0> A   1     -28.789  -6.416  53.783  0.00  0.00    +0.026 C 
ATOM     22  C14 <0> A   1     -30.210  -6.681  54.287  0.00  0.00    +0.005 C 
ATOM     23  C15 <0> A   1     -31.038  -7.314  53.166  0.00  0.00    +0.003 C 
ATOM     24  C16 <0> A   1     -31.090  -6.362  51.970  0.00  0.00    +0.006 C 
ATOM     25  C17 <0> A   1     -29.669  -6.096  51.467  0.00  0.00    +0.025 C 
ENDBRANCH   5  20
BRANCH   4  26
ATOM     26  C18 <0> A   1     -27.835  -2.762  52.410  0.00  0.00    +0.049 C 
ATOM     27  C19 <0> A   1     -28.598  -2.160  51.507  0.00  0.00    -0.012 C 
BRANCH  27  28
ATOM     28  C20 <0> A   1     -29.478  -1.005  51.913  0.00  0.00    +0.242 C 
ATOM     29  C21 <0> A   1     -28.882  -0.316  53.143  0.00  0.00    +0.050 C 
ATOM     30  C22 <0> A   1     -29.800   0.830  53.577  0.00  0.00    +0.186 C 
ATOM     31  C23 <0> A   1     -31.184   0.260  53.908  0.00  0.00    +0.024 C 
ATOM     32  C24 <0> A   1     -31.644  -0.578  52.735  0.00  0.00    +0.498 C 
ATOM     33  O1  <0> A   1     -32.747  -0.436  52.264  0.00  0.00    -0.450 OA
ATOM     34  O2  <0> A   1     -30.788  -1.491  52.231  0.00  0.00    -0.369 OA
BRANCH  30  35
ATOM     35  O3  <0> A   1     -29.912   1.782  52.517  0.00  0.00    -0.563 OA
ATOM     36  H26 <0> A   1     -30.514   1.513  51.809  0.00  0.00    +0.387 HD
ENDBRANCH  30  35
ENDBRANCH  27  28
ENDBRANCH   4  26
TORSDOF 6
