REMARK VINA RESULT:      -8.7      0.000      0.000
REMARK  Name = CHEMBL488471
REMARK  15 active torsions:
REMARK  status: ('A' for Active; 'I' for Inactive)
REMARK    1  A    between atoms: C1_1  and  C2_2
REMARK    2  A    between atoms: C2_2  and  C3_3
REMARK    3  A    between atoms: C4_4  and  C19_26
REMARK    4  A    between atoms: N1_7  and  C7_8
REMARK    5  A    between atoms: C7_8  and  C8_9
REMARK    6  A    between atoms: C8_9  and  C9_10
REMARK    7  A    between atoms: C9_10  and  C10_12
REMARK    8  A    between atoms: C9_10  and  O4_20
REMARK    9  A    between atoms: C10_12  and  C11_13
REMARK   10  A    between atoms: C11_13  and  C12_15
REMARK   11  A    between atoms: C11_13  and  O3_19
REMARK   12  A    between atoms: C12_15  and  C13_16
REMARK   13  A    between atoms: N2_28  and  C20_29
REMARK   14  A    between atoms: C20_29  and  C21_30
REMARK   15  A    between atoms: C24_33  and  C27_36
REMARK                            x       y       z     vdW  Elec       q    Type
REMARK                         _______ _______ _______ _____ _____    ______ ____
ROOT
ATOM      1  C3  <0> A   1     -10.868   7.699  45.914  0.00  0.00    +0.082 C 
ATOM      2  C4  <0> A   1     -11.184   6.729  46.826  0.00  0.00    -0.225 C 
ATOM      3  C5  <0> A   1     -12.642   6.614  46.802  0.00  0.00    -0.124 C 
ATOM      4  C6  <0> A   1     -13.086   7.501  45.893  0.00  0.00    +0.025 C 
ATOM      5  N1  <0> A   1     -12.011   8.160  45.370  0.00  0.00    -0.427 N 
ATOM      6  C14 <0> A   1     -14.532   7.715  45.519  0.00  0.00    +0.101 C 
ATOM      7  C15 <0> A   1     -15.375   7.825  46.791  0.00  0.00    +0.019 C 
ATOM      8  C16 <0> A   1     -15.842   6.437  47.223  0.00  0.00    +0.003 C 
ATOM      9  C17 <0> A   1     -14.790   5.384  46.883  0.00  0.00    +0.010 C 
ATOM     10  C18 <0> A   1     -13.493   5.696  47.637  0.00  0.00    +0.088 C 
ENDROOT
BRANCH   2  11
ATOM     11  C19 <0> A   1     -10.247   5.956  47.660  0.00  0.00    +0.603 C 
ATOM     12  O5  <0> A   1     -10.053   6.281  48.815  0.00  0.00    -0.539 OA
ATOM     13  N2  <0> A   1      -9.606   4.890  47.142  0.00  0.00    -0.723 N 
ATOM     14  H28 <0> A   1      -9.762   4.630  46.221  0.00  0.00    +0.403 HD
BRANCH  13  15
ATOM     15  C20 <0> A   1      -8.675   4.123  47.972  0.00  0.00    +0.312 C 
BRANCH  15  16
ATOM     16  C21 <0> A   1      -7.372   3.948  47.236  0.00  0.00    -0.105 A 
ATOM     17  C22 <0> A   1      -6.187   4.349  47.827  0.00  0.00    +0.031 A 
ATOM     18  C23 <0> A   1      -4.991   4.190  47.157  0.00  0.00    +0.015 A 
ATOM     19  C24 <0> A   1      -4.977   3.625  45.883  0.00  0.00    -0.038 A 
ATOM     20  C25 <0> A   1      -6.174   3.223  45.293  0.00  0.00    +0.016 A 
ATOM     21  C26 <0> A   1      -7.364   3.381  45.974  0.00  0.00    +0.031 A 
BRANCH  19  22
ATOM     22  C27 <0> A   1      -3.694   3.453  45.158  0.00  0.00    -0.048 A 
ATOM     23  C28 <0> A   1      -2.495   3.828  45.761  0.00  0.00    +0.015 A 
ATOM     24  C29 <0> A   1      -1.305   3.665  45.082  0.00  0.00    +0.006 A 
ATOM     25  C30 <0> A   1      -1.300   3.131  43.806  0.00  0.00    +0.005 A 
ATOM     26  C31 <0> A   1      -2.488   2.757  43.203  0.00  0.00    +0.007 A 
ATOM     27  C32 <0> A   1      -3.683   2.910  43.876  0.00  0.00    +0.016 A 
ENDBRANCH  19  22
ENDBRANCH  15  16
ENDBRANCH  13  15
ENDBRANCH   2  11
BRANCH   1  29
ATOM     28  C1  <0> A   1      -8.846   7.229  44.557  0.00  0.00    +0.031 C 
ATOM     29  C2  <0> A   1      -9.478   8.176  45.580  0.00  0.00    +0.095 C 
ENDBRANCH   1  29
BRANCH   5  30
ATOM     30  C7  <0> A   1     -12.089   9.216  44.356  0.00  0.00    +0.290 C 
BRANCH  30  31
ATOM     31  C8  <0> A   1     -12.346  10.561  45.039  0.00  0.00    -0.017 C 
BRANCH  31  32
ATOM     32  C9  <0> A   1     -13.433  11.320  44.275  0.00  0.00    +0.216 C 
BRANCH  32  33
ATOM     33  O4  <0> A   1     -12.952  12.622  43.931  0.00  0.00    -0.541 OA
ATOM     34  H17 <0> A   1     -13.600  13.170  43.466  0.00  0.00    +0.366 HD
ENDBRANCH  32  33
BRANCH  32  35
ATOM     35  C10 <0> A   1     -13.789  10.555  42.999  0.00  0.00    -0.048 C 
BRANCH  35  36
ATOM     36  C11 <0> A   1     -13.289  11.333  41.781  0.00  0.00    +0.231 C 
BRANCH  36  37
ATOM     37  O3  <0> A   1     -11.953  10.927  41.472  0.00  0.00    -0.528 OA
ATOM     38  H16 <0> A   1     -11.440  11.595  40.997  0.00  0.00    +0.350 HD
ENDBRANCH  36  37
BRANCH  36  39
ATOM     39  C12 <0> A   1     -14.197  11.047  40.584  0.00  0.00    -0.102 C 
BRANCH  39  40
ATOM     40  C13 <0> A   1     -13.387  11.093  39.314  0.00  0.00    +0.490 C 
ATOM     41  O1  <0> A   1     -13.228  12.153  38.732  0.00  0.00    -0.681 OA
ATOM     42  O2  <0> A   1     -12.890  10.073  38.869  0.00  0.00    -0.713 OA
ENDBRANCH  39  40
ENDBRANCH  36  39
ENDBRANCH  35  36
ENDBRANCH  32  35
ENDBRANCH  31  32
ENDBRANCH  30  31
ENDBRANCH   5  30
TORSDOF 14
