REMARK VINA RESULT:      -8.2      2.743      8.862
REMARK  Name = CHEMBL254036
REMARK  16 active torsions:
REMARK  status: ('A' for Active; 'I' for Inactive)
REMARK    1  A    between atoms: C1_1  and  C2_2
REMARK    2  A    between atoms: C2_2  and  C3_3
REMARK    3  A    between atoms: C2_2  and  C4_4
REMARK    4  A    between atoms: C5_5  and  C21_26
REMARK    5  A    between atoms: N2_7  and  C15_19
REMARK    6  A    between atoms: C6_8  and  C7_9
REMARK    7  A    between atoms: N3_11  and  C8_12
REMARK    8  A    between atoms: C8_12  and  C9_13
REMARK    9  A    between atoms: C21_26  and  C22_27
REMARK   10  A    between atoms: C22_27  and  C23_28
REMARK   11  A    between atoms: C23_28  and  C24_30
REMARK   12  A    between atoms: C23_28  and  O5_38
REMARK   13  A    between atoms: C24_30  and  C25_31
REMARK   14  A    between atoms: C25_31  and  C26_33
REMARK   15  A    between atoms: C25_31  and  O4_37
REMARK   16  A    between atoms: C26_33  and  C27_34
REMARK                            x       y       z     vdW  Elec       q    Type
REMARK                         _______ _______ _______ _____ _____    ______ ____
ROOT
ATOM      1  C4  <0> A   1     -15.403   6.730  46.006  0.00  0.00    -0.123 C 
ATOM      2  C5  <0> A   1     -16.074   7.320  47.080  0.00  0.00    +0.056 C 
ATOM      3  N1  <0> A   1     -15.575   8.518  47.256  0.00  0.00    -0.273 NA
ATOM      4  N2  <0> A   1     -14.648   8.760  46.401  0.00  0.00    -0.230 N 
ATOM      5  C6  <0> A   1     -14.482   7.675  45.585  0.00  0.00    -0.035 C 
ENDROOT
BRANCH   4   6
ATOM      6  C15 <0> A   1     -13.916   9.952  46.318  0.00  0.00    +0.120 A 
ATOM      7  C16 <0> A   1     -14.216  10.885  45.335  0.00  0.00    +0.057 A 
ATOM      8  C17 <0> A   1     -13.493  12.059  45.254  0.00  0.00    +0.015 A 
ATOM      9  C18 <0> A   1     -12.469  12.305  46.155  0.00  0.00    +0.109 A 
ATOM     10  C19 <0> A   1     -12.168  11.375  47.135  0.00  0.00    +0.012 A 
ATOM     11  C20 <0> A   1     -12.892  10.202  47.222  0.00  0.00    +0.080 A 
ATOM     12  F1  <0> A   1     -11.762  13.453  46.074  0.00  0.00    -0.132 F 
ENDBRANCH   4   6
BRANCH   5  13
ATOM     13  C7  <0> A   1     -13.521   7.539  44.480  0.00  0.00    +0.602 C 
ATOM     14  O1  <0> A   1     -12.365   7.242  44.713  0.00  0.00    -0.514 OA
ATOM     15  N3  <0> A   1     -13.921   7.743  43.209  0.00  0.00    -0.713 N 
ATOM     16  H10 <0> A   1     -14.823   8.052  43.028  0.00  0.00    +0.405 HD
BRANCH  15  17
ATOM     17  C8  <0> A   1     -12.995   7.500  42.102  0.00  0.00    +0.324 C 
BRANCH  17  18
ATOM     18  C9  <0> A   1     -12.972   8.701  41.192  0.00  0.00    -0.112 A 
ATOM     19  C10 <0> A   1     -12.695   8.544  39.847  0.00  0.00    +0.027 A 
ATOM     20  C11 <0> A   1     -12.674   9.647  39.012  0.00  0.00    +0.004 A 
ATOM     21  C12 <0> A   1     -12.932  10.905  39.523  0.00  0.00    +0.014 A 
ATOM     22  C13 <0> A   1     -13.210  11.061  40.868  0.00  0.00    +0.002 A 
ATOM     23  C14 <0> A   1     -13.235   9.959  41.702  0.00  0.00    +0.024 A 
ENDBRANCH  17  18
ENDBRANCH  15  17
ENDBRANCH   5  13
BRANCH   1  25
ATOM     24  C1  <0> A   1     -16.218   5.481  44.026  0.00  0.00    +0.023 C 
ATOM     25  C2  <0> A   1     -15.630   5.355  45.432  0.00  0.00    +0.066 C 
ATOM     26  C3  <0> A   1     -14.299   4.605  45.363  0.00  0.00    +0.030 C 
ENDBRANCH   1  25
BRANCH   2  27
ATOM     27  C21 <0> A   1     -17.175   6.690  47.893  0.00  0.00    +0.141 C 
BRANCH  27  28
ATOM     28  C22 <0> A   1     -18.522   6.950  47.216  0.00  0.00    -0.007 C 
BRANCH  28  29
ATOM     29  C23 <0> A   1     -19.638   6.892  48.260  0.00  0.00    +0.212 C 
BRANCH  29  30
ATOM     30  O5  <0> A   1     -20.519   5.809  47.955  0.00  0.00    -0.542 OA
ATOM     31  H31 <0> A   1     -20.900   5.850  47.068  0.00  0.00    +0.364 HD
ENDBRANCH  29  30
BRANCH  29  32
ATOM     32  C24 <0> A   1     -19.027   6.677  49.647  0.00  0.00    -0.052 C 
BRANCH  32  33
ATOM     33  C25 <0> A   1     -19.991   7.200  50.715  0.00  0.00    +0.230 C 
BRANCH  33  34
ATOM     34  O4  <0> A   1     -21.167   7.710  50.086  0.00  0.00    -0.528 OA
ATOM     35  H30 <0> A   1     -21.254   8.672  50.135  0.00  0.00    +0.350 HD
ENDBRANCH  33  34
BRANCH  33  36
ATOM     36  C26 <0> A   1     -20.372   6.058  51.660  0.00  0.00    -0.103 C 
BRANCH  36  37
ATOM     37  C27 <0> A   1     -21.708   5.494  51.254  0.00  0.00    +0.490 C 
ATOM     38  O2  <0> A   1     -21.773   4.652  50.375  0.00  0.00    -0.681 OA
ATOM     39  O3  <0> A   1     -22.725   5.880  51.804  0.00  0.00    -0.714 OA
ENDBRANCH  36  37
ENDBRANCH  33  36
ENDBRANCH  32  33
ENDBRANCH  29  32
ENDBRANCH  28  29
ENDBRANCH  27  28
ENDBRANCH   2  27
TORSDOF 14
