MODEL 1
REMARK VINA RESULT:      -8.4      0.000      0.000
REMARK  Name = CHEMBL488297
REMARK  16 active torsions:
REMARK  status: ('A' for Active; 'I' for Inactive)
REMARK    1  A    between atoms: C1_1  and  C2_2
REMARK    2  A    between atoms: C2_2  and  C3_3
REMARK    3  A    between atoms: C2_2  and  C4_4
REMARK    4  A    between atoms: C5_5  and  C20_30
REMARK    5  A    between atoms: C6_7  and  C14_22
REMARK    6  A    between atoms: N2_8  and  C7_9
REMARK    7  A    between atoms: C7_9  and  C8_10
REMARK    8  A    between atoms: C8_10  and  C9_11
REMARK    9  A    between atoms: C9_11  and  C10_13
REMARK   10  A    between atoms: C9_11  and  O4_21
REMARK   11  A    between atoms: C10_13  and  C11_14
REMARK   12  A    between atoms: C11_14  and  C12_16
REMARK   13  A    between atoms: C11_14  and  O3_20
REMARK   14  A    between atoms: C12_16  and  C13_17
REMARK   15  A    between atoms: N3_32  and  C21_33
REMARK   16  A    between atoms: C21_33  and  C22_34
REMARK                            x       y       z     vdW  Elec       q    Type
REMARK                         _______ _______ _______ _____ _____    ______ ____
ROOT
ATOM      1  C4  <0> A   1     -15.959   6.701  46.173  0.00  0.00    +0.096 C 
ATOM      2  C5  <0> A   1     -16.933   7.463  46.750  0.00  0.00    -0.063 C 
ATOM      3  N1  <0> A   1     -16.424   8.694  46.965  0.00  0.00    -0.441 NA
ATOM      4  C6  <0> A   1     -15.182   8.723  46.547  0.00  0.00    +0.240 C 
ATOM      5  N2  <0> A   1     -14.858   7.490  46.051  0.00  0.00    -0.433 N 
ENDROOT
BRANCH   4   6
ATOM      6  C14 <0> A   1     -14.278   9.892  46.607  0.00  0.00    +0.011 A 
ATOM      7  C15 <0> A   1     -13.447  10.079  47.712  0.00  0.00    +0.042 A 
ATOM      8  C16 <0> A   1     -12.605  11.171  47.764  0.00  0.00    +0.042 A 
ATOM      9  C17 <0> A   1     -12.583  12.082  46.721  0.00  0.00    +0.077 A 
ATOM     10  C18 <0> A   1     -13.407  11.901  45.618  0.00  0.00    +0.073 A 
ATOM     11  C19 <0> A   1     -14.248  10.809  45.555  0.00  0.00    +0.069 A 
ATOM     12  F1  <0> A   1     -13.381  12.794  44.604  0.00  0.00    -0.124 F 
ATOM     13  F2  <0> A   1     -11.757  13.149  46.778  0.00  0.00    -0.123 F 
ENDBRANCH   4   6
BRANCH   2  14
ATOM     14  C20 <0> A   1     -18.300   7.021  47.079  0.00  0.00    +0.610 C 
ATOM     15  O5  <0> A   1     -19.154   6.992  46.215  0.00  0.00    -0.540 OA
ATOM     16  N3  <0> A   1     -18.602   6.647  48.339  0.00  0.00    -0.714 N 
ATOM     17  H23 <0> A   1     -17.920   6.669  49.028  0.00  0.00    +0.410 HD
BRANCH  16  18
ATOM     18  C21 <0> A   1     -19.960   6.207  48.665  0.00  0.00    +0.318 C 
BRANCH  18  19
ATOM     19  C22 <0> A   1     -19.898   4.907  49.425  0.00  0.00    -0.109 A 
ATOM     20  C23 <0> A   1     -18.673   4.352  49.746  0.00  0.00    +0.024 A 
ATOM     21  C24 <0> A   1     -18.616   3.159  50.443  0.00  0.00    +0.001 A 
ATOM     22  C25 <0> A   1     -19.784   2.522  50.819  0.00  0.00    +0.010 A 
ATOM     23  C26 <0> A   1     -21.009   3.077  50.498  0.00  0.00    +0.002 A 
ATOM     24  C27 <0> A   1     -21.065   4.272  49.805  0.00  0.00    +0.025 A 
ENDBRANCH  18  19
ENDBRANCH  16  18
ENDBRANCH   2  14
BRANCH   1  26
ATOM     25  C1  <0> A   1     -16.293   5.181  44.243  0.00  0.00    +0.033 C 
ATOM     26  C2  <0> A   1     -16.078   5.258  45.755  0.00  0.00    +0.086 C 
ATOM     27  C3  <0> A   1     -14.796   4.512  46.127  0.00  0.00    +0.035 C 
ENDBRANCH   1  26
BRANCH   5  28
ATOM     28  C7  <0> A   1     -13.565   7.094  45.488  0.00  0.00    +0.305 C 
BRANCH  28  29
ATOM     29  C8  <0> A   1     -13.522   7.455  44.003  0.00  0.00    -0.015 C 
BRANCH  29  30
ATOM     30  C9  <0> A   1     -12.263   8.271  43.711  0.00  0.00    +0.219 C 
BRANCH  30  31
ATOM     31  O4  <0> A   1     -11.111   7.544  44.145  0.00  0.00    -0.538 OA
ATOM     32  H19 <0> A   1     -10.396   7.516  43.495  0.00  0.00    +0.367 HD
ENDBRANCH  30  31
BRANCH  30  33
ATOM     33  C10 <0> A   1     -12.162   8.536  42.208  0.00  0.00    -0.046 C 
BRANCH  33  34
ATOM     34  C11 <0> A   1     -12.988   9.773  41.849  0.00  0.00    +0.232 C 
BRANCH  34  35
ATOM     35  O3  <0> A   1     -12.257  10.950  42.198  0.00  0.00    -0.528 OA
ATOM     36  H18 <0> A   1     -11.399  11.026  41.757  0.00  0.00    +0.351 HD
ENDBRANCH  34  35
BRANCH  34  37
ATOM     37  C12 <0> A   1     -13.275   9.776  40.347  0.00  0.00    -0.102 C 
BRANCH  37  38
ATOM     38  C13 <0> A   1     -13.369  11.199  39.858  0.00  0.00    +0.490 C 
ATOM     39  O1  <0> A   1     -14.393  11.837  40.029  0.00  0.00    -0.681 OA
ATOM     40  O2  <0> A   1     -12.419  11.712  39.291  0.00  0.00    -0.712 OA
ENDBRANCH  37  38
ENDBRANCH  34  37
ENDBRANCH  33  34
ENDBRANCH  30  33
ENDBRANCH  29  30
ENDBRANCH  28  29
ENDBRANCH   5  28
TORSDOF 14
ENDMDL
MODEL 2
REMARK VINA RESULT:      -8.3      1.499      2.157
REMARK  Name = CHEMBL488297
REMARK  16 active torsions:
REMARK  status: ('A' for Active; 'I' for Inactive)
REMARK    1  A    between atoms: C1_1  and  C2_2
REMARK    2  A    between atoms: C2_2  and  C3_3
REMARK    3  A    between atoms: C2_2  and  C4_4
REMARK    4  A    between atoms: C5_5  and  C20_30
REMARK    5  A    between atoms: C6_7  and  C14_22
REMARK    6  A    between atoms: N2_8  and  C7_9
REMARK    7  A    between atoms: C7_9  and  C8_10
REMARK    8  A    between atoms: C8_10  and  C9_11
REMARK    9  A    between atoms: C9_11  and  C10_13
REMARK   10  A    between atoms: C9_11  and  O4_21
REMARK   11  A    between atoms: C10_13  and  C11_14
REMARK   12  A    between atoms: C11_14  and  C12_16
REMARK   13  A    between atoms: C11_14  and  O3_20
REMARK   14  A    between atoms: C12_16  and  C13_17
REMARK   15  A    between atoms: N3_32  and  C21_33
REMARK   16  A    between atoms: C21_33  and  C22_34
REMARK                            x       y       z     vdW  Elec       q    Type
REMARK                         _______ _______ _______ _____ _____    ______ ____
ROOT
ATOM      1  C4  <0> A   1     -15.149   6.872  45.689  0.00  0.00    +0.096 C 
ATOM      2  C5  <0> A   1     -16.068   7.483  46.491  0.00  0.00    -0.063 C 
ATOM      3  N1  <0> A   1     -15.658   8.752  46.700  0.00  0.00    -0.441 NA
ATOM      4  C6  <0> A   1     -14.529   8.947  46.063  0.00  0.00    +0.240 C 
ATOM      5  N2  <0> A   1     -14.180   7.789  45.425  0.00  0.00    -0.433 N 
ENDROOT
BRANCH   4   6
ATOM      6  C14 <0> A   1     -13.757  10.209  46.041  0.00  0.00    +0.011 A 
ATOM      7  C15 <0> A   1     -12.884  10.513  47.086  0.00  0.00    +0.042 A 
ATOM      8  C16 <0> A   1     -12.166  11.691  47.063  0.00  0.00    +0.042 A 
ATOM      9  C17 <0> A   1     -12.311  12.573  46.004  0.00  0.00    +0.077 A 
ATOM     10  C18 <0> A   1     -13.178  12.275  44.962  0.00  0.00    +0.073 A 
ATOM     11  C19 <0> A   1     -13.896  11.096  44.974  0.00  0.00    +0.069 A 
ATOM     12  F1  <0> A   1     -13.315  13.139  43.932  0.00  0.00    -0.124 F 
ATOM     13  F2  <0> A   1     -11.605  13.724  45.987  0.00  0.00    -0.123 F 
ENDBRANCH   4   6
BRANCH   2  14
ATOM     14  C20 <0> A   1     -17.292   6.868  47.033  0.00  0.00    +0.610 C 
ATOM     15  O5  <0> A   1     -18.258   6.699  46.314  0.00  0.00    -0.540 OA
ATOM     16  N3  <0> A   1     -17.342   6.491  48.327  0.00  0.00    -0.714 N 
ATOM     17  H23 <0> A   1     -16.571   6.625  48.901  0.00  0.00    +0.410 HD
BRANCH  16  18
ATOM     18  C21 <0> A   1     -18.558   5.878  48.865  0.00  0.00    +0.318 C 
BRANCH  18  19
ATOM     19  C22 <0> A   1     -19.257   6.860  49.769  0.00  0.00    -0.109 A 
ATOM     20  C23 <0> A   1     -18.702   8.105  49.999  0.00  0.00    +0.024 A 
ATOM     21  C24 <0> A   1     -19.343   9.006  50.829  0.00  0.00    +0.001 A 
ATOM     22  C25 <0> A   1     -20.540   8.662  51.428  0.00  0.00    +0.010 A 
ATOM     23  C26 <0> A   1     -21.096   7.417  51.198  0.00  0.00    +0.002 A 
ATOM     24  C27 <0> A   1     -20.457   6.519  50.365  0.00  0.00    +0.025 A 
ENDBRANCH  18  19
ENDBRANCH  16  18
ENDBRANCH   2  14
BRANCH   1  26
ATOM     25  C1  <0> A   1     -15.452   4.508  46.373  0.00  0.00    +0.033 C 
ATOM     26  C2  <0> A   1     -15.195   5.449  45.195  0.00  0.00    +0.086 C 
ATOM     27  C3  <0> A   1     -16.320   5.301  44.169  0.00  0.00    +0.035 C 
ENDBRANCH   1  26
BRANCH   5  28
ATOM     28  C7  <0> A   1     -12.985   7.577  44.605  0.00  0.00    +0.305 C 
BRANCH  28  29
ATOM     29  C8  <0> A   1     -13.340   7.754  43.129  0.00  0.00    -0.015 C 
BRANCH  29  30
ATOM     30  C9  <0> A   1     -12.101   7.494  42.270  0.00  0.00    +0.219 C 
BRANCH  30  31
ATOM     31  O4  <0> A   1     -11.888   6.085  42.156  0.00  0.00    -0.538 OA
ATOM     32  H19 <0> A   1     -11.243   5.733  42.785  0.00  0.00    +0.367 HD
ENDBRANCH  30  31
BRANCH  30  33
ATOM     33  C10 <0> A   1     -12.309   8.093  40.878  0.00  0.00    -0.046 C 
BRANCH  33  34
ATOM     34  C11 <0> A   1     -12.905   9.497  41.009  0.00  0.00    +0.232 C 
BRANCH  34  35
ATOM     35  O3  <0> A   1     -11.849  10.452  41.127  0.00  0.00    -0.528 OA
ATOM     36  H18 <0> A   1     -12.095  11.346  40.850  0.00  0.00    +0.351 HD
ENDBRANCH  34  35
BRANCH  34  37
ATOM     37  C12 <0> A   1     -13.744   9.812  39.769  0.00  0.00    -0.102 C 
BRANCH  37  38
ATOM     38  C13 <0> A   1     -13.859  11.306  39.609  0.00  0.00    +0.490 C 
ATOM     39  O1  <0> A   1     -13.233  11.875  38.733  0.00  0.00    -0.681 OA
ATOM     40  O2  <0> A   1     -14.580  11.945  40.357  0.00  0.00    -0.712 OA
ENDBRANCH  37  38
ENDBRANCH  34  37
ENDBRANCH  33  34
ENDBRANCH  30  33
ENDBRANCH  29  30
ENDBRANCH  28  29
ENDBRANCH   5  28
TORSDOF 14
ENDMDL
MODEL 3
REMARK VINA RESULT:      -8.0      4.122      7.470
REMARK  Name = CHEMBL488297
REMARK  16 active torsions:
REMARK  status: ('A' for Active; 'I' for Inactive)
REMARK    1  A    between atoms: C1_1  and  C2_2
REMARK    2  A    between atoms: C2_2  and  C3_3
REMARK    3  A    between atoms: C2_2  and  C4_4
REMARK    4  A    between atoms: C5_5  and  C20_30
REMARK    5  A    between atoms: C6_7  and  C14_22
REMARK    6  A    between atoms: N2_8  and  C7_9
REMARK    7  A    between atoms: C7_9  and  C8_10
REMARK    8  A    between atoms: C8_10  and  C9_11
REMARK    9  A    between atoms: C9_11  and  C10_13
REMARK   10  A    between atoms: C9_11  and  O4_21
REMARK   11  A    between atoms: C10_13  and  C11_14
REMARK   12  A    between atoms: C11_14  and  C12_16
REMARK   13  A    between atoms: C11_14  and  O3_20
REMARK   14  A    between atoms: C12_16  and  C13_17
REMARK   15  A    between atoms: N3_32  and  C21_33
REMARK   16  A    between atoms: C21_33  and  C22_34
REMARK                            x       y       z     vdW  Elec       q    Type
REMARK                         _______ _______ _______ _____ _____    ______ ____
ROOT
ATOM      1  C4  <0> A   1     -11.866   7.381  46.069  0.00  0.00    +0.096 C 
ATOM      2  C5  <0> A   1     -11.862   6.512  47.121  0.00  0.00    -0.063 C 
ATOM      3  N1  <0> A   1     -13.143   6.297  47.486  0.00  0.00    -0.441 NA
ATOM      4  C6  <0> A   1     -13.933   6.994  46.706  0.00  0.00    +0.240 C 
ATOM      5  N2  <0> A   1     -13.166   7.688  45.813  0.00  0.00    -0.433 N 
ENDROOT
BRANCH   4   6
ATOM      6  C14 <0> A   1     -15.410   7.030  46.783  0.00  0.00    +0.011 A 
ATOM      7  C15 <0> A   1     -16.178   6.442  45.777  0.00  0.00    +0.042 A 
ATOM      8  C16 <0> A   1     -17.555   6.476  45.853  0.00  0.00    +0.042 A 
ATOM      9  C17 <0> A   1     -18.177   7.095  46.925  0.00  0.00    +0.077 A 
ATOM     10  C18 <0> A   1     -17.418   7.681  47.929  0.00  0.00    +0.073 A 
ATOM     11  C19 <0> A   1     -16.040   7.646  47.865  0.00  0.00    +0.069 A 
ATOM     12  F1  <0> A   1     -18.031   8.283  48.973  0.00  0.00    -0.124 F 
ATOM     13  F2  <0> A   1     -19.526   7.126  46.994  0.00  0.00    -0.123 F 
ENDBRANCH   4   6
BRANCH   2  14
ATOM     14  C20 <0> A   1     -10.670   5.913  47.747  0.00  0.00    +0.610 C 
ATOM     15  O5  <0> A   1     -10.110   6.487  48.661  0.00  0.00    -0.540 OA
ATOM     16  N3  <0> A   1     -10.201   4.728  47.308  0.00  0.00    -0.714 N 
ATOM     17  H23 <0> A   1     -10.649   4.269  46.579  0.00  0.00    +0.410 HD
BRANCH  16  18
ATOM     18  C21 <0> A   1      -9.018   4.132  47.931  0.00  0.00    +0.318 C 
BRANCH  18  19
ATOM     19  C22 <0> A   1      -7.981   3.852  46.874  0.00  0.00    -0.109 A 
ATOM     20  C23 <0> A   1      -7.335   2.631  46.846  0.00  0.00    +0.024 A 
ATOM     21  C24 <0> A   1      -6.384   2.373  45.876  0.00  0.00    +0.001 A 
ATOM     22  C25 <0> A   1      -6.079   3.338  44.934  0.00  0.00    +0.010 A 
ATOM     23  C26 <0> A   1      -6.726   4.560  44.961  0.00  0.00    +0.002 A 
ATOM     24  C27 <0> A   1      -7.680   4.814  45.929  0.00  0.00    +0.025 A 
ENDBRANCH  18  19
ENDBRANCH  16  18
ENDBRANCH   2  14
BRANCH   1  26
ATOM     25  C1  <0> A   1     -10.927   7.878  43.829  0.00  0.00    +0.033 C 
ATOM     26  C2  <0> A   1     -10.659   7.906  45.335  0.00  0.00    +0.086 C 
ATOM     27  C3  <0> A   1     -10.379   9.343  45.776  0.00  0.00    +0.035 C 
ENDBRANCH   1  26
BRANCH   5  28
ATOM     28  C7  <0> A   1     -13.653   8.593  44.769  0.00  0.00    +0.305 C 
BRANCH  28  29
ATOM     29  C8  <0> A   1     -13.769  10.009  45.333  0.00  0.00    -0.015 C 
BRANCH  29  30
ATOM     30  C9  <0> A   1     -13.751  11.020  44.185  0.00  0.00    +0.219 C 
BRANCH  30  31
ATOM     31  O4  <0> A   1     -12.583  11.837  44.288  0.00  0.00    -0.538 OA
ATOM     32  H19 <0> A   1     -11.984  11.578  45.002  0.00  0.00    +0.367 HD
ENDBRANCH  30  31
BRANCH  30  33
ATOM     33  C10 <0> A   1     -13.735  10.275  42.849  0.00  0.00    -0.046 C 
BRANCH  33  34
ATOM     34  C11 <0> A   1     -13.041  11.137  41.792  0.00  0.00    +0.232 C 
BRANCH  34  35
ATOM     35  O3  <0> A   1     -11.740  10.608  41.527  0.00  0.00    -0.528 OA
ATOM     36  H18 <0> A   1     -11.516   9.831  42.058  0.00  0.00    +0.351 HD
ENDBRANCH  34  35
BRANCH  34  37
ATOM     37  C12 <0> A   1     -13.867  11.128  40.504  0.00  0.00    -0.102 C 
BRANCH  37  38
ATOM     38  C13 <0> A   1     -12.943  11.045  39.317  0.00  0.00    +0.490 C 
ATOM     39  O1  <0> A   1     -12.464  12.061  38.844  0.00  0.00    -0.681 OA
ATOM     40  O2  <0> A   1     -12.675   9.960  38.828  0.00  0.00    -0.712 OA
ENDBRANCH  37  38
ENDBRANCH  34  37
ENDBRANCH  33  34
ENDBRANCH  30  33
ENDBRANCH  29  30
ENDBRANCH  28  29
ENDBRANCH   5  28
TORSDOF 14
ENDMDL
MODEL 4
REMARK VINA RESULT:      -7.9     15.227     20.717
REMARK  Name = CHEMBL488297
REMARK  16 active torsions:
REMARK  status: ('A' for Active; 'I' for Inactive)
REMARK    1  A    between atoms: C1_1  and  C2_2
REMARK    2  A    between atoms: C2_2  and  C3_3
REMARK    3  A    between atoms: C2_2  and  C4_4
REMARK    4  A    between atoms: C5_5  and  C20_30
REMARK    5  A    between atoms: C6_7  and  C14_22
REMARK    6  A    between atoms: N2_8  and  C7_9
REMARK    7  A    between atoms: C7_9  and  C8_10
REMARK    8  A    between atoms: C8_10  and  C9_11
REMARK    9  A    between atoms: C9_11  and  C10_13
REMARK   10  A    between atoms: C9_11  and  O4_21
REMARK   11  A    between atoms: C10_13  and  C11_14
REMARK   12  A    between atoms: C11_14  and  C12_16
REMARK   13  A    between atoms: C11_14  and  O3_20
REMARK   14  A    between atoms: C12_16  and  C13_17
REMARK   15  A    between atoms: N3_32  and  C21_33
REMARK   16  A    between atoms: C21_33  and  C22_34
REMARK                            x       y       z     vdW  Elec       q    Type
REMARK                         _______ _______ _______ _____ _____    ______ ____
ROOT
ATOM      1  C4  <0> A   1     -26.388  -4.692  50.997  0.00  0.00    +0.096 C 
ATOM      2  C5  <0> A   1     -25.098  -4.295  50.795  0.00  0.00    -0.063 C 
ATOM      3  N1  <0> A   1     -24.375  -5.387  50.468  0.00  0.00    -0.441 NA
ATOM      4  C6  <0> A   1     -25.162  -6.435  50.461  0.00  0.00    +0.240 C 
ATOM      5  N2  <0> A   1     -26.426  -6.036  50.793  0.00  0.00    -0.433 N 
ENDROOT
BRANCH   4   6
ATOM      6  C14 <0> A   1     -24.749  -7.822  50.150  0.00  0.00    +0.011 A 
ATOM      7  C15 <0> A   1     -24.665  -8.246  48.824  0.00  0.00    +0.042 A 
ATOM      8  C16 <0> A   1     -24.279  -9.540  48.538  0.00  0.00    +0.042 A 
ATOM      9  C17 <0> A   1     -23.977 -10.418  49.566  0.00  0.00    +0.077 A 
ATOM     10  C18 <0> A   1     -24.059 -10.001  50.887  0.00  0.00    +0.073 A 
ATOM     11  C19 <0> A   1     -24.437  -8.707  51.182  0.00  0.00    +0.069 A 
ATOM     12  F1  <0> A   1     -23.762 -10.862  51.886  0.00  0.00    -0.124 F 
ATOM     13  F2  <0> A   1     -23.600 -11.684  49.280  0.00  0.00    -0.123 F 
ENDBRANCH   4   6
BRANCH   2  14
ATOM     14  C20 <0> A   1     -24.585  -2.919  50.911  0.00  0.00    +0.610 C 
ATOM     15  O5  <0> A   1     -23.810  -2.632  51.803  0.00  0.00    -0.540 OA
ATOM     16  N3  <0> A   1     -24.975  -1.977  50.028  0.00  0.00    -0.714 N 
ATOM     17  H23 <0> A   1     -25.594  -2.206  49.317  0.00  0.00    +0.410 HD
BRANCH  16  18
ATOM     18  C21 <0> A   1     -24.465  -0.609  50.144  0.00  0.00    +0.318 C 
BRANCH  18  19
ATOM     19  C22 <0> A   1     -25.581   0.309  50.571  0.00  0.00    -0.109 A 
ATOM     20  C23 <0> A   1     -25.315   1.378  51.404  0.00  0.00    +0.024 A 
ATOM     21  C24 <0> A   1     -26.339   2.221  51.797  0.00  0.00    +0.001 A 
ATOM     22  C25 <0> A   1     -27.628   1.993  51.354  0.00  0.00    +0.010 A 
ATOM     23  C26 <0> A   1     -27.895   0.923  50.520  0.00  0.00    +0.002 A 
ATOM     24  C27 <0> A   1     -26.870   0.084  50.125  0.00  0.00    +0.025 A 
ENDBRANCH  18  19
ENDBRANCH  16  18
ENDBRANCH   2  14
BRANCH   1  26
ATOM     25  C1  <0> A   1     -28.433  -3.571  50.155  0.00  0.00    +0.033 C 
ATOM     26  C2  <0> A   1     -27.548  -3.810  51.380  0.00  0.00    +0.086 C 
ATOM     27  C3  <0> A   1     -28.369  -4.493  52.475  0.00  0.00    +0.035 C 
ENDBRANCH   1  26
BRANCH   5  28
ATOM     28  C7  <0> A   1     -27.606  -6.897  50.905  0.00  0.00    +0.305 C 
BRANCH  28  29
ATOM     29  C8  <0> A   1     -28.112  -7.255  49.507  0.00  0.00    -0.015 C 
BRANCH  29  30
ATOM     30  C9  <0> A   1     -28.590  -8.708  49.493  0.00  0.00    +0.219 C 
BRANCH  30  31
ATOM     31  O4  <0> A   1     -27.950  -9.410  48.425  0.00  0.00    -0.538 OA
ATOM     32  H19 <0> A   1     -28.564  -9.811  47.796  0.00  0.00    +0.367 HD
ENDBRANCH  30  31
BRANCH  30  33
ATOM     33  C10 <0> A   1     -28.239  -9.374  50.825  0.00  0.00    -0.046 C 
BRANCH  33  34
ATOM     34  C11 <0> A   1     -29.473 -10.088  51.380  0.00  0.00    +0.232 C 
BRANCH  34  35
ATOM     35  O3  <0> A   1     -29.084 -11.345  51.938  0.00  0.00    -0.528 OA
ATOM     36  H18 <0> A   1     -29.351 -12.110  51.410  0.00  0.00    +0.351 HD
ENDBRANCH  34  35
BRANCH  34  37
ATOM     37  C12 <0> A   1     -30.116  -9.224  52.466  0.00  0.00    -0.102 C 
BRANCH  37  38
ATOM     38  C13 <0> A   1     -30.510 -10.095  53.631  0.00  0.00    +0.490 C 
ATOM     39  O1  <0> A   1     -31.474 -10.834  53.543  0.00  0.00    -0.681 OA
ATOM     40  O2  <0> A   1     -29.862 -10.060  54.664  0.00  0.00    -0.712 OA
ENDBRANCH  37  38
ENDBRANCH  34  37
ENDBRANCH  33  34
ENDBRANCH  30  33
ENDBRANCH  29  30
ENDBRANCH  28  29
ENDBRANCH   5  28
TORSDOF 14
ENDMDL
MODEL 5
REMARK VINA RESULT:      -7.9     15.212     20.798
REMARK  Name = CHEMBL488297
REMARK  16 active torsions:
REMARK  status: ('A' for Active; 'I' for Inactive)
REMARK    1  A    between atoms: C1_1  and  C2_2
REMARK    2  A    between atoms: C2_2  and  C3_3
REMARK    3  A    between atoms: C2_2  and  C4_4
REMARK    4  A    between atoms: C5_5  and  C20_30
REMARK    5  A    between atoms: C6_7  and  C14_22
REMARK    6  A    between atoms: N2_8  and  C7_9
REMARK    7  A    between atoms: C7_9  and  C8_10
REMARK    8  A    between atoms: C8_10  and  C9_11
REMARK    9  A    between atoms: C9_11  and  C10_13
REMARK   10  A    between atoms: C9_11  and  O4_21
REMARK   11  A    between atoms: C10_13  and  C11_14
REMARK   12  A    between atoms: C11_14  and  C12_16
REMARK   13  A    between atoms: C11_14  and  O3_20
REMARK   14  A    between atoms: C12_16  and  C13_17
REMARK   15  A    between atoms: N3_32  and  C21_33
REMARK   16  A    between atoms: C21_33  and  C22_34
REMARK                            x       y       z     vdW  Elec       q    Type
REMARK                         _______ _______ _______ _____ _____    ______ ____
ROOT
ATOM      1  C4  <0> A   1     -26.341  -4.613  51.232  0.00  0.00    +0.096 C 
ATOM      2  C5  <0> A   1     -25.073  -4.198  50.945  0.00  0.00    -0.063 C 
ATOM      3  N1  <0> A   1     -24.343  -5.285  50.619  0.00  0.00    -0.441 NA
ATOM      4  C6  <0> A   1     -25.105  -6.349  50.693  0.00  0.00    +0.240 C 
ATOM      5  N2  <0> A   1     -26.359  -5.965  51.080  0.00  0.00    -0.433 N 
ENDROOT
BRANCH   4   6
ATOM      6  C14 <0> A   1     -24.678  -7.737  50.411  0.00  0.00    +0.011 A 
ATOM      7  C15 <0> A   1     -24.562  -8.179  49.092  0.00  0.00    +0.042 A 
ATOM      8  C16 <0> A   1     -24.162  -9.474  48.833  0.00  0.00    +0.042 A 
ATOM      9  C17 <0> A   1     -23.878 -10.337  49.880  0.00  0.00    +0.077 A 
ATOM     10  C18 <0> A   1     -23.991  -9.902  51.193  0.00  0.00    +0.073 A 
ATOM     11  C19 <0> A   1     -24.384  -8.606  51.462  0.00  0.00    +0.069 A 
ATOM     12  F1  <0> A   1     -23.712 -10.748  52.209  0.00  0.00    -0.124 F 
ATOM     13  F2  <0> A   1     -23.488 -11.604  49.620  0.00  0.00    -0.123 F 
ENDBRANCH   4   6
BRANCH   2  14
ATOM     14  C20 <0> A   1     -24.587  -2.807  50.983  0.00  0.00    +0.610 C 
ATOM     15  O5  <0> A   1     -23.791  -2.464  51.837  0.00  0.00    -0.540 OA
ATOM     16  N3  <0> A   1     -25.024  -1.914  50.072  0.00  0.00    -0.714 N 
ATOM     17  H23 <0> A   1     -25.659  -2.188  49.392  0.00  0.00    +0.410 HD
BRANCH  16  18
ATOM     18  C21 <0> A   1     -24.541  -0.533  50.110  0.00  0.00    +0.318 C 
BRANCH  18  19
ATOM     19  C22 <0> A   1     -25.651   0.376  50.568  0.00  0.00    -0.109 A 
ATOM     20  C23 <0> A   1     -25.377   1.427  51.422  0.00  0.00    +0.024 A 
ATOM     21  C24 <0> A   1     -26.396   2.262  51.842  0.00  0.00    +0.001 A 
ATOM     22  C25 <0> A   1     -27.690   2.044  51.407  0.00  0.00    +0.010 A 
ATOM     23  C26 <0> A   1     -27.965   0.993  50.553  0.00  0.00    +0.002 A 
ATOM     24  C27 <0> A   1     -26.945   0.162  50.130  0.00  0.00    +0.025 A 
ENDBRANCH  18  19
ENDBRANCH  16  18
ENDBRANCH   2  14
BRANCH   1  26
ATOM     25  C1  <0> A   1     -28.375  -3.446  50.427  0.00  0.00    +0.033 C 
ATOM     26  C2  <0> A   1     -27.499  -3.742  51.645  0.00  0.00    +0.086 C 
ATOM     27  C3  <0> A   1     -28.329  -4.467  52.706  0.00  0.00    +0.035 C 
ENDBRANCH   1  26
BRANCH   5  28
ATOM     28  C7  <0> A   1     -27.511  -6.846  51.287  0.00  0.00    +0.305 C 
BRANCH  28  29
ATOM     29  C8  <0> A   1     -27.974  -7.406  49.942  0.00  0.00    -0.015 C 
BRANCH  29  30
ATOM     30  C9  <0> A   1     -28.595  -8.788  50.150  0.00  0.00    +0.219 C 
BRANCH  30  31
ATOM     31  O4  <0> A   1     -27.559  -9.770  50.225  0.00  0.00    -0.538 OA
ATOM     32  H19 <0> A   1     -26.722  -9.487  49.833  0.00  0.00    +0.367 HD
ENDBRANCH  30  31
BRANCH  30  33
ATOM     33  C10 <0> A   1     -29.399  -8.795  51.452  0.00  0.00    -0.046 C 
BRANCH  33  34
ATOM     34  C11 <0> A   1     -30.334 -10.007  51.468  0.00  0.00    +0.232 C 
BRANCH  34  35
ATOM     35  O3  <0> A   1     -30.111 -10.795  50.297  0.00  0.00    -0.528 OA
ATOM     36  H18 <0> A   1     -29.243 -10.661  49.892  0.00  0.00    +0.351 HD
ENDBRANCH  34  35
BRANCH  34  37
ATOM     37  C12 <0> A   1     -30.052 -10.851  52.713  0.00  0.00    -0.102 C 
BRANCH  37  38
ATOM     38  C13 <0> A   1     -29.339 -12.116  52.310  0.00  0.00    +0.490 C 
ATOM     39  O1  <0> A   1     -28.142 -12.096  52.084  0.00  0.00    -0.681 OA
ATOM     40  O2  <0> A   1     -29.960 -13.160  52.211  0.00  0.00    -0.712 OA
ENDBRANCH  37  38
ENDBRANCH  34  37
ENDBRANCH  33  34
ENDBRANCH  30  33
ENDBRANCH  29  30
ENDBRANCH  28  29
ENDBRANCH   5  28
TORSDOF 14
ENDMDL
MODEL 6
REMARK VINA RESULT:      -7.9     15.151     20.816
REMARK  Name = CHEMBL488297
REMARK  16 active torsions:
REMARK  status: ('A' for Active; 'I' for Inactive)
REMARK    1  A    between atoms: C1_1  and  C2_2
REMARK    2  A    between atoms: C2_2  and  C3_3
REMARK    3  A    between atoms: C2_2  and  C4_4
REMARK    4  A    between atoms: C5_5  and  C20_30
REMARK    5  A    between atoms: C6_7  and  C14_22
REMARK    6  A    between atoms: N2_8  and  C7_9
REMARK    7  A    between atoms: C7_9  and  C8_10
REMARK    8  A    between atoms: C8_10  and  C9_11
REMARK    9  A    between atoms: C9_11  and  C10_13
REMARK   10  A    between atoms: C9_11  and  O4_21
REMARK   11  A    between atoms: C10_13  and  C11_14
REMARK   12  A    between atoms: C11_14  and  C12_16
REMARK   13  A    between atoms: C11_14  and  O3_20
REMARK   14  A    between atoms: C12_16  and  C13_17
REMARK   15  A    between atoms: N3_32  and  C21_33
REMARK   16  A    between atoms: C21_33  and  C22_34
REMARK                            x       y       z     vdW  Elec       q    Type
REMARK                         _______ _______ _______ _____ _____    ______ ____
ROOT
ATOM      1  C4  <0> A   1     -26.342  -4.713  51.327  0.00  0.00    +0.096 C 
ATOM      2  C5  <0> A   1     -25.099  -4.277  50.971  0.00  0.00    -0.063 C 
ATOM      3  N1  <0> A   1     -24.381  -5.348  50.572  0.00  0.00    -0.441 NA
ATOM      4  C6  <0> A   1     -25.127  -6.422  50.667  0.00  0.00    +0.240 C 
ATOM      5  N2  <0> A   1     -26.357  -6.061  51.143  0.00  0.00    -0.433 N 
ENDROOT
BRANCH   4   6
ATOM      6  C14 <0> A   1     -24.706  -7.798  50.324  0.00  0.00    +0.011 A 
ATOM      7  C15 <0> A   1     -24.255  -8.662  51.323  0.00  0.00    +0.042 A 
ATOM      8  C16 <0> A   1     -23.864  -9.945  50.999  0.00  0.00    +0.042 A 
ATOM      9  C17 <0> A   1     -23.917 -10.376  49.684  0.00  0.00    +0.077 A 
ATOM     10  C18 <0> A   1     -24.365  -9.522  48.686  0.00  0.00    +0.073 A 
ATOM     11  C19 <0> A   1     -24.764  -8.239  49.002  0.00  0.00    +0.069 A 
ATOM     12  F1  <0> A   1     -24.414  -9.949  47.405  0.00  0.00    -0.124 F 
ATOM     13  F2  <0> A   1     -23.532 -11.633  49.373  0.00  0.00    -0.123 F 
ENDBRANCH   4   6
BRANCH   2  14
ATOM     14  C20 <0> A   1     -24.624  -2.882  51.012  0.00  0.00    +0.610 C 
ATOM     15  O5  <0> A   1     -23.896  -2.514  51.914  0.00  0.00    -0.540 OA
ATOM     16  N3  <0> A   1     -24.996  -2.014  50.050  0.00  0.00    -0.714 N 
ATOM     17  H23 <0> A   1     -25.576  -2.308  49.330  0.00  0.00    +0.410 HD
BRANCH  16  18
ATOM     18  C21 <0> A   1     -24.523  -0.629  50.091  0.00  0.00    +0.318 C 
BRANCH  18  19
ATOM     19  C22 <0> A   1     -25.642   0.270  50.550  0.00  0.00    -0.109 A 
ATOM     20  C23 <0> A   1     -26.938   0.026  50.137  0.00  0.00    +0.024 A 
ATOM     21  C24 <0> A   1     -27.965   0.852  50.559  0.00  0.00    +0.001 A 
ATOM     22  C25 <0> A   1     -27.694   1.919  51.394  0.00  0.00    +0.010 A 
ATOM     23  C26 <0> A   1     -26.398   2.162  51.808  0.00  0.00    +0.002 A 
ATOM     24  C27 <0> A   1     -25.373   1.334  51.389  0.00  0.00    +0.025 A 
ENDBRANCH  18  19
ENDBRANCH  16  18
ENDBRANCH   2  14
BRANCH   1  26
ATOM     25  C1  <0> A   1     -28.353  -3.427  50.659  0.00  0.00    +0.033 C 
ATOM     26  C2  <0> A   1     -27.479  -3.865  51.836  0.00  0.00    +0.086 C 
ATOM     27  C3  <0> A   1     -28.320  -4.677  52.821  0.00  0.00    +0.035 C 
ENDBRANCH   1  26
BRANCH   5  28
ATOM     28  C7  <0> A   1     -27.485  -6.959  51.401  0.00  0.00    +0.305 C 
BRANCH  28  29
ATOM     29  C8  <0> A   1     -28.087  -7.419  50.073  0.00  0.00    -0.015 C 
BRANCH  29  30
ATOM     30  C9  <0> A   1     -28.697  -8.810  50.244  0.00  0.00    +0.219 C 
BRANCH  30  31
ATOM     31  O4  <0> A   1     -27.652  -9.781  50.342  0.00  0.00    -0.538 OA
ATOM     32  H19 <0> A   1     -26.794  -9.466  50.027  0.00  0.00    +0.367 HD
ENDBRANCH  30  31
BRANCH  30  33
ATOM     33  C10 <0> A   1     -29.545  -8.844  51.516  0.00  0.00    -0.046 C 
BRANCH  33  34
ATOM     34  C11 <0> A   1     -30.447 -10.080  51.497  0.00  0.00    +0.232 C 
BRANCH  34  35
ATOM     35  O3  <0> A   1     -30.191 -10.837  50.312  0.00  0.00    -0.528 OA
ATOM     36  H18 <0> A   1     -30.544 -11.738  50.337  0.00  0.00    +0.351 HD
ENDBRANCH  34  35
BRANCH  34  37
ATOM     37  C12 <0> A   1     -30.156 -10.943  52.727  0.00  0.00    -0.102 C 
BRANCH  37  38
ATOM     38  C13 <0> A   1     -29.406 -12.180  52.305  0.00  0.00    +0.490 C 
ATOM     39  O1  <0> A   1     -28.205 -12.128  52.109  0.00  0.00    -0.681 OA
ATOM     40  O2  <0> A   1     -30.002 -13.234  52.160  0.00  0.00    -0.712 OA
ENDBRANCH  37  38
ENDBRANCH  34  37
ENDBRANCH  33  34
ENDBRANCH  30  33
ENDBRANCH  29  30
ENDBRANCH  28  29
ENDBRANCH   5  28
TORSDOF 14
ENDMDL
MODEL 7
REMARK VINA RESULT:      -7.6      3.950      7.506
REMARK  Name = CHEMBL488297
REMARK  16 active torsions:
REMARK  status: ('A' for Active; 'I' for Inactive)
REMARK    1  A    between atoms: C1_1  and  C2_2
REMARK    2  A    between atoms: C2_2  and  C3_3
REMARK    3  A    between atoms: C2_2  and  C4_4
REMARK    4  A    between atoms: C5_5  and  C20_30
REMARK    5  A    between atoms: C6_7  and  C14_22
REMARK    6  A    between atoms: N2_8  and  C7_9
REMARK    7  A    between atoms: C7_9  and  C8_10
REMARK    8  A    between atoms: C8_10  and  C9_11
REMARK    9  A    between atoms: C9_11  and  C10_13
REMARK   10  A    between atoms: C9_11  and  O4_21
REMARK   11  A    between atoms: C10_13  and  C11_14
REMARK   12  A    between atoms: C11_14  and  C12_16
REMARK   13  A    between atoms: C11_14  and  O3_20
REMARK   14  A    between atoms: C12_16  and  C13_17
REMARK   15  A    between atoms: N3_32  and  C21_33
REMARK   16  A    between atoms: C21_33  and  C22_34
REMARK                            x       y       z     vdW  Elec       q    Type
REMARK                         _______ _______ _______ _____ _____    ______ ____
ROOT
ATOM      1  C4  <0> A   1     -12.696   9.277  47.750  0.00  0.00    +0.096 C 
ATOM      2  C5  <0> A   1     -12.659   8.404  48.798  0.00  0.00    -0.063 C 
ATOM      3  N1  <0> A   1     -13.292   7.274  48.420  0.00  0.00    -0.441 NA
ATOM      4  C6  <0> A   1     -13.716   7.413  47.188  0.00  0.00    +0.240 C 
ATOM      5  N2  <0> A   1     -13.366   8.657  46.741  0.00  0.00    -0.433 N 
ENDROOT
BRANCH   4   6
ATOM      6  C14 <0> A   1     -14.458   6.396  46.410  0.00  0.00    +0.011 A 
ATOM      7  C15 <0> A   1     -13.878   5.153  46.152  0.00  0.00    +0.042 A 
ATOM      8  C16 <0> A   1     -14.573   4.207  45.427  0.00  0.00    +0.042 A 
ATOM      9  C17 <0> A   1     -15.844   4.489  44.954  0.00  0.00    +0.077 A 
ATOM     10  C18 <0> A   1     -16.426   5.723  45.209  0.00  0.00    +0.073 A 
ATOM     11  C19 <0> A   1     -15.741   6.674  45.938  0.00  0.00    +0.069 A 
ATOM     12  F1  <0> A   1     -17.666   5.992  44.745  0.00  0.00    -0.124 F 
ATOM     13  F2  <0> A   1     -16.519   3.559  44.244  0.00  0.00    -0.123 F 
ENDBRANCH   4   6
BRANCH   2  14
ATOM     14  C20 <0> A   1     -12.036   8.651  50.111  0.00  0.00    +0.610 C 
ATOM     15  O5  <0> A   1     -12.724   8.690  51.113  0.00  0.00    -0.540 OA
ATOM     16  N3  <0> A   1     -10.703   8.834  50.201  0.00  0.00    -0.714 N 
ATOM     17  H23 <0> A   1     -10.154   8.803  49.402  0.00  0.00    +0.410 HD
BRANCH  16  18
ATOM     18  C21 <0> A   1     -10.085   9.079  51.505  0.00  0.00    +0.318 C 
BRANCH  18  19
ATOM     19  C22 <0> A   1      -9.838  10.555  51.676  0.00  0.00    -0.109 A 
ATOM     20  C23 <0> A   1      -9.963  11.406  50.594  0.00  0.00    +0.024 A 
ATOM     21  C24 <0> A   1      -9.737  12.762  50.750  0.00  0.00    +0.001 A 
ATOM     22  C25 <0> A   1      -9.387  13.265  51.988  0.00  0.00    +0.010 A 
ATOM     23  C26 <0> A   1      -9.262  12.414  53.071  0.00  0.00    +0.002 A 
ATOM     24  C27 <0> A   1      -9.492  11.060  52.915  0.00  0.00    +0.025 A 
ENDBRANCH  18  19
ENDBRANCH  16  18
ENDBRANCH   2  14
BRANCH   1  26
ATOM     25  C1  <0> A   1     -10.899  10.688  46.787  0.00  0.00    +0.033 C 
ATOM     26  C2  <0> A   1     -12.113  10.666  47.718  0.00  0.00    +0.086 C 
ATOM     27  C3  <0> A   1     -13.166  11.650  47.205  0.00  0.00    +0.035 C 
ENDBRANCH   1  26
BRANCH   5  28
ATOM     28  C7  <0> A   1     -13.653   9.217  45.419  0.00  0.00    +0.305 C 
BRANCH  28  29
ATOM     29  C8  <0> A   1     -12.765   8.542  44.373  0.00  0.00    -0.015 C 
BRANCH  29  30
ATOM     30  C9  <0> A   1     -12.902   9.273  43.037  0.00  0.00    +0.219 C 
BRANCH  30  31
ATOM     31  O4  <0> A   1     -13.440   8.381  42.058  0.00  0.00    -0.538 OA
ATOM     32  H19 <0> A   1     -14.407   8.351  42.044  0.00  0.00    +0.367 HD
ENDBRANCH  30  31
BRANCH  30  33
ATOM     33  C10 <0> A   1     -13.838  10.472  43.204  0.00  0.00    -0.046 C 
BRANCH  33  34
ATOM     34  C11 <0> A   1     -13.486  11.543  42.169  0.00  0.00    +0.232 C 
BRANCH  34  35
ATOM     35  O3  <0> A   1     -12.243  11.213  41.547  0.00  0.00    -0.528 OA
ATOM     36  H18 <0> A   1     -12.283  10.432  40.977  0.00  0.00    +0.351 HD
ENDBRANCH  34  35
BRANCH  34  37
ATOM     37  C12 <0> A   1     -14.587  11.608  41.109  0.00  0.00    -0.102 C 
BRANCH  37  38
ATOM     38  C13 <0> A   1     -14.054  11.083  39.801  0.00  0.00    +0.490 C 
ATOM     39  O1  <0> A   1     -13.917   9.884  39.634  0.00  0.00    -0.681 OA
ATOM     40  O2  <0> A   1     -13.759  11.860  38.907  0.00  0.00    -0.712 OA
ENDBRANCH  37  38
ENDBRANCH  34  37
ENDBRANCH  33  34
ENDBRANCH  30  33
ENDBRANCH  29  30
ENDBRANCH  28  29
ENDBRANCH   5  28
TORSDOF 14
ENDMDL
MODEL 8
REMARK VINA RESULT:      -7.6     23.500     27.134
REMARK  Name = CHEMBL488297
REMARK  16 active torsions:
REMARK  status: ('A' for Active; 'I' for Inactive)
REMARK    1  A    between atoms: C1_1  and  C2_2
REMARK    2  A    between atoms: C2_2  and  C3_3
REMARK    3  A    between atoms: C2_2  and  C4_4
REMARK    4  A    between atoms: C5_5  and  C20_30
REMARK    5  A    between atoms: C6_7  and  C14_22
REMARK    6  A    between atoms: N2_8  and  C7_9
REMARK    7  A    between atoms: C7_9  and  C8_10
REMARK    8  A    between atoms: C8_10  and  C9_11
REMARK    9  A    between atoms: C9_11  and  C10_13
REMARK   10  A    between atoms: C9_11  and  O4_21
REMARK   11  A    between atoms: C10_13  and  C11_14
REMARK   12  A    between atoms: C11_14  and  C12_16
REMARK   13  A    between atoms: C11_14  and  O3_20
REMARK   14  A    between atoms: C12_16  and  C13_17
REMARK   15  A    between atoms: N3_32  and  C21_33
REMARK   16  A    between atoms: C21_33  and  C22_34
REMARK                            x       y       z     vdW  Elec       q    Type
REMARK                         _______ _______ _______ _____ _____    ______ ____
ROOT
ATOM      1  C4  <0> A   1       4.576  21.667  32.362  0.00  0.00    +0.096 C 
ATOM      2  C5  <0> A   1       4.551  20.360  31.972  0.00  0.00    -0.063 C 
ATOM      3  N1  <0> A   1       4.932  19.605  33.025  0.00  0.00    -0.441 NA
ATOM      4  C6  <0> A   1       5.190  20.391  34.042  0.00  0.00    +0.240 C 
ATOM      5  N2  <0> A   1       4.984  21.687  33.659  0.00  0.00    -0.433 N 
ENDROOT
BRANCH   4   6
ATOM      6  C14 <0> A   1       5.636  19.949  35.382  0.00  0.00    +0.011 A 
ATOM      7  C15 <0> A   1       6.924  20.252  35.825  0.00  0.00    +0.042 A 
ATOM      8  C16 <0> A   1       7.337  19.838  37.075  0.00  0.00    +0.042 A 
ATOM      9  C17 <0> A   1       6.476  19.121  37.890  0.00  0.00    +0.077 A 
ATOM     10  C18 <0> A   1       5.193  18.817  37.454  0.00  0.00    +0.073 A 
ATOM     11  C19 <0> A   1       4.770  19.232  36.208  0.00  0.00    +0.069 A 
ATOM     12  F1  <0> A   1       4.358  18.118  38.253  0.00  0.00    -0.124 F 
ATOM     13  F2  <0> A   1       6.886  18.719  39.113  0.00  0.00    -0.123 F 
ENDBRANCH   4   6
BRANCH   2  14
ATOM     14  C20 <0> A   1       4.174  19.859  30.639  0.00  0.00    +0.610 C 
ATOM     15  O5  <0> A   1       3.824  20.638  29.773  0.00  0.00    -0.540 OA
ATOM     16  N3  <0> A   1       4.216  18.536  30.378  0.00  0.00    -0.714 N 
ATOM     17  H23 <0> A   1       4.495  17.915  31.069  0.00  0.00    +0.410 HD
BRANCH  16  18
ATOM     18  C21 <0> A   1       3.842  18.039  29.053  0.00  0.00    +0.318 C 
BRANCH  18  19
ATOM     19  C22 <0> A   1       4.771  16.922  28.654  0.00  0.00    -0.109 A 
ATOM     20  C23 <0> A   1       5.995  16.784  29.282  0.00  0.00    +0.024 A 
ATOM     21  C24 <0> A   1       6.848  15.759  28.916  0.00  0.00    +0.001 A 
ATOM     22  C25 <0> A   1       6.476  14.872  27.924  0.00  0.00    +0.010 A 
ATOM     23  C26 <0> A   1       5.251  15.009  27.296  0.00  0.00    +0.002 A 
ATOM     24  C27 <0> A   1       4.398  16.032  27.666  0.00  0.00    +0.025 A 
ENDBRANCH  18  19
ENDBRANCH  16  18
ENDBRANCH   2  14
BRANCH   1  26
ATOM     25  C1  <0> A   1       3.071  23.627  32.162  0.00  0.00    +0.033 C 
ATOM     26  C2  <0> A   1       4.227  22.863  31.514  0.00  0.00    +0.086 C 
ATOM     27  C3  <0> A   1       5.444  23.781  31.400  0.00  0.00    +0.035 C 
ENDBRANCH   1  26
BRANCH   5  28
ATOM     28  C7  <0> A   1       5.163  22.877  34.494  0.00  0.00    +0.305 C 
BRANCH  28  29
ATOM     29  C8  <0> A   1       4.257  22.781  35.722  0.00  0.00    -0.015 C 
BRANCH  29  30
ATOM     30  C9  <0> A   1       2.795  22.740  35.276  0.00  0.00    +0.219 C 
BRANCH  30  31
ATOM     31  O4  <0> A   1       2.361  21.381  35.190  0.00  0.00    -0.538 OA
ATOM     32  H19 <0> A   1       2.920  20.825  34.630  0.00  0.00    +0.367 HD
ENDBRANCH  30  31
BRANCH  30  33
ATOM     33  C10 <0> A   1       1.929  23.488  36.293  0.00  0.00    -0.046 C 
BRANCH  33  34
ATOM     34  C11 <0> A   1       0.547  23.751  35.691  0.00  0.00    +0.232 C 
BRANCH  34  35
ATOM     35  O3  <0> A   1       0.599  23.557  34.277  0.00  0.00    -0.528 OA
ATOM     36  H18 <0> A   1       0.030  22.843  33.956  0.00  0.00    +0.351 HD
ENDBRANCH  34  35
BRANCH  34  37
ATOM     37  C12 <0> A   1      -0.467  22.782  36.302  0.00  0.00    -0.102 C 
BRANCH  37  38
ATOM     38  C13 <0> A   1      -0.943  21.821  35.244  0.00  0.00    +0.490 C 
ATOM     39  O1  <0> A   1      -1.986  22.034  34.650  0.00  0.00    -0.681 OA
ATOM     40  O2  <0> A   1      -0.284  20.829  34.980  0.00  0.00    -0.712 OA
ENDBRANCH  37  38
ENDBRANCH  34  37
ENDBRANCH  33  34
ENDBRANCH  30  33
ENDBRANCH  29  30
ENDBRANCH  28  29
ENDBRANCH   5  28
TORSDOF 14
ENDMDL
MODEL 9
REMARK VINA RESULT:      -7.6     16.007     21.548
REMARK  Name = CHEMBL488297
REMARK  16 active torsions:
REMARK  status: ('A' for Active; 'I' for Inactive)
REMARK    1  A    between atoms: C1_1  and  C2_2
REMARK    2  A    between atoms: C2_2  and  C3_3
REMARK    3  A    between atoms: C2_2  and  C4_4
REMARK    4  A    between atoms: C5_5  and  C20_30
REMARK    5  A    between atoms: C6_7  and  C14_22
REMARK    6  A    between atoms: N2_8  and  C7_9
REMARK    7  A    between atoms: C7_9  and  C8_10
REMARK    8  A    between atoms: C8_10  and  C9_11
REMARK    9  A    between atoms: C9_11  and  C10_13
REMARK   10  A    between atoms: C9_11  and  O4_21
REMARK   11  A    between atoms: C10_13  and  C11_14
REMARK   12  A    between atoms: C11_14  and  C12_16
REMARK   13  A    between atoms: C11_14  and  O3_20
REMARK   14  A    between atoms: C12_16  and  C13_17
REMARK   15  A    between atoms: N3_32  and  C21_33
REMARK   16  A    between atoms: C21_33  and  C22_34
REMARK                            x       y       z     vdW  Elec       q    Type
REMARK                         _______ _______ _______ _____ _____    ______ ____
ROOT
ATOM      1  C4  <0> A   1     -26.266  -5.471  50.436  0.00  0.00    +0.096 C 
ATOM      2  C5  <0> A   1     -24.918  -5.260  50.476  0.00  0.00    -0.063 C 
ATOM      3  N1  <0> A   1     -24.306  -6.423  50.169  0.00  0.00    -0.441 NA
ATOM      4  C6  <0> A   1     -25.217  -7.338  49.943  0.00  0.00    +0.240 C 
ATOM      5  N2  <0> A   1     -26.453  -6.777  50.108  0.00  0.00    -0.433 N 
ENDROOT
BRANCH   4   6
ATOM      6  C14 <0> A   1     -24.952  -8.747  49.576  0.00  0.00    +0.011 A 
ATOM      7  C15 <0> A   1     -25.018  -9.147  48.241  0.00  0.00    +0.042 A 
ATOM      8  C16 <0> A   1     -24.770 -10.461  47.903  0.00  0.00    +0.042 A 
ATOM      9  C17 <0> A   1     -24.456 -11.385  48.887  0.00  0.00    +0.077 A 
ATOM     10  C18 <0> A   1     -24.389 -10.993  50.217  0.00  0.00    +0.073 A 
ATOM     11  C19 <0> A   1     -24.630  -9.679  50.563  0.00  0.00    +0.069 A 
ATOM     12  F1  <0> A   1     -24.083 -11.898  51.172  0.00  0.00    -0.124 F 
ATOM     13  F2  <0> A   1     -24.215 -12.671  48.550  0.00  0.00    -0.123 F 
ENDBRANCH   4   6
BRANCH   2  14
ATOM     14  C20 <0> A   1     -24.248  -3.987  50.796  0.00  0.00    +0.610 C 
ATOM     15  O5  <0> A   1     -24.761  -2.932  50.474  0.00  0.00    -0.540 OA
ATOM     16  N3  <0> A   1     -23.067  -3.991  51.446  0.00  0.00    -0.714 N 
ATOM     17  H23 <0> A   1     -22.658  -4.832  51.703  0.00  0.00    +0.410 HD
BRANCH  16  18
ATOM     18  C21 <0> A   1     -22.402  -2.726  51.765  0.00  0.00    +0.318 C 
BRANCH  18  19
ATOM     19  C22 <0> A   1     -21.841  -2.791  53.162  0.00  0.00    -0.109 A 
ATOM     20  C23 <0> A   1     -20.935  -3.779  53.498  0.00  0.00    +0.024 A 
ATOM     21  C24 <0> A   1     -20.421  -3.838  54.780  0.00  0.00    +0.001 A 
ATOM     22  C25 <0> A   1     -20.812  -2.909  55.725  0.00  0.00    +0.010 A 
ATOM     23  C26 <0> A   1     -21.718  -1.920  55.389  0.00  0.00    +0.002 A 
ATOM     24  C27 <0> A   1     -22.229  -1.859  54.106  0.00  0.00    +0.025 A 
ENDBRANCH  18  19
ENDBRANCH  16  18
ENDBRANCH   2  14
BRANCH   1  26
ATOM     25  C1  <0> A   1     -28.466  -4.610  49.686  0.00  0.00    +0.033 C 
ATOM     26  C2  <0> A   1     -27.342  -4.452  50.711  0.00  0.00    +0.086 C 
ATOM     27  C3  <0> A   1     -27.901  -4.668  52.118  0.00  0.00    +0.035 C 
ENDBRANCH   1  26
BRANCH   5  28
ATOM     28  C7  <0> A   1     -27.741  -7.457  49.954  0.00  0.00    +0.305 C 
BRANCH  28  29
ATOM     29  C8  <0> A   1     -28.175  -8.040  51.300  0.00  0.00    -0.015 C 
BRANCH  29  30
ATOM     30  C9  <0> A   1     -28.896  -9.369  51.072  0.00  0.00    +0.219 C 
BRANCH  30  31
ATOM     31  O4  <0> A   1     -27.944 -10.436  51.082  0.00  0.00    -0.538 OA
ATOM     32  H19 <0> A   1     -28.341 -11.316  51.129  0.00  0.00    +0.367 HD
ENDBRANCH  30  31
BRANCH  30  33
ATOM     33  C10 <0> A   1     -29.922  -9.592  52.184  0.00  0.00    -0.046 C 
BRANCH  33  34
ATOM     34  C11 <0> A   1     -30.791 -10.805  51.843  0.00  0.00    +0.232 C 
BRANCH  34  35
ATOM     35  O3  <0> A   1     -30.431 -11.300  50.552  0.00  0.00    -0.528 OA
ATOM     36  H18 <0> A   1     -29.676 -10.844  50.152  0.00  0.00    +0.351 HD
ENDBRANCH  34  35
BRANCH  34  37
ATOM     37  C12 <0> A   1     -30.571 -11.899  52.890  0.00  0.00    -0.102 C 
BRANCH  37  38
ATOM     38  C13 <0> A   1     -29.947 -13.103  52.232  0.00  0.00    +0.490 C 
ATOM     39  O1  <0> A   1     -30.654 -13.999  51.803  0.00  0.00    -0.681 OA
ATOM     40  O2  <0> A   1     -28.735 -13.181  52.128  0.00  0.00    -0.712 OA
ENDBRANCH  37  38
ENDBRANCH  34  37
ENDBRANCH  33  34
ENDBRANCH  30  33
ENDBRANCH  29  30
ENDBRANCH  28  29
ENDBRANCH   5  28
TORSDOF 14
ENDMDL
MODEL 10
REMARK VINA RESULT:      -7.5     14.968     20.399
REMARK  Name = CHEMBL488297
REMARK  16 active torsions:
REMARK  status: ('A' for Active; 'I' for Inactive)
REMARK    1  A    between atoms: C1_1  and  C2_2
REMARK    2  A    between atoms: C2_2  and  C3_3
REMARK    3  A    between atoms: C2_2  and  C4_4
REMARK    4  A    between atoms: C5_5  and  C20_30
REMARK    5  A    between atoms: C6_7  and  C14_22
REMARK    6  A    between atoms: N2_8  and  C7_9
REMARK    7  A    between atoms: C7_9  and  C8_10
REMARK    8  A    between atoms: C8_10  and  C9_11
REMARK    9  A    between atoms: C9_11  and  C10_13
REMARK   10  A    between atoms: C9_11  and  O4_21
REMARK   11  A    between atoms: C10_13  and  C11_14
REMARK   12  A    between atoms: C11_14  and  C12_16
REMARK   13  A    between atoms: C11_14  and  O3_20
REMARK   14  A    between atoms: C12_16  and  C13_17
REMARK   15  A    between atoms: N3_32  and  C21_33
REMARK   16  A    between atoms: C21_33  and  C22_34
REMARK                            x       y       z     vdW  Elec       q    Type
REMARK                         _______ _______ _______ _____ _____    ______ ____
ROOT
ATOM      1  C4  <0> A   1     -26.469  -3.955  51.551  0.00  0.00    +0.096 C 
ATOM      2  C5  <0> A   1     -25.229  -3.451  51.285  0.00  0.00    -0.063 C 
ATOM      3  N1  <0> A   1     -24.429  -4.480  50.933  0.00  0.00    -0.441 NA
ATOM      4  C6  <0> A   1     -25.122  -5.592  50.972  0.00  0.00    +0.240 C 
ATOM      5  N2  <0> A   1     -26.399  -5.300  51.361  0.00  0.00    -0.433 N 
ENDROOT
BRANCH   4   6
ATOM      6  C14 <0> A   1     -24.606  -6.942  50.655  0.00  0.00    +0.011 A 
ATOM      7  C15 <0> A   1     -24.058  -7.737  51.662  0.00  0.00    +0.042 A 
ATOM      8  C16 <0> A   1     -23.578  -8.995  51.362  0.00  0.00    +0.042 A 
ATOM      9  C17 <0> A   1     -23.638  -9.470  50.062  0.00  0.00    +0.077 A 
ATOM     10  C18 <0> A   1     -24.182  -8.684  49.056  0.00  0.00    +0.073 A 
ATOM     11  C19 <0> A   1     -24.670  -7.426  49.348  0.00  0.00    +0.069 A 
ATOM     12  F1  <0> A   1     -24.238  -9.153  47.790  0.00  0.00    -0.124 F 
ATOM     13  F2  <0> A   1     -23.166 -10.703  49.774  0.00  0.00    -0.123 F 
ENDBRANCH   4   6
BRANCH   2  14
ATOM     14  C20 <0> A   1     -24.832  -2.034  51.365  0.00  0.00    +0.610 C 
ATOM     15  O5  <0> A   1     -24.227  -1.626  52.338  0.00  0.00    -0.540 OA
ATOM     16  N3  <0> A   1     -25.140  -1.190  50.360  0.00  0.00    -0.714 N 
ATOM     17  H23 <0> A   1     -25.622  -1.516  49.584  0.00  0.00    +0.410 HD
BRANCH  16  18
ATOM     18  C21 <0> A   1     -24.745   0.218  50.439  0.00  0.00    +0.318 C 
BRANCH  18  19
ATOM     19  C22 <0> A   1     -25.930   1.049  50.859  0.00  0.00    -0.109 A 
ATOM     20  C23 <0> A   1     -27.176   0.798  50.318  0.00  0.00    +0.024 A 
ATOM     21  C24 <0> A   1     -28.264   1.560  50.703  0.00  0.00    +0.001 A 
ATOM     22  C25 <0> A   1     -28.104   2.573  51.630  0.00  0.00    +0.010 A 
ATOM     23  C26 <0> A   1     -26.857   2.824  52.171  0.00  0.00    +0.002 A 
ATOM     24  C27 <0> A   1     -25.771   2.059  51.789  0.00  0.00    +0.025 A 
ENDBRANCH  18  19
ENDBRANCH  16  18
ENDBRANCH   2  14
BRANCH   1  26
ATOM     25  C1  <0> A   1     -27.258  -2.069  52.954  0.00  0.00    +0.033 C 
ATOM     26  C2  <0> A   1     -27.682  -3.171  51.981  0.00  0.00    +0.086 C 
ATOM     27  C3  <0> A   1     -28.343  -2.541  50.754  0.00  0.00    +0.035 C 
ENDBRANCH   1  26
BRANCH   5  28
ATOM     28  C7  <0> A   1     -27.494  -6.257  51.536  0.00  0.00    +0.305 C 
BRANCH  28  29
ATOM     29  C8  <0> A   1     -27.593  -6.657  53.009  0.00  0.00    -0.015 C 
BRANCH  29  30
ATOM     30  C9  <0> A   1     -29.062  -6.687  53.432  0.00  0.00    +0.219 C 
BRANCH  30  31
ATOM     31  O4  <0> A   1     -29.434  -5.409  53.953  0.00  0.00    -0.538 OA
ATOM     32  H19 <0> A   1     -28.711  -4.937  54.388  0.00  0.00    +0.367 HD
ENDBRANCH  30  31
BRANCH  30  33
ATOM     33  C10 <0> A   1     -29.936  -7.019  52.222  0.00  0.00    -0.046 C 
BRANCH  33  34
ATOM     34  C11 <0> A   1     -30.603  -8.381  52.431  0.00  0.00    +0.232 C 
BRANCH  34  35
ATOM     35  O3  <0> A   1     -29.635  -9.417  52.256  0.00  0.00    -0.528 OA
ATOM     36  H18 <0> A   1     -28.805  -9.116  51.859  0.00  0.00    +0.351 HD
ENDBRANCH  34  35
BRANCH  34  37
ATOM     37  C12 <0> A   1     -31.178  -8.454  53.847  0.00  0.00    -0.102 C 
BRANCH  37  38
ATOM     38  C13 <0> A   1     -30.859  -9.798  54.449  0.00  0.00    +0.490 C 
ATOM     39  O1  <0> A   1     -29.936  -9.911  55.236  0.00  0.00    -0.681 OA
ATOM     40  O2  <0> A   1     -31.526 -10.774  54.147  0.00  0.00    -0.712 OA
ENDBRANCH  37  38
ENDBRANCH  34  37
ENDBRANCH  33  34
ENDBRANCH  30  33
ENDBRANCH  29  30
ENDBRANCH  28  29
ENDBRANCH   5  28
TORSDOF 14
ENDMDL
