MODEL 1
REMARK VINA RESULT:      -8.9      0.000      0.000
REMARK  Name = CHEMBL355889
REMARK  10 active torsions:
REMARK  status: ('A' for Active; 'I' for Inactive)
REMARK    1  A    between atoms: C1_1  and  C2_2
REMARK    2  A    between atoms: C4_5  and  O4_28
REMARK    3  A    between atoms: C6_8  and  C13_17
REMARK    4  A    between atoms: C7_10  and  C12_16
REMARK    5  A    between atoms: C13_17  and  C14_18
REMARK    6  A    between atoms: C14_18  and  C15_19
REMARK    7  A    between atoms: C17_21  and  O3_27
REMARK    8  A    between atoms: O4_28  and  C20_29
REMARK    9  A    between atoms: C20_29  and  O6_31
REMARK   10  A    between atoms: O6_31  and  C21_32
REMARK                            x       y       z     vdW  Elec       q    Type
REMARK                         _______ _______ _______ _____ _____    ______ ____
ROOT
ATOM      1  C1  <0> A   1      -0.149   2.819  44.913  0.00  0.00    +0.035 C 
ATOM      2  C2  <0> A   1      -1.525   3.402  44.582  0.00  0.00    +0.027 C 
ATOM      3  C3  <0> A   1      -2.090   4.128  45.810  0.00  0.00    +0.023 C 
ATOM      4  C4  <0> A   1      -3.449   4.719  45.436  0.00  0.00    +0.191 C 
ATOM      5  C5  <0> A   1      -4.420   3.654  44.981  0.00  0.00    +0.044 C 
ATOM      6  C6  <0> A   1      -5.382   3.242  46.098  0.00  0.00    +0.012 C 
ATOM      7  C7  <0> A   1      -6.470   2.347  45.502  0.00  0.00    +0.023 C 
ATOM      8  C8  <0> A   1      -5.886   1.241  44.677  0.00  0.00    -0.030 C 
ATOM      9  C9  <0> A   1      -4.663   1.256  44.177  0.00  0.00    -0.005 C 
ATOM     10  C10 <0> A   1      -3.776   2.414  44.437  0.00  0.00    -0.085 C 
ATOM     11  C11 <0> A   1      -2.479   2.291  44.225  0.00  0.00    -0.019 C 
ATOM     12  C12 <0> A   1      -7.387   3.196  44.619  0.00  0.00    +0.030 C 
ENDROOT
BRANCH   6  13
ATOM     13  C13 <0> A   1      -6.019   4.490  46.712  0.00  0.00    +0.060 C 
BRANCH  13  14
ATOM     14  C14 <0> A   1      -7.132   4.073  47.676  0.00  0.00    +0.044 C 
BRANCH  14  15
ATOM     15  C15 <0> A   1      -6.514   3.524  48.963  0.00  0.00    +0.196 C 
ATOM     16  C16 <0> A   1      -7.604   3.369  50.028  0.00  0.00    +0.038 C 
ATOM     17  C17 <0> A   1      -6.973   2.858  51.328  0.00  0.00    +0.182 C 
ATOM     18  C18 <0> A   1      -5.915   3.865  51.794  0.00  0.00    +0.018 C 
ATOM     19  C19 <0> A   1      -4.975   4.136  50.639  0.00  0.00    +0.496 C 
ATOM     20  O1  <0> A   1      -3.777   4.088  50.788  0.00  0.00    -0.454 OA
ATOM     21  O2  <0> A   1      -5.515   4.433  49.439  0.00  0.00    -0.367 OA
BRANCH  17  22
ATOM     22  O3  <0> A   1      -6.361   1.588  51.097  0.00  0.00    -0.562 OA
ATOM     23  H27 <0> A   1      -6.340   1.015  51.875  0.00  0.00    +0.385 HD
ENDBRANCH  17  22
ENDBRANCH  14  15
ENDBRANCH  13  14
ENDBRANCH   6  13
BRANCH   4  24
ATOM     24  O4  <0> A   1      -3.995   5.387  46.574  0.00  0.00    -0.284 OA
BRANCH  24  25
ATOM     25  C20 <0> A   1      -3.796   6.715  46.656  0.00  0.00    +0.582 C 
ATOM     26  O5  <0> A   1      -4.716   7.481  46.450  0.00  0.00    -0.529 OA
BRANCH  25  27
ATOM     27  O6  <0> A   1      -2.579   7.196  46.968  0.00  0.00    -0.266 OA
BRANCH  27  28
ATOM     28  C21 <0> A   1      -2.330   7.513  48.266  0.00  0.00    +0.090 A 
ATOM     29  C22 <0> A   1      -2.470   8.822  48.701  0.00  0.00    +0.023 A 
ATOM     30  C23 <0> A   1      -2.217   9.141  50.021  0.00  0.00    +0.026 A 
ATOM     31  C24 <0> A   1      -1.824   8.156  50.909  0.00  0.00    +0.022 A 
ATOM     32  C25 <0> A   1      -1.684   6.850  50.478  0.00  0.00    +0.028 A 
ATOM     33  C26 <0> A   1      -1.941   6.525  49.160  0.00  0.00    +0.021 A 
ENDBRANCH  27  28
ENDBRANCH  25  27
ENDBRANCH  24  25
ENDBRANCH   4  24
TORSDOF 8
ENDMDL
MODEL 2
REMARK VINA RESULT:      -8.8     20.688     24.390
REMARK  Name = CHEMBL355889
REMARK  10 active torsions:
REMARK  status: ('A' for Active; 'I' for Inactive)
REMARK    1  A    between atoms: C1_1  and  C2_2
REMARK    2  A    between atoms: C4_5  and  O4_28
REMARK    3  A    between atoms: C6_8  and  C13_17
REMARK    4  A    between atoms: C7_10  and  C12_16
REMARK    5  A    between atoms: C13_17  and  C14_18
REMARK    6  A    between atoms: C14_18  and  C15_19
REMARK    7  A    between atoms: C17_21  and  O3_27
REMARK    8  A    between atoms: O4_28  and  C20_29
REMARK    9  A    between atoms: C20_29  and  O6_31
REMARK   10  A    between atoms: O6_31  and  C21_32
REMARK                            x       y       z     vdW  Elec       q    Type
REMARK                         _______ _______ _______ _____ _____    ______ ____
ROOT
ATOM      1  C1  <0> A   1     -28.343   1.743  51.071  0.00  0.00    +0.035 C 
ATOM      2  C2  <0> A   1     -27.304   0.858  50.379  0.00  0.00    +0.027 C 
ATOM      3  C3  <0> A   1     -27.656  -0.620  50.593  0.00  0.00    +0.023 C 
ATOM      4  C4  <0> A   1     -26.615  -1.472  49.868  0.00  0.00    +0.191 C 
ATOM      5  C5  <0> A   1     -25.216  -1.202  50.372  0.00  0.00    +0.044 C 
ATOM      6  C6  <0> A   1     -24.757  -2.258  51.380  0.00  0.00    +0.012 C 
ATOM      7  C7  <0> A   1     -23.268  -2.053  51.662  0.00  0.00    +0.023 C 
ATOM      8  C8  <0> A   1     -22.960  -0.626  51.997  0.00  0.00    -0.030 C 
ATOM      9  C9  <0> A   1     -23.744   0.392  51.695  0.00  0.00    -0.005 C 
ATOM     10  C10 <0> A   1     -25.027   0.150  50.993  0.00  0.00    -0.085 C 
ATOM     11  C11 <0> A   1     -25.944   1.100  50.982  0.00  0.00    -0.019 C 
ATOM     12  C12 <0> A   1     -22.466  -2.458  50.423  0.00  0.00    +0.030 C 
ENDROOT
BRANCH   6  13
ATOM     13  C13 <0> A   1     -24.986  -3.654  50.799  0.00  0.00    +0.060 C 
BRANCH  13  14
ATOM     14  C14 <0> A   1     -24.762  -4.704  51.890  0.00  0.00    +0.044 C 
BRANCH  14  15
ATOM     15  C15 <0> A   1     -24.282  -6.009  51.252  0.00  0.00    +0.196 C 
ATOM     16  C16 <0> A   1     -25.280  -6.451  50.178  0.00  0.00    +0.038 C 
ATOM     17  C17 <0> A   1     -24.818  -7.780  49.571  0.00  0.00    +0.182 C 
ATOM     18  C18 <0> A   1     -24.737  -8.831  50.685  0.00  0.00    +0.018 C 
ATOM     19  C19 <0> A   1     -23.901  -8.266  51.812  0.00  0.00    +0.496 C 
ATOM     20  O1  <0> A   1     -22.999  -8.907  52.300  0.00  0.00    -0.454 OA
ATOM     21  O2  <0> A   1     -24.190  -7.026  52.257  0.00  0.00    -0.367 OA
BRANCH  17  22
ATOM     22  O3  <0> A   1     -23.531  -7.611  48.974  0.00  0.00    -0.562 OA
ATOM     23  H27 <0> A   1     -23.274  -8.334  48.385  0.00  0.00    +0.385 HD
ENDBRANCH  17  22
ENDBRANCH  14  15
ENDBRANCH  13  14
ENDBRANCH   6  13
BRANCH   4  24
ATOM     24  O4  <0> A   1     -26.921  -2.853  50.069  0.00  0.00    -0.284 OA
BRANCH  24  25
ATOM     25  C20 <0> A   1     -28.108  -3.288  49.611  0.00  0.00    +0.582 C 
ATOM     26  O5  <0> A   1     -28.347  -3.261  48.420  0.00  0.00    -0.529 OA
BRANCH  25  27
ATOM     27  O6  <0> A   1     -29.032  -3.755  50.470  0.00  0.00    -0.266 OA
BRANCH  27  28
ATOM     28  C21 <0> A   1     -28.792  -4.945  51.082  0.00  0.00    +0.090 A 
ATOM     29  C22 <0> A   1     -28.326  -4.974  52.388  0.00  0.00    +0.023 A 
ATOM     30  C23 <0> A   1     -28.085  -6.184  53.007  0.00  0.00    +0.026 A 
ATOM     31  C24 <0> A   1     -28.308  -7.367  52.327  0.00  0.00    +0.022 A 
ATOM     32  C25 <0> A   1     -28.773  -7.341  51.026  0.00  0.00    +0.028 A 
ATOM     33  C26 <0> A   1     -29.021  -6.133  50.403  0.00  0.00    +0.021 A 
ENDBRANCH  27  28
ENDBRANCH  25  27
ENDBRANCH  24  25
ENDBRANCH   4  24
TORSDOF 8
ENDMDL
MODEL 3
REMARK VINA RESULT:      -8.8      8.241     11.323
REMARK  Name = CHEMBL355889
REMARK  10 active torsions:
REMARK  status: ('A' for Active; 'I' for Inactive)
REMARK    1  A    between atoms: C1_1  and  C2_2
REMARK    2  A    between atoms: C4_5  and  O4_28
REMARK    3  A    between atoms: C6_8  and  C13_17
REMARK    4  A    between atoms: C7_10  and  C12_16
REMARK    5  A    between atoms: C13_17  and  C14_18
REMARK    6  A    between atoms: C14_18  and  C15_19
REMARK    7  A    between atoms: C17_21  and  O3_27
REMARK    8  A    between atoms: O4_28  and  C20_29
REMARK    9  A    between atoms: C20_29  and  O6_31
REMARK   10  A    between atoms: O6_31  and  C21_32
REMARK                            x       y       z     vdW  Elec       q    Type
REMARK                         _______ _______ _______ _____ _____    ______ ____
ROOT
ATOM      1  C1  <0> A   1     -14.595  11.428  40.519  0.00  0.00    +0.035 C 
ATOM      2  C2  <0> A   1     -13.514  11.022  41.523  0.00  0.00    +0.027 C 
ATOM      3  C3  <0> A   1     -13.720   9.561  41.947  0.00  0.00    +0.023 C 
ATOM      4  C4  <0> A   1     -12.611   9.183  42.927  0.00  0.00    +0.191 C 
ATOM      5  C5  <0> A   1     -12.611  10.073  44.148  0.00  0.00    +0.044 C 
ATOM      6  C6  <0> A   1     -13.307   9.410  45.339  0.00  0.00    +0.012 C 
ATOM      7  C7  <0> A   1     -13.063  10.261  46.586  0.00  0.00    +0.023 C 
ATOM      8  C8  <0> A   1     -13.381  11.704  46.341  0.00  0.00    -0.030 C 
ATOM      9  C9  <0> A   1     -13.454  12.254  45.142  0.00  0.00    -0.005 C 
ATOM     10  C10 <0> A   1     -13.231  11.423  43.937  0.00  0.00    -0.085 C 
ATOM     11  C11 <0> A   1     -13.618  11.878  42.760  0.00  0.00    -0.019 C 
ATOM     12  C12 <0> A   1     -11.593  10.138  46.995  0.00  0.00    +0.030 C 
ENDROOT
BRANCH   6  13
ATOM     13  C13 <0> A   1     -12.735   8.007  45.551  0.00  0.00    +0.060 C 
BRANCH  13  14
ATOM     14  C14 <0> A   1     -13.582   7.261  46.584  0.00  0.00    +0.044 C 
BRANCH  14  15
ATOM     15  C15 <0> A   1     -12.667   6.466  47.517  0.00  0.00    +0.196 C 
ATOM     16  C16 <0> A   1     -12.815   6.992  48.948  0.00  0.00    +0.038 C 
ATOM     17  C17 <0> A   1     -11.867   6.221  49.872  0.00  0.00    +0.182 C 
ATOM     18  C18 <0> A   1     -10.427   6.418  49.380  0.00  0.00    +0.018 C 
ATOM     19  C19 <0> A   1     -10.377   6.074  47.908  0.00  0.00    +0.496 C 
ATOM     20  O1  <0> A   1      -9.529   5.331  47.472  0.00  0.00    -0.454 OA
ATOM     21  O2  <0> A   1     -11.306   6.619  47.097  0.00  0.00    -0.367 OA
BRANCH  17  22
ATOM     22  O3  <0> A   1     -12.199   4.832  49.848  0.00  0.00    -0.562 OA
ATOM     23  H27 <0> A   1     -12.383   4.457  50.720  0.00  0.00    +0.385 HD
ENDBRANCH  17  22
ENDBRANCH  14  15
ENDBRANCH  13  14
ENDBRANCH   6  13
BRANCH   4  24
ATOM     24  O4  <0> A   1     -12.797   7.829  43.341  0.00  0.00    -0.284 OA
BRANCH  24  25
ATOM     25  C20 <0> A   1     -12.933   6.907  42.371  0.00  0.00    +0.582 C 
ATOM     26  O5  <0> A   1     -11.992   6.637  41.653  0.00  0.00    -0.529 OA
BRANCH  25  27
ATOM     27  O6  <0> A   1     -14.112   6.283  42.196  0.00  0.00    -0.266 OA
BRANCH  27  28
ATOM     28  C21 <0> A   1     -14.677   5.671  43.270  0.00  0.00    +0.090 A 
ATOM     29  C22 <0> A   1     -14.021   4.623  43.898  0.00  0.00    +0.023 A 
ATOM     30  C23 <0> A   1     -14.597   4.004  44.990  0.00  0.00    +0.026 A 
ATOM     31  C24 <0> A   1     -15.828   4.428  45.457  0.00  0.00    +0.022 A 
ATOM     32  C25 <0> A   1     -16.484   5.472  44.833  0.00  0.00    +0.028 A 
ATOM     33  C26 <0> A   1     -15.910   6.098  43.744  0.00  0.00    +0.021 A 
ENDBRANCH  27  28
ENDBRANCH  25  27
ENDBRANCH  24  25
ENDBRANCH   4  24
TORSDOF 8
ENDMDL
MODEL 4
REMARK VINA RESULT:      -8.6      1.694      2.374
REMARK  Name = CHEMBL355889
REMARK  10 active torsions:
REMARK  status: ('A' for Active; 'I' for Inactive)
REMARK    1  A    between atoms: C1_1  and  C2_2
REMARK    2  A    between atoms: C4_5  and  O4_28
REMARK    3  A    between atoms: C6_8  and  C13_17
REMARK    4  A    between atoms: C7_10  and  C12_16
REMARK    5  A    between atoms: C13_17  and  C14_18
REMARK    6  A    between atoms: C14_18  and  C15_19
REMARK    7  A    between atoms: C17_21  and  O3_27
REMARK    8  A    between atoms: O4_28  and  C20_29
REMARK    9  A    between atoms: C20_29  and  O6_31
REMARK   10  A    between atoms: O6_31  and  C21_32
REMARK                            x       y       z     vdW  Elec       q    Type
REMARK                         _______ _______ _______ _____ _____    ______ ____
ROOT
ATOM      1  C1  <0> A   1      -0.136   2.740  44.639  0.00  0.00    +0.035 C 
ATOM      2  C2  <0> A   1      -1.524   3.351  44.438  0.00  0.00    +0.027 C 
ATOM      3  C3  <0> A   1      -2.006   3.989  45.748  0.00  0.00    +0.023 C 
ATOM      4  C4  <0> A   1      -3.380   4.610  45.504  0.00  0.00    +0.191 C 
ATOM      5  C5  <0> A   1      -4.386   3.586  45.034  0.00  0.00    +0.044 C 
ATOM      6  C6  <0> A   1      -5.281   3.098  46.176  0.00  0.00    +0.012 C 
ATOM      7  C7  <0> A   1      -6.412   2.252  45.587  0.00  0.00    +0.023 C 
ATOM      8  C8  <0> A   1      -5.889   1.207  44.650  0.00  0.00    -0.030 C 
ATOM      9  C9  <0> A   1      -4.700   1.253  44.076  0.00  0.00    -0.005 C 
ATOM     10  C10 <0> A   1      -3.788   2.385  44.363  0.00  0.00    -0.085 C 
ATOM     11  C11 <0> A   1      -2.508   2.272  44.062  0.00  0.00    -0.019 C 
ATOM     12  C12 <0> A   1      -7.374   3.167  44.827  0.00  0.00    +0.030 C 
ENDROOT
BRANCH   6  13
ATOM     13  C13 <0> A   1      -5.868   4.299  46.918  0.00  0.00    +0.060 C 
BRANCH  13  14
ATOM     14  C14 <0> A   1      -6.287   3.875  48.327  0.00  0.00    +0.044 C 
BRANCH  14  15
ATOM     15  C15 <0> A   1      -7.807   3.980  48.461  0.00  0.00    +0.196 C 
ATOM     16  C16 <0> A   1      -8.319   5.135  47.595  0.00  0.00    +0.038 C 
ATOM     17  C17 <0> A   1      -9.836   5.263  47.765  0.00  0.00    +0.182 C 
ATOM     18  C18 <0> A   1     -10.149   5.529  49.242  0.00  0.00    +0.018 C 
ATOM     19  C19 <0> A   1      -9.454   4.472  50.073  0.00  0.00    +0.496 C 
ATOM     20  O1  <0> A   1     -10.052   3.863  50.929  0.00  0.00    -0.454 OA
ATOM     21  O2  <0> A   1      -8.150   4.229  49.830  0.00  0.00    -0.367 OA
BRANCH  17  22
ATOM     22  O3  <0> A   1     -10.469   4.051  47.349  0.00  0.00    -0.562 OA
ATOM     23  H27 <0> A   1     -11.239   4.185  46.780  0.00  0.00    +0.385 HD
ENDBRANCH  17  22
ENDBRANCH  14  15
ENDBRANCH  13  14
ENDBRANCH   6  13
BRANCH   4  24
ATOM     24  O4  <0> A   1      -3.849   5.197  46.719  0.00  0.00    -0.284 OA
BRANCH  24  25
ATOM     25  C20 <0> A   1      -3.650   6.517  46.877  0.00  0.00    +0.582 C 
ATOM     26  O5  <0> A   1      -3.091   7.155  46.007  0.00  0.00    -0.529 OA
BRANCH  25  27
ATOM     27  O6  <0> A   1      -4.071   7.133  47.996  0.00  0.00    -0.266 OA
BRANCH  27  28
ATOM     28  C21 <0> A   1      -3.143   7.458  48.935  0.00  0.00    +0.090 A 
ATOM     29  C22 <0> A   1      -2.707   8.769  49.057  0.00  0.00    +0.023 A 
ATOM     30  C23 <0> A   1      -1.765   9.096  50.013  0.00  0.00    +0.026 A 
ATOM     31  C24 <0> A   1      -1.257   8.119  50.848  0.00  0.00    +0.022 A 
ATOM     32  C25 <0> A   1      -1.691   6.811  50.729  0.00  0.00    +0.028 A 
ATOM     33  C26 <0> A   1      -2.636   6.479  49.778  0.00  0.00    +0.021 A 
ENDBRANCH  27  28
ENDBRANCH  25  27
ENDBRANCH  24  25
ENDBRANCH   4  24
TORSDOF 8
ENDMDL
MODEL 5
REMARK VINA RESULT:      -8.6      9.324     12.038
REMARK  Name = CHEMBL355889
REMARK  10 active torsions:
REMARK  status: ('A' for Active; 'I' for Inactive)
REMARK    1  A    between atoms: C1_1  and  C2_2
REMARK    2  A    between atoms: C4_5  and  O4_28
REMARK    3  A    between atoms: C6_8  and  C13_17
REMARK    4  A    between atoms: C7_10  and  C12_16
REMARK    5  A    between atoms: C13_17  and  C14_18
REMARK    6  A    between atoms: C14_18  and  C15_19
REMARK    7  A    between atoms: C17_21  and  O3_27
REMARK    8  A    between atoms: O4_28  and  C20_29
REMARK    9  A    between atoms: C20_29  and  O6_31
REMARK   10  A    between atoms: O6_31  and  C21_32
REMARK                            x       y       z     vdW  Elec       q    Type
REMARK                         _______ _______ _______ _____ _____    ______ ____
ROOT
ATOM      1  C1  <0> A   1     -16.032   9.971  48.239  0.00  0.00    +0.035 C 
ATOM      2  C2  <0> A   1     -15.193   8.828  47.666  0.00  0.00    +0.027 C 
ATOM      3  C3  <0> A   1     -14.355   9.339  46.485  0.00  0.00    +0.023 C 
ATOM      4  C4  <0> A   1     -13.512   8.180  45.956  0.00  0.00    +0.191 C 
ATOM      5  C5  <0> A   1     -14.368   7.018  45.509  0.00  0.00    +0.044 C 
ATOM      6  C6  <0> A   1     -14.569   7.007  43.992  0.00  0.00    +0.012 C 
ATOM      7  C7  <0> A   1     -15.238   5.689  43.595  0.00  0.00    +0.023 C 
ATOM      8  C8  <0> A   1     -16.447   5.409  44.435  0.00  0.00    -0.030 C 
ATOM      9  C9  <0> A   1     -16.679   5.967  45.609  0.00  0.00    -0.005 C 
ATOM     10  C10 <0> A   1     -15.717   6.951  46.160  0.00  0.00    -0.085 C 
ATOM     11  C11 <0> A   1     -16.097   7.738  47.150  0.00  0.00    -0.019 C 
ATOM     12  C12 <0> A   1     -14.235   4.548  43.770  0.00  0.00    +0.030 C 
ENDROOT
BRANCH   6  13
ATOM     13  C13 <0> A   1     -13.214   7.128  43.294  0.00  0.00    +0.060 C 
BRANCH  13  14
ATOM     14  C14 <0> A   1     -13.429   7.378  41.800  0.00  0.00    +0.044 C 
BRANCH  14  15
ATOM     15  C15 <0> A   1     -13.121   8.841  41.477  0.00  0.00    +0.196 C 
ATOM     16  C16 <0> A   1     -14.022   9.751  42.316  0.00  0.00    +0.038 C 
ATOM     17  C17 <0> A   1     -13.739  11.214  41.959  0.00  0.00    +0.182 C 
ATOM     18  C18 <0> A   1     -14.017  11.422  40.465  0.00  0.00    +0.018 C 
ATOM     19  C19 <0> A   1     -13.256  10.370  39.689  0.00  0.00    +0.496 C 
ATOM     20  O1  <0> A   1     -12.571  10.671  38.740  0.00  0.00    -0.454 OA
ATOM     21  O2  <0> A   1     -13.366   9.086  40.087  0.00  0.00    -0.367 OA
BRANCH  17  22
ATOM     22  O3  <0> A   1     -12.373  11.521  42.242  0.00  0.00    -0.562 OA
ATOM     23  H27 <0> A   1     -11.758  10.806  42.029  0.00  0.00    +0.385 HD
ENDBRANCH  17  22
ENDBRANCH  14  15
ENDBRANCH  13  14
ENDBRANCH   6  13
BRANCH   4  24
ATOM     24  O4  <0> A   1     -12.735   8.637  44.848  0.00  0.00    -0.284 OA
BRANCH  24  25
ATOM     25  C20 <0> A   1     -11.529   9.164  45.123  0.00  0.00    +0.582 C 
ATOM     26  O5  <0> A   1     -10.608   8.439  45.441  0.00  0.00    -0.529 OA
BRANCH  25  27
ATOM     27  O6  <0> A   1     -11.341  10.494  45.044  0.00  0.00    -0.266 OA
BRANCH  27  28
ATOM     28  C21 <0> A   1     -11.552  11.237  46.162  0.00  0.00    +0.090 A 
ATOM     29  C22 <0> A   1     -11.042  10.818  47.382  0.00  0.00    +0.023 A 
ATOM     30  C23 <0> A   1     -11.257  11.576  48.516  0.00  0.00    +0.026 A 
ATOM     31  C24 <0> A   1     -11.980  12.752  48.437  0.00  0.00    +0.022 A 
ATOM     32  C25 <0> A   1     -12.489  13.172  47.223  0.00  0.00    +0.028 A 
ATOM     33  C26 <0> A   1     -12.272  12.420  46.084  0.00  0.00    +0.021 A 
ENDBRANCH  27  28
ENDBRANCH  25  27
ENDBRANCH  24  25
ENDBRANCH   4  24
TORSDOF 8
ENDMDL
MODEL 6
REMARK VINA RESULT:      -8.4     23.749     27.786
REMARK  Name = CHEMBL355889
REMARK  10 active torsions:
REMARK  status: ('A' for Active; 'I' for Inactive)
REMARK    1  A    between atoms: C1_1  and  C2_2
REMARK    2  A    between atoms: C4_5  and  O4_28
REMARK    3  A    between atoms: C6_8  and  C13_17
REMARK    4  A    between atoms: C7_10  and  C12_16
REMARK    5  A    between atoms: C13_17  and  C14_18
REMARK    6  A    between atoms: C14_18  and  C15_19
REMARK    7  A    between atoms: C17_21  and  O3_27
REMARK    8  A    between atoms: O4_28  and  C20_29
REMARK    9  A    between atoms: C20_29  and  O6_31
REMARK   10  A    between atoms: O6_31  and  C21_32
REMARK                            x       y       z     vdW  Elec       q    Type
REMARK                         _______ _______ _______ _____ _____    ______ ____
ROOT
ATOM      1  C1  <0> A   1     -29.471 -13.316  52.449  0.00  0.00    +0.035 C 
ATOM      2  C2  <0> A   1     -30.063 -11.940  52.134  0.00  0.00    +0.027 C 
ATOM      3  C3  <0> A   1     -28.949 -10.985  51.684  0.00  0.00    +0.023 C 
ATOM      4  C4  <0> A   1     -29.579  -9.633  51.354  0.00  0.00    +0.191 C 
ATOM      5  C5  <0> A   1     -30.307  -9.046  52.540  0.00  0.00    +0.044 C 
ATOM      6  C6  <0> A   1     -29.463  -7.996  53.267  0.00  0.00    +0.012 C 
ATOM      7  C7  <0> A   1     -30.343  -7.287  54.298  0.00  0.00    +0.023 C 
ATOM      8  C8  <0> A   1     -31.085  -8.264  55.157  0.00  0.00    -0.030 C 
ATOM      9  C9  <0> A   1     -31.297  -9.526  54.830  0.00  0.00    -0.005 C 
ATOM     10  C10 <0> A   1     -30.771 -10.053  53.549  0.00  0.00    -0.085 C 
ATOM     11  C11 <0> A   1     -30.695 -11.360  53.373  0.00  0.00    -0.019 C 
ATOM     12  C12 <0> A   1     -31.352  -6.400  53.566  0.00  0.00    +0.030 C 
ENDROOT
BRANCH   6  13
ATOM     13  C13 <0> A   1     -28.928  -6.979  52.258  0.00  0.00    +0.060 C 
BRANCH  13  14
ATOM     14  C14 <0> A   1     -27.810  -6.159  52.903  0.00  0.00    +0.044 C 
BRANCH  14  15
ATOM     15  C15 <0> A   1     -26.818  -5.712  51.828  0.00  0.00    +0.196 C 
ATOM     16  C16 <0> A   1     -25.545  -6.558  51.923  0.00  0.00    +0.038 C 
ATOM     17  C17 <0> A   1     -24.538  -6.079  50.871  0.00  0.00    +0.182 C 
ATOM     18  C18 <0> A   1     -24.215  -4.602  51.131  0.00  0.00    +0.018 C 
ATOM     19  C19 <0> A   1     -25.519  -3.840  51.227  0.00  0.00    +0.496 C 
ATOM     20  O1  <0> A   1     -25.689  -2.819  50.602  0.00  0.00    -0.454 OA
ATOM     21  O2  <0> A   1     -26.484  -4.333  52.029  0.00  0.00    -0.367 OA
BRANCH  17  22
ATOM     22  O3  <0> A   1     -25.101  -6.226  49.567  0.00  0.00    -0.562 OA
ATOM     23  H27 <0> A   1     -25.083  -7.133  49.231  0.00  0.00    +0.385 HD
ENDBRANCH  17  22
ENDBRANCH  14  15
ENDBRANCH  13  14
ENDBRANCH   6  13
BRANCH   4  24
ATOM     24  O4  <0> A   1     -28.551  -8.728  50.946  0.00  0.00    -0.284 OA
BRANCH  24  25
ATOM     25  C20 <0> A   1     -27.934  -8.990  49.780  0.00  0.00    +0.582 C 
ATOM     26  O5  <0> A   1     -28.571  -9.415  48.837  0.00  0.00    -0.529 OA
BRANCH  25  27
ATOM     27  O6  <0> A   1     -26.610  -8.781  49.657  0.00  0.00    -0.266 OA
BRANCH  27  28
ATOM     28  C21 <0> A   1     -25.802  -9.864  49.514  0.00  0.00    +0.090 A 
ATOM     29  C22 <0> A   1     -25.343 -10.228  48.258  0.00  0.00    +0.023 A 
ATOM     30  C23 <0> A   1     -24.521 -11.329  48.116  0.00  0.00    +0.026 A 
ATOM     31  C24 <0> A   1     -24.155 -12.068  49.226  0.00  0.00    +0.022 A 
ATOM     32  C25 <0> A   1     -24.611 -11.708  50.480  0.00  0.00    +0.028 A 
ATOM     33  C26 <0> A   1     -25.430 -10.604  50.628  0.00  0.00    +0.021 A 
ENDBRANCH  27  28
ENDBRANCH  25  27
ENDBRANCH  24  25
ENDBRANCH   4  24
TORSDOF 8
ENDMDL
MODEL 7
REMARK VINA RESULT:      -8.3      9.756     13.407
REMARK  Name = CHEMBL355889
REMARK  10 active torsions:
REMARK  status: ('A' for Active; 'I' for Inactive)
REMARK    1  A    between atoms: C1_1  and  C2_2
REMARK    2  A    between atoms: C4_5  and  O4_28
REMARK    3  A    between atoms: C6_8  and  C13_17
REMARK    4  A    between atoms: C7_10  and  C12_16
REMARK    5  A    between atoms: C13_17  and  C14_18
REMARK    6  A    between atoms: C14_18  and  C15_19
REMARK    7  A    between atoms: C17_21  and  O3_27
REMARK    8  A    between atoms: O4_28  and  C20_29
REMARK    9  A    between atoms: C20_29  and  O6_31
REMARK   10  A    between atoms: O6_31  and  C21_32
REMARK                            x       y       z     vdW  Elec       q    Type
REMARK                         _______ _______ _______ _____ _____    ______ ____
ROOT
ATOM      1  C1  <0> A   1     -17.320   9.427  51.489  0.00  0.00    +0.035 C 
ATOM      2  C2  <0> A   1     -17.143   9.863  50.033  0.00  0.00    +0.027 C 
ATOM      3  C3  <0> A   1     -16.802   8.645  49.164  0.00  0.00    +0.023 C 
ATOM      4  C4  <0> A   1     -16.659   9.112  47.716  0.00  0.00    +0.191 C 
ATOM      5  C5  <0> A   1     -15.584  10.163  47.567  0.00  0.00    +0.044 C 
ATOM      6  C6  <0> A   1     -14.269   9.567  47.057  0.00  0.00    +0.012 C 
ATOM      7  C7  <0> A   1     -13.314  10.711  46.711  0.00  0.00    +0.023 C 
ATOM      8  C8  <0> A   1     -13.213  11.704  47.828  0.00  0.00    -0.030 C 
ATOM      9  C9  <0> A   1     -14.108  11.829  48.792  0.00  0.00    -0.005 C 
ATOM     10  C10 <0> A   1     -15.293  10.940  48.816  0.00  0.00    -0.085 C 
ATOM     11  C11 <0> A   1     -15.999  10.839  49.927  0.00  0.00    -0.019 C 
ATOM     12  C12 <0> A   1     -13.823  11.423  45.456  0.00  0.00    +0.030 C 
ENDROOT
BRANCH   6  13
ATOM     13  C13 <0> A   1     -14.537   8.723  45.811  0.00  0.00    +0.060 C 
BRANCH  13  14
ATOM     14  C14 <0> A   1     -13.327   7.832  45.527  0.00  0.00    +0.044 C 
BRANCH  14  15
ATOM     15  C15 <0> A   1     -12.709   8.221  44.183  0.00  0.00    +0.196 C 
ATOM     16  C16 <0> A   1     -13.818   8.644  43.214  0.00  0.00    +0.038 C 
ATOM     17  C17 <0> A   1     -13.199   8.992  41.856  0.00  0.00    +0.182 C 
ATOM     18  C18 <0> A   1     -12.463   7.760  41.316  0.00  0.00    +0.018 C 
ATOM     19  C19 <0> A   1     -11.521   7.261  42.389  0.00  0.00    +0.496 C 
ATOM     20  O1  <0> A   1     -10.364   7.016  42.136  0.00  0.00    -0.454 OA
ATOM     21  O2  <0> A   1     -12.008   7.098  43.636  0.00  0.00    -0.367 OA
BRANCH  17  22
ATOM     22  O3  <0> A   1     -12.278  10.073  42.013  0.00  0.00    -0.562 OA
ATOM     23  H27 <0> A   1     -11.568  10.082  41.357  0.00  0.00    +0.385 HD
ENDBRANCH  17  22
ENDBRANCH  14  15
ENDBRANCH  13  14
ENDBRANCH   6  13
BRANCH   4  24
ATOM     24  O4  <0> A   1     -16.329   7.991  46.896  0.00  0.00    -0.284 OA
BRANCH  24  25
ATOM     25  C20 <0> A   1     -17.319   7.124  46.618  0.00  0.00    +0.582 C 
ATOM     26  O5  <0> A   1     -18.438   7.535  46.383  0.00  0.00    -0.529 OA
BRANCH  25  27
ATOM     27  O6  <0> A   1     -17.071   5.802  46.597  0.00  0.00    -0.266 OA
BRANCH  27  28
ATOM     28  C21 <0> A   1     -16.129   5.341  45.732  0.00  0.00    +0.090 A 
ATOM     29  C22 <0> A   1     -16.199   5.673  44.387  0.00  0.00    +0.023 A 
ATOM     30  C23 <0> A   1     -15.240   5.204  43.510  0.00  0.00    +0.026 A 
ATOM     31  C24 <0> A   1     -14.211   4.404  43.972  0.00  0.00    +0.022 A 
ATOM     32  C25 <0> A   1     -14.139   4.072  45.312  0.00  0.00    +0.028 A 
ATOM     33  C26 <0> A   1     -15.093   4.543  46.194  0.00  0.00    +0.021 A 
ENDBRANCH  27  28
ENDBRANCH  25  27
ENDBRANCH  24  25
ENDBRANCH   4  24
TORSDOF 8
ENDMDL
MODEL 8
REMARK VINA RESULT:      -8.2     32.539     34.399
REMARK  Name = CHEMBL355889
REMARK  10 active torsions:
REMARK  status: ('A' for Active; 'I' for Inactive)
REMARK    1  A    between atoms: C1_1  and  C2_2
REMARK    2  A    between atoms: C4_5  and  O4_28
REMARK    3  A    between atoms: C6_8  and  C13_17
REMARK    4  A    between atoms: C7_10  and  C12_16
REMARK    5  A    between atoms: C13_17  and  C14_18
REMARK    6  A    between atoms: C14_18  and  C15_19
REMARK    7  A    between atoms: C17_21  and  O3_27
REMARK    8  A    between atoms: O4_28  and  C20_29
REMARK    9  A    between atoms: C20_29  and  O6_31
REMARK   10  A    between atoms: O6_31  and  C21_32
REMARK                            x       y       z     vdW  Elec       q    Type
REMARK                         _______ _______ _______ _____ _____    ______ ____
ROOT
ATOM      1  C1  <0> A   1     -32.091  18.662  31.990  0.00  0.00    +0.035 C 
ATOM      2  C2  <0> A   1     -32.552  19.858  32.826  0.00  0.00    +0.027 C 
ATOM      3  C3  <0> A   1     -31.332  20.637  33.337  0.00  0.00    +0.023 C 
ATOM      4  C4  <0> A   1     -31.829  21.835  34.143  0.00  0.00    +0.191 C 
ATOM      5  C5  <0> A   1     -32.689  21.411  35.311  0.00  0.00    +0.044 C 
ATOM      6  C6  <0> A   1     -31.903  21.394  36.623  0.00  0.00    +0.012 C 
ATOM      7  C7  <0> A   1     -32.883  21.187  37.780  0.00  0.00    +0.023 C 
ATOM      8  C8  <0> A   1     -33.797  20.027  37.529  0.00  0.00    -0.030 C 
ATOM      9  C9  <0> A   1     -34.030  19.511  36.335  0.00  0.00    -0.005 C 
ATOM     10  C10 <0> A   1     -33.352  20.076  35.145  0.00  0.00    -0.085 C 
ATOM     11  C11 <0> A   1     -33.325  19.375  34.027  0.00  0.00    -0.019 C 
ATOM     12  C12 <0> A   1     -33.723  22.454  37.955  0.00  0.00    +0.030 C 
ENDROOT
BRANCH   6  13
ATOM     13  C13 <0> A   1     -31.169  22.724  36.800  0.00  0.00    +0.060 C 
BRANCH  13  14
ATOM     14  C14 <0> A   1     -30.061  22.562  37.842  0.00  0.00    +0.044 C 
BRANCH  14  15
ATOM     15  C15 <0> A   1     -29.730  23.925  38.453  0.00  0.00    +0.196 C 
ATOM     16  C16 <0> A   1     -30.968  24.482  39.162  0.00  0.00    +0.038 C 
ATOM     17  C17 <0> A   1     -30.644  25.865  39.736  0.00  0.00    +0.182 C 
ATOM     18  C18 <0> A   1     -30.227  26.793  38.588  0.00  0.00    +0.018 C 
ATOM     19  C19 <0> A   1     -29.135  26.108  37.796  0.00  0.00    +0.496 C 
ATOM     20  O1  <0> A   1     -28.114  26.690  37.514  0.00  0.00    -0.454 OA
ATOM     21  O2  <0> A   1     -29.333  24.830  37.415  0.00  0.00    -0.367 OA
BRANCH  17  22
ATOM     22  O3  <0> A   1     -29.575  25.755  40.678  0.00  0.00    -0.562 OA
ATOM     23  H27 <0> A   1     -29.535  24.900  41.128  0.00  0.00    +0.385 HD
ENDBRANCH  17  22
ENDBRANCH  14  15
ENDBRANCH  13  14
ENDBRANCH   6  13
BRANCH   4  24
ATOM     24  O4  <0> A   1     -30.704  22.564  34.637  0.00  0.00    -0.284 OA
BRANCH  24  25
ATOM     25  C20 <0> A   1     -30.223  23.548  33.857  0.00  0.00    +0.582 C 
ATOM     26  O5  <0> A   1     -30.678  24.671  33.947  0.00  0.00    -0.529 OA
BRANCH  25  27
ATOM     27  O6  <0> A   1     -29.238  23.290  32.978  0.00  0.00    -0.266 OA
BRANCH  27  28
ATOM     28  C21 <0> A   1     -27.974  23.666  33.306  0.00  0.00    +0.090 A 
ATOM     29  C22 <0> A   1     -27.587  23.720  34.637  0.00  0.00    +0.023 A 
ATOM     30  C23 <0> A   1     -26.302  24.101  34.967  0.00  0.00    +0.026 A 
ATOM     31  C24 <0> A   1     -25.399  24.428  33.972  0.00  0.00    +0.022 A 
ATOM     32  C25 <0> A   1     -25.781  24.374  32.644  0.00  0.00    +0.028 A 
ATOM     33  C26 <0> A   1     -27.065  23.989  32.308  0.00  0.00    +0.021 A 
ENDBRANCH  27  28
ENDBRANCH  25  27
ENDBRANCH  24  25
ENDBRANCH   4  24
TORSDOF 8
ENDMDL
MODEL 9
REMARK VINA RESULT:      -8.2     19.081     23.490
REMARK  Name = CHEMBL355889
REMARK  10 active torsions:
REMARK  status: ('A' for Active; 'I' for Inactive)
REMARK    1  A    between atoms: C1_1  and  C2_2
REMARK    2  A    between atoms: C4_5  and  O4_28
REMARK    3  A    between atoms: C6_8  and  C13_17
REMARK    4  A    between atoms: C7_10  and  C12_16
REMARK    5  A    between atoms: C13_17  and  C14_18
REMARK    6  A    between atoms: C14_18  and  C15_19
REMARK    7  A    between atoms: C17_21  and  O3_27
REMARK    8  A    between atoms: O4_28  and  C20_29
REMARK    9  A    between atoms: C20_29  and  O6_31
REMARK   10  A    between atoms: O6_31  and  C21_32
REMARK                            x       y       z     vdW  Elec       q    Type
REMARK                         _______ _______ _______ _____ _____    ______ ____
ROOT
ATOM      1  C1  <0> A   1     -28.843  -6.282  53.300  0.00  0.00    +0.035 C 
ATOM      2  C2  <0> A   1     -27.980  -5.613  52.228  0.00  0.00    +0.027 C 
ATOM      3  C3  <0> A   1     -26.508  -5.997  52.432  0.00  0.00    +0.023 C 
ATOM      4  C4  <0> A   1     -25.681  -5.335  51.332  0.00  0.00    +0.191 C 
ATOM      5  C5  <0> A   1     -25.823  -3.831  51.348  0.00  0.00    +0.044 C 
ATOM      6  C6  <0> A   1     -24.646  -3.153  52.053  0.00  0.00    +0.012 C 
ATOM      7  C7  <0> A   1     -24.741  -1.643  51.824  0.00  0.00    +0.023 C 
ATOM      8  C8  <0> A   1     -26.108  -1.120  52.146  0.00  0.00    -0.030 C 
ATOM      9  C9  <0> A   1     -27.193  -1.872  52.210  0.00  0.00    -0.005 C 
ATOM     10  C10 <0> A   1     -27.092  -3.331  51.971  0.00  0.00    -0.085 C 
ATOM     11  C11 <0> A   1     -28.085  -4.114  52.348  0.00  0.00    -0.019 C 
ATOM     12  C12 <0> A   1     -24.424  -1.339  50.359  0.00  0.00    +0.030 C 
ENDROOT
BRANCH   6  13
ATOM     13  C13 <0> A   1     -23.331  -3.679  51.477  0.00  0.00    +0.060 C 
BRANCH  13  14
ATOM     14  C14 <0> A   1     -22.201  -2.702  51.808  0.00  0.00    +0.044 C 
BRANCH  14  15
ATOM     15  C15 <0> A   1     -21.364  -3.260  52.961  0.00  0.00    +0.196 C 
ATOM     16  C16 <0> A   1     -21.108  -2.153  53.988  0.00  0.00    +0.038 C 
ATOM     17  C17 <0> A   1     -20.234  -2.705  55.120  0.00  0.00    +0.182 C 
ATOM     18  C18 <0> A   1     -18.908  -3.198  54.528  0.00  0.00    +0.018 C 
ATOM     19  C19 <0> A   1     -19.219  -4.138  53.384  0.00  0.00    +0.496 C 
ATOM     20  O1  <0> A   1     -18.683  -5.218  53.305  0.00  0.00    -0.454 OA
ATOM     21  O2  <0> A   1     -20.111  -3.735  52.456  0.00  0.00    -0.367 OA
BRANCH  17  22
ATOM     22  O3  <0> A   1     -20.909  -3.790  55.761  0.00  0.00    -0.562 OA
ATOM     23  H27 <0> A   1     -20.439  -4.147  56.526  0.00  0.00    +0.385 HD
ENDBRANCH  17  22
ENDBRANCH  14  15
ENDBRANCH  13  14
ENDBRANCH   6  13
BRANCH   4  24
ATOM     24  O4  <0> A   1     -24.305  -5.672  51.517  0.00  0.00    -0.284 OA
BRANCH  24  25
ATOM     25  C20 <0> A   1     -23.961  -6.959  51.332  0.00  0.00    +0.582 C 
ATOM     26  O5  <0> A   1     -23.453  -7.589  52.238  0.00  0.00    -0.529 OA
BRANCH  25  27
ATOM     27  O6  <0> A   1     -24.181  -7.551  50.143  0.00  0.00    -0.266 OA
BRANCH  27  28
ATOM     28  C21 <0> A   1     -24.353  -8.899  50.122  0.00  0.00    +0.090 A 
ATOM     29  C22 <0> A   1     -23.417  -9.709  49.497  0.00  0.00    +0.023 A 
ATOM     30  C23 <0> A   1     -23.594 -11.079  49.479  0.00  0.00    +0.026 A 
ATOM     31  C24 <0> A   1     -24.702 -11.643  50.083  0.00  0.00    +0.022 A 
ATOM     32  C25 <0> A   1     -25.636 -10.838  50.707  0.00  0.00    +0.028 A 
ATOM     33  C26 <0> A   1     -25.462  -9.467  50.733  0.00  0.00    +0.021 A 
ENDBRANCH  27  28
ENDBRANCH  25  27
ENDBRANCH  24  25
ENDBRANCH   4  24
TORSDOF 8
ENDMDL
MODEL 10
REMARK VINA RESULT:      -8.2     22.870     26.748
REMARK  Name = CHEMBL355889
REMARK  10 active torsions:
REMARK  status: ('A' for Active; 'I' for Inactive)
REMARK    1  A    between atoms: C1_1  and  C2_2
REMARK    2  A    between atoms: C4_5  and  O4_28
REMARK    3  A    between atoms: C6_8  and  C13_17
REMARK    4  A    between atoms: C7_10  and  C12_16
REMARK    5  A    between atoms: C13_17  and  C14_18
REMARK    6  A    between atoms: C14_18  and  C15_19
REMARK    7  A    between atoms: C17_21  and  O3_27
REMARK    8  A    between atoms: O4_28  and  C20_29
REMARK    9  A    between atoms: C20_29  and  O6_31
REMARK   10  A    between atoms: O6_31  and  C21_32
REMARK                            x       y       z     vdW  Elec       q    Type
REMARK                         _______ _______ _______ _____ _____    ______ ____
ROOT
ATOM      1  C1  <0> A   1     -23.723  -2.906  50.787  0.00  0.00    +0.035 C 
ATOM      2  C2  <0> A   1     -24.405  -4.063  51.520  0.00  0.00    +0.027 C 
ATOM      3  C3  <0> A   1     -24.577  -5.254  50.568  0.00  0.00    +0.023 C 
ATOM      4  C4  <0> A   1     -25.236  -6.396  51.339  0.00  0.00    +0.191 C 
ATOM      5  C5  <0> A   1     -26.579  -5.995  51.902  0.00  0.00    +0.044 C 
ATOM      6  C6  <0> A   1     -27.735  -6.485  51.027  0.00  0.00    +0.012 C 
ATOM      7  C7  <0> A   1     -29.050  -6.250  51.774  0.00  0.00    +0.023 C 
ATOM      8  C8  <0> A   1     -29.147  -4.847  52.292  0.00  0.00    -0.030 C 
ATOM      9  C9  <0> A   1     -28.111  -4.047  52.464  0.00  0.00    -0.005 C 
ATOM     10  C10 <0> A   1     -26.750  -4.521  52.119  0.00  0.00    -0.085 C 
ATOM     11  C11 <0> A   1     -25.777  -3.639  51.979  0.00  0.00    -0.019 C 
ATOM     12  C12 <0> A   1     -29.136  -7.222  52.952  0.00  0.00    +0.030 C 
ENDROOT
BRANCH   6  13
ATOM     13  C13 <0> A   1     -27.565  -7.978  50.741  0.00  0.00    +0.060 C 
BRANCH  13  14
ATOM     14  C14 <0> A   1     -28.595  -8.419  49.700  0.00  0.00    +0.044 C 
BRANCH  14  15
ATOM     15  C15 <0> A   1     -29.238  -9.735  50.143  0.00  0.00    +0.196 C 
ATOM     16  C16 <0> A   1     -30.720  -9.502  50.449  0.00  0.00    +0.038 C 
ATOM     17  C17 <0> A   1     -31.350 -10.813  50.932  0.00  0.00    +0.182 C 
ATOM     18  C18 <0> A   1     -30.614 -11.281  52.194  0.00  0.00    +0.018 C 
ATOM     19  C19 <0> A   1     -29.131 -11.304  51.897  0.00  0.00    +0.496 C 
ATOM     20  O1  <0> A   1     -28.457 -12.270  52.168  0.00  0.00    -0.454 OA
ATOM     21  O2  <0> A   1     -28.582 -10.214  51.322  0.00  0.00    -0.367 OA
BRANCH  17  22
ATOM     22  O3  <0> A   1     -31.234 -11.805  49.910  0.00  0.00    -0.562 OA
ATOM     23  H27 <0> A   1     -31.632 -12.655  50.142  0.00  0.00    +0.385 HD
ENDBRANCH  17  22
ENDBRANCH  14  15
ENDBRANCH  13  14
ENDBRANCH   6  13
BRANCH   4  24
ATOM     24  O4  <0> A   1     -25.415  -7.508  50.461  0.00  0.00    -0.284 OA
BRANCH  24  25
ATOM     25  C20 <0> A   1     -24.331  -7.938  49.791  0.00  0.00    +0.582 C 
ATOM     26  O5  <0> A   1     -24.123  -7.551  48.659  0.00  0.00    -0.529 OA
BRANCH  25  27
ATOM     27  O6  <0> A   1     -23.475  -8.797  50.375  0.00  0.00    -0.266 OA
BRANCH  27  28
ATOM     28  C21 <0> A   1     -23.825 -10.110  50.430  0.00  0.00    +0.090 A 
ATOM     29  C22 <0> A   1     -24.210 -10.676  51.636  0.00  0.00    +0.023 A 
ATOM     30  C23 <0> A   1     -24.566 -12.010  51.689  0.00  0.00    +0.026 A 
ATOM     31  C24 <0> A   1     -24.540 -12.780  50.541  0.00  0.00    +0.022 A 
ATOM     32  C25 <0> A   1     -24.157 -12.218  49.338  0.00  0.00    +0.028 A 
ATOM     33  C26 <0> A   1     -23.805 -10.883  49.278  0.00  0.00    +0.021 A 
ENDBRANCH  27  28
ENDBRANCH  25  27
ENDBRANCH  24  25
ENDBRANCH   4  24
TORSDOF 8
ENDMDL
