REMARK VINA RESULT:      -8.3      1.920      2.757
REMARK  Name = CHEMBL318707
REMARK  11 active torsions:
REMARK  status: ('A' for Active; 'I' for Inactive)
REMARK    1  A    between atoms: C1_1  and  C2_2
REMARK    2  A    between atoms: C2_2  and  C3_3
REMARK    3  A    between atoms: C2_2  and  C4_4
REMARK    4  A    between atoms: C6_6  and  C19_24
REMARK    5  A    between atoms: C7_7  and  O1_13
REMARK    6  A    between atoms: C8_8  and  C10_10
REMARK    7  A    between atoms: C10_10  and  C11_11
REMARK    8  A    between atoms: C10_10  and  C12_12
REMARK    9  A    between atoms: O1_13  and  C13_14
REMARK   10  A    between atoms: C13_14  and  C14_15
REMARK   11  A    between atoms: C16_17  and  O4_23
REMARK                            x       y       z     vdW  Elec       q    Type
REMARK                         _______ _______ _______ _____ _____    ______ ____
ROOT
ATOM      1  C4  <0> A   1      -2.740   3.217  44.684  0.00  0.00    -0.073 A 
ATOM      2  C5  <0> A   1      -2.446   4.209  45.600  0.00  0.00    +0.034 A 
ATOM      3  C6  <0> A   1      -3.453   4.727  46.410  0.00  0.00    -0.061 A 
ATOM      4  C7  <0> A   1      -4.758   4.239  46.291  0.00  0.00    +0.102 A 
ATOM      5  C8  <0> A   1      -5.040   3.245  45.367  0.00  0.00    -0.080 A 
ATOM      6  C9  <0> A   1      -4.032   2.741  44.564  0.00  0.00    +0.029 A 
ENDROOT
BRANCH   3   7
ATOM      7  C19 <0> A   1      -3.143   5.790  47.396  0.00  0.00    -0.057 A 
ATOM      8  C20 <0> A   1      -3.361   7.129  47.072  0.00  0.00    +0.077 A 
ATOM      9  C21 <0> A   1      -3.071   8.115  47.993  0.00  0.00    -0.016 A 
ATOM     10  C22 <0> A   1      -2.564   7.777  49.236  0.00  0.00    +0.102 A 
ATOM     11  C23 <0> A   1      -2.345   6.448  49.562  0.00  0.00    -0.018 A 
ATOM     12  C24 <0> A   1      -2.637   5.455  48.651  0.00  0.00    +0.053 A 
ATOM     13  F1  <0> A   1      -2.279   8.746  50.134  0.00  0.00    -0.139 F 
ENDBRANCH   3   7
BRANCH   1  15
ATOM     14  C1  <0> A   1      -1.767   3.252  42.403  0.00  0.00    +0.028 C 
ATOM     15  C2  <0> A   1      -1.649   2.658  43.809  0.00  0.00    +0.022 C 
ATOM     16  C3  <0> A   1      -0.285   3.017  44.401  0.00  0.00    +0.027 C 
ENDBRANCH   1  15
BRANCH   5  17
ATOM     17  C10 <0> A   1      -6.444   2.716  45.235  0.00  0.00    +0.031 C 
ATOM     18  C11 <0> A   1      -7.287   3.703  44.425  0.00  0.00    +0.029 C 
ATOM     19  C12 <0> A   1      -6.414   1.364  44.519  0.00  0.00    +0.025 C 
ENDBRANCH   5  17
BRANCH   4  20
ATOM     20  O1  <0> A   1      -5.748   4.739  47.077  0.00  0.00    -0.317 OA
BRANCH  20  21
ATOM     21  C13 <0> A   1      -6.076   3.998  48.254  0.00  0.00    +0.217 C 
BRANCH  21  22
ATOM     22  C14 <0> A   1      -7.596   3.963  48.427  0.00  0.00    +0.210 C 
ATOM     23  C15 <0> A   1      -8.229   5.107  47.632  0.00  0.00    +0.048 C 
ATOM     24  C16 <0> A   1      -9.746   5.094  47.840  0.00  0.00    +0.190 C 
ATOM     25  C17 <0> A   1     -10.041   5.261  49.337  0.00  0.00    +0.023 C 
ATOM     26  C18 <0> A   1      -9.236   4.230  50.098  0.00  0.00    +0.495 C 
ATOM     27  O2  <0> A   1      -9.755   3.531  50.936  0.00  0.00    -0.449 OA
ATOM     28  O3  <0> A   1      -7.922   4.114  49.813  0.00  0.00    -0.361 OA
BRANCH  24  29
ATOM     29  O4  <0> A   1     -10.282   3.852  47.380  0.00  0.00    -0.563 OA
ATOM     30  H25 <0> A   1     -11.222   3.889  47.153  0.00  0.00    +0.388 HD
ENDBRANCH  24  29
ENDBRANCH  21  22
ENDBRANCH  20  21
ENDBRANCH   4  20
TORSDOF 7
