MODEL 1
REMARK VINA RESULT:      -8.0      0.000      0.000
REMARK  Name = CHEMBL120949
REMARK  9 active torsions:
REMARK  status: ('A' for Active; 'I' for Inactive)
REMARK    1  A    between atoms: C1_1  and  C2_2
REMARK    2  A    between atoms: C2_2  and  C3_3
REMARK    3  A    between atoms: C2_2  and  C4_4
REMARK    4  A    between atoms: C6_6  and  C21_28
REMARK    5  A    between atoms: C7_7  and  C15_21
REMARK    6  A    between atoms: N1_8  and  C8_9
REMARK    7  A    between atoms: C8_9  and  C9_10
REMARK    8  A    between atoms: C9_10  and  C10_11
REMARK    9  A    between atoms: C12_14  and  O3_20
REMARK                            x       y       z     vdW  Elec       q    Type
REMARK                         _______ _______ _______ _____ _____    ______ ____
ROOT
ATOM      1  C4  <0> A   1     -15.155  10.387  47.204  0.00  0.00    +0.044 C 
ATOM      2  C5  <0> A   1     -16.145   9.822  47.921  0.00  0.00    -0.033 C 
ATOM      3  C6  <0> A   1     -16.195   8.450  47.578  0.00  0.00    -0.106 C 
ATOM      4  C7  <0> A   1     -15.201   8.236  46.637  0.00  0.00    +0.064 C 
ATOM      5  N1  <0> A   1     -14.577   9.435  46.416  0.00  0.00    -0.427 N 
ENDROOT
BRANCH   4   6
ATOM      6  C15 <0> A   1     -14.877   6.950  45.987  0.00  0.00    -0.028 A 
ATOM      7  C16 <0> A   1     -14.007   6.052  46.605  0.00  0.00    +0.043 A 
ATOM      8  C17 <0> A   1     -13.708   4.852  45.994  0.00  0.00    -0.008 A 
ATOM      9  C18 <0> A   1     -14.272   4.537  44.767  0.00  0.00    +0.104 A 
ATOM     10  C19 <0> A   1     -15.136   5.427  44.148  0.00  0.00    -0.007 A 
ATOM     11  C20 <0> A   1     -15.446   6.626  44.753  0.00  0.00    +0.068 A 
ATOM     12  F1  <0> A   1     -13.976   3.362  44.172  0.00  0.00    -0.137 F 
ENDBRANCH   4   6
BRANCH   3  13
ATOM     13  C21 <0> A   1     -17.130   7.436  48.121  0.00  0.00    -0.053 A 
ATOM     14  C22 <0> A   1     -16.841   6.771  49.317  0.00  0.00    +0.065 A 
ATOM     15  C23 <0> A   1     -17.746   5.833  49.782  0.00  0.00    -0.035 A 
ATOM     16  C24 <0> A   1     -18.897   5.586  49.056  0.00  0.00    +0.243 A 
ATOM     17  N2  <0> A   1     -19.142   6.228  47.929  0.00  0.00    -0.481 NA
ATOM     18  C25 <0> A   1     -18.314   7.133  47.451  0.00  0.00    +0.260 A 
ENDBRANCH   3  13
BRANCH   1  20
ATOM     19  C1  <0> A   1     -15.980  12.693  47.592  0.00  0.00    +0.040 C 
ATOM     20  C2  <0> A   1     -14.755  11.839  47.258  0.00  0.00    +0.048 C 
ATOM     21  C3  <0> A   1     -13.688  12.034  48.336  0.00  0.00    +0.032 C 
ENDBRANCH   1  20
BRANCH   5  22
ATOM     22  C8  <0> A   1     -13.468   9.659  45.486  0.00  0.00    +0.292 C 
BRANCH  22  23
ATOM     23  C9  <0> A   1     -13.955  10.500  44.304  0.00  0.00    +0.052 C 
BRANCH  23  24
ATOM     24  C10 <0> A   1     -13.238  10.052  43.029  0.00  0.00    +0.203 C 
ATOM     25  C11 <0> A   1     -13.732  10.886  41.844  0.00  0.00    +0.045 C 
ATOM     26  C12 <0> A   1     -13.042  10.407  40.563  0.00  0.00    +0.186 C 
ATOM     27  C13 <0> A   1     -13.375   8.925  40.345  0.00  0.00    +0.024 C 
ATOM     28  C14 <0> A   1     -13.053   8.174  41.618  0.00  0.00    +0.497 C 
ATOM     29  O1  <0> A   1     -12.397   7.159  41.593  0.00  0.00    -0.449 OA
ATOM     30  O2  <0> A   1     -13.519   8.669  42.784  0.00  0.00    -0.370 OA
BRANCH  26  31
ATOM     31  O3  <0> A   1     -11.628  10.567  40.691  0.00  0.00    -0.564 OA
ATOM     32  H19 <0> A   1     -11.142  10.452  39.863  0.00  0.00    +0.388 HD
ENDBRANCH  26  31
ENDBRANCH  23  24
ENDBRANCH  22  23
ENDBRANCH   5  22
TORSDOF 7
ENDMDL
MODEL 2
REMARK VINA RESULT:      -8.0      3.201      6.034
REMARK  Name = CHEMBL120949
REMARK  9 active torsions:
REMARK  status: ('A' for Active; 'I' for Inactive)
REMARK    1  A    between atoms: C1_1  and  C2_2
REMARK    2  A    between atoms: C2_2  and  C3_3
REMARK    3  A    between atoms: C2_2  and  C4_4
REMARK    4  A    between atoms: C6_6  and  C21_28
REMARK    5  A    between atoms: C7_7  and  C15_21
REMARK    6  A    between atoms: N1_8  and  C8_9
REMARK    7  A    between atoms: C8_9  and  C9_10
REMARK    8  A    between atoms: C9_10  and  C10_11
REMARK    9  A    between atoms: C12_14  and  O3_20
REMARK                            x       y       z     vdW  Elec       q    Type
REMARK                         _______ _______ _______ _____ _____    ______ ____
ROOT
ATOM      1  C4  <0> A   1     -13.546  10.250  42.576  0.00  0.00    +0.044 C 
ATOM      2  C5  <0> A   1     -13.676  11.305  43.403  0.00  0.00    -0.033 C 
ATOM      3  C6  <0> A   1     -13.342  10.872  44.709  0.00  0.00    -0.106 C 
ATOM      4  C7  <0> A   1     -13.013   9.530  44.613  0.00  0.00    +0.064 C 
ATOM      5  N1  <0> A   1     -13.149   9.164  43.300  0.00  0.00    -0.427 N 
ENDROOT
BRANCH   4   6
ATOM      6  C15 <0> A   1     -12.598   8.652  45.726  0.00  0.00    -0.028 A 
ATOM      7  C16 <0> A   1     -11.289   8.174  45.790  0.00  0.00    +0.043 A 
ATOM      8  C17 <0> A   1     -10.906   7.355  46.832  0.00  0.00    -0.008 A 
ATOM      9  C18 <0> A   1     -11.820   7.007  47.814  0.00  0.00    +0.104 A 
ATOM     10  C19 <0> A   1     -13.122   7.478  47.755  0.00  0.00    -0.007 A 
ATOM     11  C20 <0> A   1     -13.514   8.302  46.721  0.00  0.00    +0.068 A 
ATOM     12  F1  <0> A   1     -11.441   6.204  48.832  0.00  0.00    -0.137 F 
ENDBRANCH   4   6
BRANCH   3  13
ATOM     13  C21 <0> A   1     -13.343  11.696  45.940  0.00  0.00    -0.053 A 
ATOM     14  C22 <0> A   1     -14.528  11.905  46.655  0.00  0.00    +0.065 A 
ATOM     15  C23 <0> A   1     -14.477  12.682  47.798  0.00  0.00    -0.035 A 
ATOM     16  C24 <0> A   1     -13.266  13.221  48.196  0.00  0.00    +0.243 A 
ATOM     17  N2  <0> A   1     -12.164  13.007  47.501  0.00  0.00    -0.481 NA
ATOM     18  C25 <0> A   1     -12.163  12.271  46.410  0.00  0.00    +0.260 A 
ENDBRANCH   3  13
BRANCH   1  20
ATOM     19  C1  <0> A   1     -14.687  11.465  40.740  0.00  0.00    +0.040 C 
ATOM     20  C2  <0> A   1     -13.805  10.265  41.092  0.00  0.00    +0.048 C 
ATOM     21  C3  <0> A   1     -12.474  10.374  40.344  0.00  0.00    +0.032 C 
ENDBRANCH   1  20
BRANCH   5  22
ATOM     22  C8  <0> A   1     -12.905   7.824  42.759  0.00  0.00    +0.292 C 
BRANCH  22  23
ATOM     23  C9  <0> A   1     -14.219   7.041  42.727  0.00  0.00    +0.052 C 
BRANCH  23  24
ATOM     24  C10 <0> A   1     -14.380   6.261  44.034  0.00  0.00    +0.203 C 
ATOM     25  C11 <0> A   1     -14.167   4.768  43.768  0.00  0.00    +0.045 C 
ATOM     26  C12 <0> A   1     -14.370   3.987  45.070  0.00  0.00    +0.186 C 
ATOM     27  C13 <0> A   1     -15.794   4.238  45.583  0.00  0.00    +0.024 C 
ATOM     28  C14 <0> A   1     -16.021   5.733  45.639  0.00  0.00    +0.497 C 
ATOM     29  O1  <0> A   1     -16.480   6.255  46.627  0.00  0.00    -0.449 OA
ATOM     30  O2  <0> A   1     -15.698   6.467  44.553  0.00  0.00    -0.370 OA
BRANCH  26  31
ATOM     31  O3  <0> A   1     -13.423   4.428  46.046  0.00  0.00    -0.564 OA
ATOM     32  H19 <0> A   1     -13.675   5.245  46.496  0.00  0.00    +0.388 HD
ENDBRANCH  26  31
ENDBRANCH  23  24
ENDBRANCH  22  23
ENDBRANCH   5  22
TORSDOF 7
ENDMDL
MODEL 3
REMARK VINA RESULT:      -7.9      2.295      4.523
REMARK  Name = CHEMBL120949
REMARK  9 active torsions:
REMARK  status: ('A' for Active; 'I' for Inactive)
REMARK    1  A    between atoms: C1_1  and  C2_2
REMARK    2  A    between atoms: C2_2  and  C3_3
REMARK    3  A    between atoms: C2_2  and  C4_4
REMARK    4  A    between atoms: C6_6  and  C21_28
REMARK    5  A    between atoms: C7_7  and  C15_21
REMARK    6  A    between atoms: N1_8  and  C8_9
REMARK    7  A    between atoms: C8_9  and  C9_10
REMARK    8  A    between atoms: C9_10  and  C10_11
REMARK    9  A    between atoms: C12_14  and  O3_20
REMARK                            x       y       z     vdW  Elec       q    Type
REMARK                         _______ _______ _______ _____ _____    ______ ____
ROOT
ATOM      1  C4  <0> A   1     -14.936   6.443  45.698  0.00  0.00    +0.044 C 
ATOM      2  C5  <0> A   1     -16.027   6.134  46.425  0.00  0.00    -0.033 C 
ATOM      3  C6  <0> A   1     -16.430   7.303  47.114  0.00  0.00    -0.106 C 
ATOM      4  C7  <0> A   1     -15.538   8.303  46.762  0.00  0.00    +0.064 C 
ATOM      5  N1  <0> A   1     -14.626   7.757  45.898  0.00  0.00    -0.427 N 
ENDROOT
BRANCH   4   6
ATOM      6  C15 <0> A   1     -15.562   9.700  47.238  0.00  0.00    -0.028 A 
ATOM      7  C16 <0> A   1     -16.480  10.606  46.705  0.00  0.00    +0.043 A 
ATOM      8  C17 <0> A   1     -16.499  11.910  47.154  0.00  0.00    -0.008 A 
ATOM      9  C18 <0> A   1     -15.608  12.322  48.132  0.00  0.00    +0.104 A 
ATOM     10  C19 <0> A   1     -14.693  11.427  48.664  0.00  0.00    -0.007 A 
ATOM     11  C20 <0> A   1     -14.670  10.119  48.228  0.00  0.00    +0.068 A 
ATOM     12  F1  <0> A   1     -15.629  13.600  48.568  0.00  0.00    -0.137 F 
ENDBRANCH   4   6
BRANCH   3  13
ATOM     13  C21 <0> A   1     -17.585   7.433  48.033  0.00  0.00    -0.053 A 
ATOM     14  C22 <0> A   1     -17.431   8.034  49.287  0.00  0.00    +0.065 A 
ATOM     15  C23 <0> A   1     -18.539   8.131  50.109  0.00  0.00    -0.035 A 
ATOM     16  C24 <0> A   1     -19.754   7.637  49.668  0.00  0.00    +0.243 A 
ATOM     17  N2  <0> A   1     -19.869   7.074  48.480  0.00  0.00    -0.481 NA
ATOM     18  C25 <0> A   1     -18.844   6.964  47.661  0.00  0.00    +0.260 A 
ENDBRANCH   3  13
BRANCH   1  20
ATOM     19  C1  <0> A   1     -14.143   4.106  45.461  0.00  0.00    +0.040 C 
ATOM     20  C2  <0> A   1     -14.177   5.490  44.811  0.00  0.00    +0.048 C 
ATOM     21  C3  <0> A   1     -14.871   5.398  43.451  0.00  0.00    +0.032 C 
ENDBRANCH   1  20
BRANCH   5  22
ATOM     22  C8  <0> A   1     -13.501   8.468  45.286  0.00  0.00    +0.292 C 
BRANCH  22  23
ATOM     23  C9  <0> A   1     -14.030   9.464  44.252  0.00  0.00    +0.052 C 
BRANCH  23  24
ATOM     24  C10 <0> A   1     -13.195   9.365  42.974  0.00  0.00    +0.203 C 
ATOM     25  C11 <0> A   1     -13.766  10.312  41.914  0.00  0.00    +0.045 C 
ATOM     26  C12 <0> A   1     -12.952  10.179  40.624  0.00  0.00    +0.186 C 
ATOM     27  C13 <0> A   1     -13.030   8.727  40.135  0.00  0.00    +0.024 C 
ATOM     28  C14 <0> A   1     -12.645   7.819  41.283  0.00  0.00    +0.497 C 
ATOM     29  O1  <0> A   1     -11.833   6.937  41.133  0.00  0.00    -0.449 OA
ATOM     30  O2  <0> A   1     -13.236   8.021  42.480  0.00  0.00    -0.370 OA
BRANCH  26  31
ATOM     31  O3  <0> A   1     -11.589  10.528  40.878  0.00  0.00    -0.564 OA
ATOM     32  H19 <0> A   1     -10.980   9.777  40.854  0.00  0.00    +0.388 HD
ENDBRANCH  26  31
ENDBRANCH  23  24
ENDBRANCH  22  23
ENDBRANCH   5  22
TORSDOF 7
ENDMDL
MODEL 4
REMARK VINA RESULT:      -7.8     15.280     18.663
REMARK  Name = CHEMBL120949
REMARK  9 active torsions:
REMARK  status: ('A' for Active; 'I' for Inactive)
REMARK    1  A    between atoms: C1_1  and  C2_2
REMARK    2  A    between atoms: C2_2  and  C3_3
REMARK    3  A    between atoms: C2_2  and  C4_4
REMARK    4  A    between atoms: C6_6  and  C21_28
REMARK    5  A    between atoms: C7_7  and  C15_21
REMARK    6  A    between atoms: N1_8  and  C8_9
REMARK    7  A    between atoms: C8_9  and  C9_10
REMARK    8  A    between atoms: C9_10  and  C10_11
REMARK    9  A    between atoms: C12_14  and  O3_20
REMARK                            x       y       z     vdW  Elec       q    Type
REMARK                         _______ _______ _______ _____ _____    ______ ____
ROOT
ATOM      1  C4  <0> A   1     -27.777  -4.939  50.964  0.00  0.00    +0.044 C 
ATOM      2  C5  <0> A   1     -28.435  -3.777  50.790  0.00  0.00    -0.033 C 
ATOM      3  C6  <0> A   1     -27.520  -2.725  51.035  0.00  0.00    -0.106 C 
ATOM      4  C7  <0> A   1     -26.308  -3.314  51.357  0.00  0.00    +0.064 C 
ATOM      5  N1  <0> A   1     -26.486  -4.671  51.314  0.00  0.00    -0.427 N 
ENDROOT
BRANCH   4   6
ATOM      6  C15 <0> A   1     -25.056  -2.607  51.692  0.00  0.00    -0.028 A 
ATOM      7  C16 <0> A   1     -24.040  -2.493  50.742  0.00  0.00    +0.043 A 
ATOM      8  C17 <0> A   1     -22.873  -1.830  51.060  0.00  0.00    -0.008 A 
ATOM      9  C18 <0> A   1     -22.708  -1.278  52.321  0.00  0.00    +0.104 A 
ATOM     10  C19 <0> A   1     -23.713  -1.389  53.268  0.00  0.00    -0.007 A 
ATOM     11  C20 <0> A   1     -24.887  -2.044  52.959  0.00  0.00    +0.068 A 
ATOM     12  F1  <0> A   1     -21.562  -0.631  52.627  0.00  0.00    -0.137 F 
ENDBRANCH   4   6
BRANCH   3  13
ATOM     13  C21 <0> A   1     -27.804  -1.272  50.961  0.00  0.00    -0.053 A 
ATOM     14  C22 <0> A   1     -27.029  -0.437  50.148  0.00  0.00    +0.065 A 
ATOM     15  C23 <0> A   1     -27.333   0.912  50.114  0.00  0.00    -0.035 A 
ATOM     16  C24 <0> A   1     -28.385   1.388  50.877  0.00  0.00    +0.243 A 
ATOM     17  N2  <0> A   1     -29.098   0.577  51.635  0.00  0.00    -0.481 NA
ATOM     18  C25 <0> A   1     -28.849  -0.715  51.696  0.00  0.00    +0.260 A 
ENDBRANCH   3  13
BRANCH   1  20
ATOM     19  C1  <0> A   1     -29.731  -6.365  51.507  0.00  0.00    +0.040 C 
ATOM     20  C2  <0> A   1     -28.373  -6.314  50.804  0.00  0.00    +0.048 C 
ATOM     21  C3  <0> A   1     -28.557  -6.620  49.317  0.00  0.00    +0.032 C 
ENDBRANCH   1  20
BRANCH   5  22
ATOM     22  C8  <0> A   1     -25.455  -5.674  51.594  0.00  0.00    +0.292 C 
BRANCH  22  23
ATOM     23  C9  <0> A   1     -24.866  -6.183  50.277  0.00  0.00    +0.052 C 
BRANCH  23  24
ATOM     24  C10 <0> A   1     -24.149  -7.512  50.518  0.00  0.00    +0.203 C 
ATOM     25  C11 <0> A   1     -25.100  -8.671  50.205  0.00  0.00    +0.045 C 
ATOM     26  C12 <0> A   1     -24.391  -9.999  50.488  0.00  0.00    +0.186 C 
ATOM     27  C13 <0> A   1     -23.977 -10.037  51.964  0.00  0.00    +0.024 C 
ATOM     28  C14 <0> A   1     -23.207  -8.771  52.273  0.00  0.00    +0.497 C 
ATOM     29  O1  <0> A   1     -22.145  -8.814  52.848  0.00  0.00    -0.449 OA
ATOM     30  O2  <0> A   1     -23.740  -7.592  51.888  0.00  0.00    -0.370 OA
BRANCH  26  31
ATOM     31  O3  <0> A   1     -23.231 -10.109  49.660  0.00  0.00    -0.564 OA
ATOM     32  H19 <0> A   1     -22.909  -9.263  49.320  0.00  0.00    +0.388 HD
ENDBRANCH  26  31
ENDBRANCH  23  24
ENDBRANCH  22  23
ENDBRANCH   5  22
TORSDOF 7
ENDMDL
MODEL 5
REMARK VINA RESULT:      -7.8      2.889      6.422
REMARK  Name = CHEMBL120949
REMARK  9 active torsions:
REMARK  status: ('A' for Active; 'I' for Inactive)
REMARK    1  A    between atoms: C1_1  and  C2_2
REMARK    2  A    between atoms: C2_2  and  C3_3
REMARK    3  A    between atoms: C2_2  and  C4_4
REMARK    4  A    between atoms: C6_6  and  C21_28
REMARK    5  A    between atoms: C7_7  and  C15_21
REMARK    6  A    between atoms: N1_8  and  C8_9
REMARK    7  A    between atoms: C8_9  and  C9_10
REMARK    8  A    between atoms: C9_10  and  C10_11
REMARK    9  A    between atoms: C12_14  and  O3_20
REMARK                            x       y       z     vdW  Elec       q    Type
REMARK                         _______ _______ _______ _____ _____    ______ ____
ROOT
ATOM      1  C4  <0> A   1     -12.748  10.217  46.006  0.00  0.00    +0.044 C 
ATOM      2  C5  <0> A   1     -12.359  10.152  44.719  0.00  0.00    -0.033 C 
ATOM      3  C6  <0> A   1     -12.851   8.938  44.182  0.00  0.00    -0.106 C 
ATOM      4  C7  <0> A   1     -13.539   8.299  45.200  0.00  0.00    +0.064 C 
ATOM      5  N1  <0> A   1     -13.461   9.095  46.313  0.00  0.00    -0.427 N 
ENDROOT
BRANCH   4   6
ATOM      6  C15 <0> A   1     -14.225   6.995  45.106  0.00  0.00    -0.028 A 
ATOM      7  C16 <0> A   1     -15.309   6.835  44.242  0.00  0.00    +0.043 A 
ATOM      8  C17 <0> A   1     -15.946   5.614  44.157  0.00  0.00    -0.008 A 
ATOM      9  C18 <0> A   1     -15.510   4.547  44.927  0.00  0.00    +0.104 A 
ATOM     10  C19 <0> A   1     -14.433   4.701  45.786  0.00  0.00    -0.007 A 
ATOM     11  C20 <0> A   1     -13.786   5.915  45.875  0.00  0.00    +0.068 A 
ATOM     12  F1  <0> A   1     -16.137   3.354  44.840  0.00  0.00    -0.137 F 
ENDBRANCH   4   6
BRANCH   3  13
ATOM     13  C21 <0> A   1     -12.666   8.445  42.797  0.00  0.00    -0.053 A 
ATOM     14  C22 <0> A   1     -13.241   9.126  41.717  0.00  0.00    +0.065 A 
ATOM     15  C23 <0> A   1     -13.039   8.625  40.443  0.00  0.00    -0.035 A 
ATOM     16  C24 <0> A   1     -12.282   7.479  40.279  0.00  0.00    +0.243 A 
ATOM     17  N2  <0> A   1     -11.753   6.858  41.316  0.00  0.00    -0.481 NA
ATOM     18  C25 <0> A   1     -11.912   7.300  42.546  0.00  0.00    +0.260 A 
ENDBRANCH   3  13
BRANCH   1  20
ATOM     19  C1  <0> A   1     -11.117  11.061  47.672  0.00  0.00    +0.040 C 
ATOM     20  C2  <0> A   1     -12.440  11.345  46.957  0.00  0.00    +0.048 C 
ATOM     21  C3  <0> A   1     -12.327  12.655  46.175  0.00  0.00    +0.032 C 
ENDBRANCH   1  20
BRANCH   5  22
ATOM     22  C8  <0> A   1     -14.050   8.791  47.620  0.00  0.00    +0.292 C 
BRANCH  22  23
ATOM     23  C9  <0> A   1     -15.441   9.421  47.710  0.00  0.00    +0.052 C 
BRANCH  23  24
ATOM     24  C10 <0> A   1     -16.460   8.351  48.106  0.00  0.00    +0.203 C 
ATOM     25  C11 <0> A   1     -15.746   7.207  48.833  0.00  0.00    +0.045 C 
ATOM     26  C12 <0> A   1     -16.763   6.119  49.191  0.00  0.00    +0.186 C 
ATOM     27  C13 <0> A   1     -17.413   5.604  47.901  0.00  0.00    +0.024 C 
ATOM     28  C14 <0> A   1     -17.930   6.794  47.122  0.00  0.00    +0.497 C 
ATOM     29  O1  <0> A   1     -19.056   6.809  46.683  0.00  0.00    -0.449 OA
ATOM     30  O2  <0> A   1     -17.097   7.839  46.930  0.00  0.00    -0.370 OA
BRANCH  26  31
ATOM     31  O3  <0> A   1     -17.766   6.665  50.050  0.00  0.00    -0.564 OA
ATOM     32  H19 <0> A   1     -18.512   7.063  49.580  0.00  0.00    +0.388 HD
ENDBRANCH  26  31
ENDBRANCH  23  24
ENDBRANCH  22  23
ENDBRANCH   5  22
TORSDOF 7
ENDMDL
MODEL 6
REMARK VINA RESULT:      -7.7      2.885      4.968
REMARK  Name = CHEMBL120949
REMARK  9 active torsions:
REMARK  status: ('A' for Active; 'I' for Inactive)
REMARK    1  A    between atoms: C1_1  and  C2_2
REMARK    2  A    between atoms: C2_2  and  C3_3
REMARK    3  A    between atoms: C2_2  and  C4_4
REMARK    4  A    between atoms: C6_6  and  C21_28
REMARK    5  A    between atoms: C7_7  and  C15_21
REMARK    6  A    between atoms: N1_8  and  C8_9
REMARK    7  A    between atoms: C8_9  and  C9_10
REMARK    8  A    between atoms: C9_10  and  C10_11
REMARK    9  A    between atoms: C12_14  and  O3_20
REMARK                            x       y       z     vdW  Elec       q    Type
REMARK                         _______ _______ _______ _____ _____    ______ ____
ROOT
ATOM      1  C4  <0> A   1     -14.317   6.551  45.302  0.00  0.00    +0.044 C 
ATOM      2  C5  <0> A   1     -15.068   6.799  46.392  0.00  0.00    -0.033 C 
ATOM      3  C6  <0> A   1     -14.788   8.120  46.815  0.00  0.00    -0.106 C 
ATOM      4  C7  <0> A   1     -13.850   8.633  45.935  0.00  0.00    +0.064 C 
ATOM      5  N1  <0> A   1     -13.568   7.656  45.017  0.00  0.00    -0.427 N 
ENDROOT
BRANCH   4   6
ATOM      6  C15 <0> A   1     -13.257   9.985  45.982  0.00  0.00    -0.028 A 
ATOM      7  C16 <0> A   1     -12.057  10.200  46.661  0.00  0.00    +0.043 A 
ATOM      8  C17 <0> A   1     -11.507  11.465  46.701  0.00  0.00    -0.008 A 
ATOM      9  C18 <0> A   1     -12.144  12.520  46.067  0.00  0.00    +0.104 A 
ATOM     10  C19 <0> A   1     -13.336  12.312  45.391  0.00  0.00    -0.007 A 
ATOM     11  C20 <0> A   1     -13.892  11.051  45.340  0.00  0.00    +0.068 A 
ATOM     12  F1  <0> A   1     -11.602  13.757  46.109  0.00  0.00    -0.137 F 
ENDBRANCH   4   6
BRANCH   3  13
ATOM     13  C21 <0> A   1     -15.385   8.821  47.977  0.00  0.00    -0.053 A 
ATOM     14  C22 <0> A   1     -16.234   9.917  47.786  0.00  0.00    +0.065 A 
ATOM     15  C23 <0> A   1     -16.766  10.537  48.903  0.00  0.00    -0.035 A 
ATOM     16  C24 <0> A   1     -16.445  10.058  50.160  0.00  0.00    +0.243 A 
ATOM     17  N2  <0> A   1     -15.640   9.023  50.309  0.00  0.00    -0.481 NA
ATOM     18  C25 <0> A   1     -15.115   8.397  49.277  0.00  0.00    +0.260 A 
ENDBRANCH   3  13
BRANCH   1  20
ATOM     19  C1  <0> A   1     -14.147   4.085  45.494  0.00  0.00    +0.040 C 
ATOM     20  C2  <0> A   1     -14.300   5.260  44.526  0.00  0.00    +0.048 C 
ATOM     21  C3  <0> A   1     -15.611   5.115  43.750  0.00  0.00    +0.032 C 
ENDBRANCH   1  20
BRANCH   5  22
ATOM     22  C8  <0> A   1     -12.619   7.778  43.907  0.00  0.00    +0.292 C 
BRANCH  22  23
ATOM     23  C9  <0> A   1     -13.381   7.754  42.581  0.00  0.00    +0.052 C 
BRANCH  23  24
ATOM     24  C10 <0> A   1     -13.168   9.079  41.846  0.00  0.00    +0.203 C 
ATOM     25  C11 <0> A   1     -14.209  10.099  42.317  0.00  0.00    +0.045 C 
ATOM     26  C12 <0> A   1     -14.018  11.410  41.549  0.00  0.00    +0.186 C 
ATOM     27  C13 <0> A   1     -14.184  11.136  40.049  0.00  0.00    +0.024 C 
ATOM     28  C14 <0> A   1     -13.276   9.985  39.674  0.00  0.00    +0.497 C 
ATOM     29  O1  <0> A   1     -12.540  10.060  38.719  0.00  0.00    -0.449 OA
ATOM     30  O2  <0> A   1     -13.312   8.872  40.437  0.00  0.00    -0.370 OA
BRANCH  26  31
ATOM     31  O3  <0> A   1     -12.710  11.927  41.801  0.00  0.00    -0.564 OA
ATOM     32  H19 <0> A   1     -12.009  11.484  41.304  0.00  0.00    +0.388 HD
ENDBRANCH  26  31
ENDBRANCH  23  24
ENDBRANCH  22  23
ENDBRANCH   5  22
TORSDOF 7
ENDMDL
MODEL 7
REMARK VINA RESULT:      -7.7      3.247      5.752
REMARK  Name = CHEMBL120949
REMARK  9 active torsions:
REMARK  status: ('A' for Active; 'I' for Inactive)
REMARK    1  A    between atoms: C1_1  and  C2_2
REMARK    2  A    between atoms: C2_2  and  C3_3
REMARK    3  A    between atoms: C2_2  and  C4_4
REMARK    4  A    between atoms: C6_6  and  C21_28
REMARK    5  A    between atoms: C7_7  and  C15_21
REMARK    6  A    between atoms: N1_8  and  C8_9
REMARK    7  A    between atoms: C8_9  and  C9_10
REMARK    8  A    between atoms: C9_10  and  C10_11
REMARK    9  A    between atoms: C12_14  and  O3_20
REMARK                            x       y       z     vdW  Elec       q    Type
REMARK                         _______ _______ _______ _____ _____    ______ ____
ROOT
ATOM      1  C4  <0> A   1     -13.251   8.934  42.342  0.00  0.00    +0.044 C 
ATOM      2  C5  <0> A   1     -13.851   7.729  42.330  0.00  0.00    -0.033 C 
ATOM      3  C6  <0> A   1     -14.073   7.346  43.675  0.00  0.00    -0.106 C 
ATOM      4  C7  <0> A   1     -13.582   8.370  44.469  0.00  0.00    +0.064 C 
ATOM      5  N1  <0> A   1     -13.077   9.332  43.635  0.00  0.00    -0.427 N 
ENDROOT
BRANCH   4   6
ATOM      6  C15 <0> A   1     -13.594   8.411  45.945  0.00  0.00    -0.028 A 
ATOM      7  C16 <0> A   1     -14.770   8.728  46.627  0.00  0.00    +0.043 A 
ATOM      8  C17 <0> A   1     -14.776   8.765  48.006  0.00  0.00    -0.008 A 
ATOM      9  C18 <0> A   1     -13.617   8.488  48.714  0.00  0.00    +0.104 A 
ATOM     10  C19 <0> A   1     -12.447   8.173  48.042  0.00  0.00    -0.007 A 
ATOM     11  C20 <0> A   1     -12.431   8.127  46.664  0.00  0.00    +0.068 A 
ATOM     12  F1  <0> A   1     -13.628   8.526  50.064  0.00  0.00    -0.137 F 
ENDBRANCH   4   6
BRANCH   3  13
ATOM     13  C21 <0> A   1     -14.709   6.092  44.144  0.00  0.00    -0.053 A 
ATOM     14  C22 <0> A   1     -13.969   5.145  44.861  0.00  0.00    +0.065 A 
ATOM     15  C23 <0> A   1     -14.608   3.990  45.276  0.00  0.00    -0.035 A 
ATOM     16  C24 <0> A   1     -15.946   3.812  44.973  0.00  0.00    +0.243 A 
ATOM     17  N2  <0> A   1     -16.618   4.723  44.294  0.00  0.00    -0.481 NA
ATOM     18  C25 <0> A   1     -16.054   5.839  43.883  0.00  0.00    +0.260 A 
ENDBRANCH   3  13
BRANCH   1  20
ATOM     19  C1  <0> A   1     -12.736   8.772  39.922  0.00  0.00    +0.040 C 
ATOM     20  C2  <0> A   1     -12.833   9.715  41.123  0.00  0.00    +0.048 C 
ATOM     21  C3  <0> A   1     -13.870  10.803  40.834  0.00  0.00    +0.032 C 
ENDBRANCH   1  20
BRANCH   5  22
ATOM     22  C8  <0> A   1     -12.453  10.587  44.063  0.00  0.00    +0.292 C 
BRANCH  22  23
ATOM     23  C9  <0> A   1     -13.528  11.664  44.216  0.00  0.00    +0.052 C 
BRANCH  23  24
ATOM     24  C10 <0> A   1     -13.389  12.334  45.585  0.00  0.00    +0.203 C 
ATOM     25  C11 <0> A   1     -12.164  11.767  46.308  0.00  0.00    +0.045 C 
ATOM     26  C12 <0> A   1     -12.052  12.410  47.695  0.00  0.00    +0.186 C 
ATOM     27  C13 <0> A   1     -13.327  12.102  48.489  0.00  0.00    +0.024 C 
ATOM     28  C14 <0> A   1     -14.519  12.499  47.645  0.00  0.00    +0.497 C 
ATOM     29  O1  <0> A   1     -15.408  13.176  48.105  0.00  0.00    -0.449 OA
ATOM     30  O2  <0> A   1     -14.561  12.074  46.365  0.00  0.00    -0.370 OA
BRANCH  26  31
ATOM     31  O3  <0> A   1     -11.901  13.825  47.556  0.00  0.00    -0.564 OA
ATOM     32  H19 <0> A   1     -11.431  14.243  48.291  0.00  0.00    +0.388 HD
ENDBRANCH  26  31
ENDBRANCH  23  24
ENDBRANCH  22  23
ENDBRANCH   5  22
TORSDOF 7
ENDMDL
MODEL 8
REMARK VINA RESULT:      -7.7      3.170      5.454
REMARK  Name = CHEMBL120949
REMARK  9 active torsions:
REMARK  status: ('A' for Active; 'I' for Inactive)
REMARK    1  A    between atoms: C1_1  and  C2_2
REMARK    2  A    between atoms: C2_2  and  C3_3
REMARK    3  A    between atoms: C2_2  and  C4_4
REMARK    4  A    between atoms: C6_6  and  C21_28
REMARK    5  A    between atoms: C7_7  and  C15_21
REMARK    6  A    between atoms: N1_8  and  C8_9
REMARK    7  A    between atoms: C8_9  and  C9_10
REMARK    8  A    between atoms: C9_10  and  C10_11
REMARK    9  A    between atoms: C12_14  and  O3_20
REMARK                            x       y       z     vdW  Elec       q    Type
REMARK                         _______ _______ _______ _____ _____    ______ ____
ROOT
ATOM      1  C4  <0> A   1     -14.877   6.356  45.309  0.00  0.00    +0.044 C 
ATOM      2  C5  <0> A   1     -16.102   5.877  45.598  0.00  0.00    -0.033 C 
ATOM      3  C6  <0> A   1     -16.571   6.560  46.746  0.00  0.00    -0.106 C 
ATOM      4  C7  <0> A   1     -15.577   7.452  47.115  0.00  0.00    +0.064 C 
ATOM      5  N1  <0> A   1     -14.545   7.310  46.227  0.00  0.00    -0.427 N 
ENDROOT
BRANCH   4   6
ATOM      6  C15 <0> A   1     -15.622   8.382  48.262  0.00  0.00    -0.028 A 
ATOM      7  C16 <0> A   1     -15.068   8.010  49.487  0.00  0.00    +0.043 A 
ATOM      8  C17 <0> A   1     -15.111   8.883  50.555  0.00  0.00    -0.008 A 
ATOM      9  C18 <0> A   1     -15.704  10.128  50.411  0.00  0.00    +0.104 A 
ATOM     10  C19 <0> A   1     -16.256  10.502  49.196  0.00  0.00    -0.007 A 
ATOM     11  C20 <0> A   1     -16.212   9.640  48.121  0.00  0.00    +0.068 A 
ATOM     12  F1  <0> A   1     -15.744  10.979  51.459  0.00  0.00    -0.137 F 
ENDBRANCH   4   6
BRANCH   3  13
ATOM     13  C21 <0> A   1     -17.873   6.359  47.423  0.00  0.00    -0.053 A 
ATOM     14  C22 <0> A   1     -17.949   5.637  48.620  0.00  0.00    +0.065 A 
ATOM     15  C23 <0> A   1     -19.189   5.477  49.213  0.00  0.00    -0.035 A 
ATOM     16  C24 <0> A   1     -20.304   6.032  48.610  0.00  0.00    +0.243 A 
ATOM     17  N2  <0> A   1     -20.202   6.707  47.480  0.00  0.00    -0.481 NA
ATOM     18  C25 <0> A   1     -19.043   6.890  46.882  0.00  0.00    +0.260 A 
ENDBRANCH   3  13
BRANCH   1  20
ATOM     19  C1  <0> A   1     -14.268   4.426  43.877  0.00  0.00    +0.040 C 
ATOM     20  C2  <0> A   1     -14.010   5.907  44.161  0.00  0.00    +0.048 C 
ATOM     21  C3  <0> A   1     -14.345   6.731  42.917  0.00  0.00    +0.032 C 
ENDBRANCH   1  20
BRANCH   5  22
ATOM     22  C8  <0> A   1     -13.287   8.062  46.255  0.00  0.00    +0.292 C 
BRANCH  22  23
ATOM     23  C9  <0> A   1     -13.491   9.420  45.580  0.00  0.00    +0.052 C 
BRANCH  23  24
ATOM     24  C10 <0> A   1     -12.478  10.423  46.136  0.00  0.00    +0.203 C 
ATOM     25  C11 <0> A   1     -12.480  10.356  47.667  0.00  0.00    +0.045 C 
ATOM     26  C12 <0> A   1     -11.495  11.391  48.220  0.00  0.00    +0.186 C 
ATOM     27  C13 <0> A   1     -11.923  12.786  47.749  0.00  0.00    +0.024 C 
ATOM     28  C14 <0> A   1     -12.100  12.746  46.246  0.00  0.00    +0.497 C 
ATOM     29  O1  <0> A   1     -11.597  13.585  45.538  0.00  0.00    -0.449 OA
ATOM     30  O2  <0> A   1     -12.837  11.745  45.720  0.00  0.00    -0.370 OA
BRANCH  26  31
ATOM     31  O3  <0> A   1     -10.179  11.104  47.740  0.00  0.00    -0.564 OA
ATOM     32  H19 <0> A   1      -9.542  11.815  47.893  0.00  0.00    +0.388 HD
ENDBRANCH  26  31
ENDBRANCH  23  24
ENDBRANCH  22  23
ENDBRANCH   5  22
TORSDOF 7
ENDMDL
MODEL 9
REMARK VINA RESULT:      -7.6     15.108     18.546
REMARK  Name = CHEMBL120949
REMARK  9 active torsions:
REMARK  status: ('A' for Active; 'I' for Inactive)
REMARK    1  A    between atoms: C1_1  and  C2_2
REMARK    2  A    between atoms: C2_2  and  C3_3
REMARK    3  A    between atoms: C2_2  and  C4_4
REMARK    4  A    between atoms: C6_6  and  C21_28
REMARK    5  A    between atoms: C7_7  and  C15_21
REMARK    6  A    between atoms: N1_8  and  C8_9
REMARK    7  A    between atoms: C8_9  and  C9_10
REMARK    8  A    between atoms: C9_10  and  C10_11
REMARK    9  A    between atoms: C12_14  and  O3_20
REMARK                            x       y       z     vdW  Elec       q    Type
REMARK                         _______ _______ _______ _____ _____    ______ ____
ROOT
ATOM      1  C4  <0> A   1     -27.791  -4.880  50.971  0.00  0.00    +0.044 C 
ATOM      2  C5  <0> A   1     -28.460  -3.724  50.799  0.00  0.00    -0.033 C 
ATOM      3  C6  <0> A   1     -27.559  -2.664  51.061  0.00  0.00    -0.106 C 
ATOM      4  C7  <0> A   1     -26.345  -3.242  51.392  0.00  0.00    +0.064 C 
ATOM      5  N1  <0> A   1     -26.507  -4.601  51.337  0.00  0.00    -0.427 N 
ENDROOT
BRANCH   4   6
ATOM      6  C15 <0> A   1     -25.104  -2.523  51.745  0.00  0.00    -0.028 A 
ATOM      7  C16 <0> A   1     -24.111  -2.326  50.785  0.00  0.00    +0.043 A 
ATOM      8  C17 <0> A   1     -22.954  -1.653  51.120  0.00  0.00    -0.008 A 
ATOM      9  C18 <0> A   1     -22.778  -1.174  52.409  0.00  0.00    +0.104 A 
ATOM     10  C19 <0> A   1     -23.761  -1.368  53.366  0.00  0.00    -0.007 A 
ATOM     11  C20 <0> A   1     -24.924  -2.033  53.040  0.00  0.00    +0.068 A 
ATOM     12  F1  <0> A   1     -21.643  -0.516  52.733  0.00  0.00    -0.137 F 
ENDBRANCH   4   6
BRANCH   3  13
ATOM     13  C21 <0> A   1     -27.858  -1.214  50.994  0.00  0.00    -0.053 A 
ATOM     14  C22 <0> A   1     -27.132  -0.377  50.139  0.00  0.00    +0.065 A 
ATOM     15  C23 <0> A   1     -27.449   0.969  50.113  0.00  0.00    -0.035 A 
ATOM     16  C24 <0> A   1     -28.465   1.441  50.925  0.00  0.00    +0.243 A 
ATOM     17  N2  <0> A   1     -29.132   0.628  51.722  0.00  0.00    -0.481 NA
ATOM     18  C25 <0> A   1     -28.870  -0.661  51.777  0.00  0.00    +0.260 A 
ENDBRANCH   3  13
BRANCH   1  20
ATOM     19  C1  <0> A   1     -29.582  -6.425  51.715  0.00  0.00    +0.040 C 
ATOM     20  C2  <0> A   1     -28.370  -6.260  50.796  0.00  0.00    +0.048 C 
ATOM     21  C3  <0> A   1     -28.803  -6.450  49.341  0.00  0.00    +0.032 C 
ENDBRANCH   1  20
BRANCH   5  22
ATOM     22  C8  <0> A   1     -25.468  -5.594  51.622  0.00  0.00    +0.292 C 
BRANCH  22  23
ATOM     23  C9  <0> A   1     -24.641  -5.844  50.360  0.00  0.00    +0.052 C 
BRANCH  23  24
ATOM     24  C10 <0> A   1     -25.058  -7.175  49.732  0.00  0.00    +0.203 C 
ATOM     25  C11 <0> A   1     -25.090  -8.262  50.810  0.00  0.00    +0.045 C 
ATOM     26  C12 <0> A   1     -25.468  -9.601  50.170  0.00  0.00    +0.186 C 
ATOM     27  C13 <0> A   1     -24.429  -9.949  49.097  0.00  0.00    +0.024 C 
ATOM     28  C14 <0> A   1     -24.290  -8.762  48.169  0.00  0.00    +0.497 C 
ATOM     29  O1  <0> A   1     -24.333  -8.901  46.969  0.00  0.00    -0.449 OA
ATOM     30  O2  <0> A   1     -24.115  -7.541  48.719  0.00  0.00    -0.370 OA
BRANCH  26  31
ATOM     31  O3  <0> A   1     -26.762  -9.498  49.571  0.00  0.00    -0.564 OA
ATOM     32  H19 <0> A   1     -27.487  -9.766  50.152  0.00  0.00    +0.388 HD
ENDBRANCH  26  31
ENDBRANCH  23  24
ENDBRANCH  22  23
ENDBRANCH   5  22
TORSDOF 7
ENDMDL
MODEL 10
REMARK VINA RESULT:      -7.6     16.008     20.072
REMARK  Name = CHEMBL120949
REMARK  9 active torsions:
REMARK  status: ('A' for Active; 'I' for Inactive)
REMARK    1  A    between atoms: C1_1  and  C2_2
REMARK    2  A    between atoms: C2_2  and  C3_3
REMARK    3  A    between atoms: C2_2  and  C4_4
REMARK    4  A    between atoms: C6_6  and  C21_28
REMARK    5  A    between atoms: C7_7  and  C15_21
REMARK    6  A    between atoms: N1_8  and  C8_9
REMARK    7  A    between atoms: C8_9  and  C9_10
REMARK    8  A    between atoms: C9_10  and  C10_11
REMARK    9  A    between atoms: C12_14  and  O3_20
REMARK                            x       y       z     vdW  Elec       q    Type
REMARK                         _______ _______ _______ _____ _____    ______ ____
ROOT
ATOM      1  C4  <0> A   1     -24.933  -3.250  51.300  0.00  0.00    +0.044 C 
ATOM      2  C5  <0> A   1     -24.137  -4.293  50.995  0.00  0.00    -0.033 C 
ATOM      3  C6  <0> A   1     -24.895  -5.476  51.161  0.00  0.00    -0.106 C 
ATOM      4  C7  <0> A   1     -26.159  -5.088  51.572  0.00  0.00    +0.064 C 
ATOM      5  N1  <0> A   1     -26.163  -3.720  51.657  0.00  0.00    -0.427 N 
ENDROOT
BRANCH   4   6
ATOM      6  C15 <0> A   1     -27.294  -5.984  51.871  0.00  0.00    -0.028 A 
ATOM      7  C16 <0> A   1     -27.891  -6.724  50.849  0.00  0.00    +0.043 A 
ATOM      8  C17 <0> A   1     -28.950  -7.561  51.134  0.00  0.00    -0.008 A 
ATOM      9  C18 <0> A   1     -29.421  -7.668  52.433  0.00  0.00    +0.104 A 
ATOM     10  C19 <0> A   1     -28.832  -6.935  53.452  0.00  0.00    -0.007 A 
ATOM     11  C20 <0> A   1     -27.769  -6.101  53.180  0.00  0.00    +0.068 A 
ATOM     12  F1  <0> A   1     -30.458  -8.488  52.707  0.00  0.00    -0.137 F 
ENDBRANCH   4   6
BRANCH   3  13
ATOM     13  C21 <0> A   1     -24.427  -6.864  50.937  0.00  0.00    -0.053 A 
ATOM     14  C22 <0> A   1     -24.028  -7.663  52.015  0.00  0.00    +0.065 A 
ATOM     15  C23 <0> A   1     -23.599  -8.952  51.754  0.00  0.00    -0.035 A 
ATOM     16  C24 <0> A   1     -23.579  -9.406  50.447  0.00  0.00    +0.243 A 
ATOM     17  N2  <0> A   1     -23.960  -8.630  49.450  0.00  0.00    -0.481 NA
ATOM     18  C25 <0> A   1     -24.382  -7.399  49.651  0.00  0.00    +0.260 A 
ENDBRANCH   3  13
BRANCH   1  20
ATOM     19  C1  <0> A   1     -23.004  -1.693  51.319  0.00  0.00    +0.040 C 
ATOM     20  C2  <0> A   1     -24.529  -1.799  51.259  0.00  0.00    +0.048 C 
ATOM     21  C3  <0> A   1     -25.034  -1.166  49.961  0.00  0.00    +0.032 C 
ENDBRANCH   1  20
BRANCH   5  22
ATOM     22  C8  <0> A   1     -27.304  -2.895  52.064  0.00  0.00    +0.292 C 
BRANCH  22  23
ATOM     23  C9  <0> A   1     -28.290  -2.780  50.899  0.00  0.00    +0.052 C 
BRANCH  23  24
ATOM     24  C10 <0> A   1     -29.720  -2.906  51.427  0.00  0.00    +0.203 C 
ATOM     25  C11 <0> A   1     -29.761  -2.486  52.899  0.00  0.00    +0.045 C 
ATOM     26  C12 <0> A   1     -31.186  -2.654  53.435  0.00  0.00    +0.186 C 
ATOM     27  C13 <0> A   1     -31.601  -4.124  53.290  0.00  0.00    +0.024 C 
ATOM     28  C14 <0> A   1     -31.354  -4.548  51.859  0.00  0.00    +0.497 C 
ATOM     29  O1  <0> A   1     -32.206  -5.123  51.225  0.00  0.00    -0.449 OA
ATOM     30  O2  <0> A   1     -30.153  -4.266  51.311  0.00  0.00    -0.370 OA
BRANCH  26  31
ATOM     31  O3  <0> A   1     -32.080  -1.827  52.687  0.00  0.00    -0.564 OA
ATOM     32  H19 <0> A   1     -32.076  -0.898  52.957  0.00  0.00    +0.388 HD
ENDBRANCH  26  31
ENDBRANCH  23  24
ENDBRANCH  22  23
ENDBRANCH   5  22
TORSDOF 7
ENDMDL
