REMARK VINA RESULT:      -8.6     12.461     16.229
REMARK  Name = CHEMBL310463
REMARK  17 active torsions:
REMARK  status: ('A' for Active; 'I' for Inactive)
REMARK    1  A    between atoms: C1_1  and  C2_2
REMARK    2  A    between atoms: C2_2  and  C3_3
REMARK    3  A    between atoms: C3_3  and  C4_4
REMARK    4  A    between atoms: C3_3  and  C5_5
REMARK    5  A    between atoms: C3_3  and  C6_6
REMARK    6  A    between atoms: C6_6  and  O2_8
REMARK    7  A    between atoms: O2_8  and  C7_9
REMARK    8  A    between atoms: C9_12  and  C33_48
REMARK    9  A    between atoms: C10_14  and  O6_37
REMARK   10  A    between atoms: C13_19  and  C18_26
REMARK   11  A    between atoms: C14_21  and  C17_25
REMARK   12  A    between atoms: C18_26  and  C19_27
REMARK   13  A    between atoms: C19_27  and  C20_28
REMARK   14  A    between atoms: C22_30  and  O5_36
REMARK   15  A    between atoms: O6_37  and  C25_38
REMARK   16  A    between atoms: N1_40  and  C26_41
REMARK   17  A    between atoms: C26_41  and  C27_42
REMARK                            x       y       z     vdW  Elec       q    Type
REMARK                         _______ _______ _______ _____ _____    ______ ____
ROOT
ATOM      1  C7  <0> A   1     -14.852   8.623  47.136  0.00  0.00    +0.185 C 
ATOM      2  C8  <0> A   1     -15.895   9.165  48.128  0.00  0.00    +0.011 C 
ATOM      3  C9  <0> A   1     -16.336   8.042  49.066  0.00  0.00    -0.015 C 
ATOM      4  C10 <0> A   1     -16.964   6.915  48.247  0.00  0.00    +0.207 C 
ATOM      5  C11 <0> A   1     -15.960   6.387  47.230  0.00  0.00    +0.015 C 
ATOM      6  C12 <0> A   1     -15.476   7.514  46.305  0.00  0.00    +0.025 C 
ATOM      7  C13 <0> A   1     -14.563   6.904  45.258  0.00  0.00    -0.006 C 
ATOM      8  C14 <0> A   1     -13.405   6.100  45.821  0.00  0.00    -0.019 C 
ATOM      9  C15 <0> A   1     -13.829   5.130  46.914  0.00  0.00    +0.018 C 
ATOM     10  C16 <0> A   1     -14.746   5.789  47.941  0.00  0.00    +0.022 C 
ATOM     11  C17 <0> A   1     -12.261   6.995  46.290  0.00  0.00    +0.015 C 
ATOM     12  C33 <0> A   1     -17.366   8.583  50.061  0.00  0.00    +0.030 C 
ENDROOT
BRANCH   1  13
ATOM     13  O2  <0> A   1     -14.431   9.722  46.324  0.00  0.00    -0.334 OA
BRANCH  13  14
ATOM     14  C6  <0> A   1     -13.482  10.525  46.832  0.00  0.00    +0.471 C 
ATOM     15  O1  <0> A   1     -12.610  10.065  47.528  0.00  0.00    -0.508 OA
BRANCH  14  16
ATOM     16  C3  <0> A   1     -13.507  12.003  46.532  0.00  0.00    -0.057 C 
ATOM     17  C4  <0> A   1     -14.766  12.625  47.139  0.00  0.00    +0.056 C 
ATOM     18  C5  <0> A   1     -13.511  12.215  45.017  0.00  0.00    +0.077 C 
BRANCH  16  20
ATOM     19  C1  <0> A   1     -12.676  13.486  48.361  0.00  0.00    +0.023 C 
ATOM     20  C2  <0> A   1     -12.268  12.665  47.136  0.00  0.00    +0.033 C 
ENDBRANCH  16  20
ENDBRANCH  14  16
ENDBRANCH  13  14
ENDBRANCH   1  13
BRANCH   7  21
ATOM     21  C18 <0> A   1     -14.057   7.936  44.252  0.00  0.00    +0.035 C 
BRANCH  21  22
ATOM     22  C19 <0> A   1     -13.675   7.232  42.948  0.00  0.00    +0.043 C 
BRANCH  22  23
ATOM     23  C20 <0> A   1     -13.047   8.244  41.987  0.00  0.00    +0.196 C 
ATOM     24  C21 <0> A   1     -13.569   9.647  42.309  0.00  0.00    +0.037 C 
ATOM     25  C22 <0> A   1     -12.969  10.651  41.320  0.00  0.00    +0.182 C 
ATOM     26  C23 <0> A   1     -13.374  10.246  39.896  0.00  0.00    +0.015 C 
ATOM     27  C24 <0> A   1     -13.014   8.790  39.696  0.00  0.00    +0.495 C 
ATOM     28  O3  <0> A   1     -12.403   8.430  38.719  0.00  0.00    -0.447 OA
ATOM     29  O4  <0> A   1     -13.396   7.906  40.641  0.00  0.00    -0.361 OA
BRANCH  25  30
ATOM     30  O5  <0> A   1     -11.545  10.645  41.435  0.00  0.00    -0.563 OA
ATOM     31  H38 <0> A   1     -11.223  10.538  42.340  0.00  0.00    +0.386 HD
ENDBRANCH  25  30
ENDBRANCH  22  23
ENDBRANCH  21  22
ENDBRANCH   7  21
BRANCH   4  32
ATOM     32  O6  <0> A   1     -18.126   7.402  47.574  0.00  0.00    -0.353 OA
BRANCH  32  33
ATOM     33  C25 <0> A   1     -19.257   6.685  47.709  0.00  0.00    +0.647 C 
ATOM     34  O7  <0> A   1     -20.138   6.776  46.876  0.00  0.00    -0.565 OA
ATOM     35  N1  <0> A   1     -19.413   5.865  48.767  0.00  0.00    -0.707 N 
ATOM     36  H39 <0> A   1     -18.710   5.791  49.431  0.00  0.00    +0.407 HD
BRANCH  35  37
ATOM     37  C26 <0> A   1     -20.644   5.083  48.914  0.00  0.00    +0.341 C 
BRANCH  37  38
ATOM     38  C27 <0> A   1     -20.462   4.060  50.004  0.00  0.00    -0.115 A 
ATOM     39  C28 <0> A   1     -19.267   3.989  50.695  0.00  0.00    +0.028 A 
ATOM     40  C29 <0> A   1     -19.101   3.050  51.696  0.00  0.00    +0.004 A 
ATOM     41  C30 <0> A   1     -20.131   2.181  52.006  0.00  0.00    +0.017 A 
ATOM     42  C31 <0> A   1     -21.326   2.252  51.316  0.00  0.00    +0.004 A 
ATOM     43  C32 <0> A   1     -21.494   3.194  50.319  0.00  0.00    +0.028 A 
ENDBRANCH  37  38
ENDBRANCH  35  37
ENDBRANCH  32  33
ENDBRANCH   4  32
TORSDOF 12
