REMARK VINA RESULT:      -7.5      3.552      8.936
REMARK  Name = CHEMBL437783
REMARK  16 active torsions:
REMARK  status: ('A' for Active; 'I' for Inactive)
REMARK    1  A    between atoms: C1_1  and  C2_2
REMARK    2  A    between atoms: C2_2  and  C3_3
REMARK    3  A    between atoms: C2_2  and  C4_4
REMARK    4  A    between atoms: C5_5  and  S1_35
REMARK    5  A    between atoms: C6_6  and  C21_29
REMARK    6  A    between atoms: C7_7  and  C15_22
REMARK    7  A    between atoms: N1_8  and  C8_9
REMARK    8  A    between atoms: C8_9  and  C9_10
REMARK    9  A    between atoms: C9_10  and  C10_11
REMARK   10  A    between atoms: C10_11  and  C11_13
REMARK   11  A    between atoms: C10_11  and  O4_21
REMARK   12  A    between atoms: C11_13  and  C12_14
REMARK   13  A    between atoms: C12_14  and  C13_16
REMARK   14  A    between atoms: C12_14  and  O3_20
REMARK   15  A    between atoms: C13_16  and  C14_17
REMARK   16  A    between atoms: S1_35  and  N2_38
REMARK                            x       y       z     vdW  Elec       q    Type
REMARK                         _______ _______ _______ _____ _____    ______ ____
ROOT
ATOM      1  C4  <0> A   1     -14.515   9.901  46.993  0.00  0.00    +0.173 C 
ATOM      2  C5  <0> A   1     -14.107   8.944  46.139  0.00  0.00    -0.733 C 
ATOM      3  C6  <0> A   1     -14.926   7.808  46.342  0.00  0.00    -0.021 C 
ATOM      4  C7  <0> A   1     -15.825   8.137  47.342  0.00  0.00    +0.059 C 
ATOM      5  N1  <0> A   1     -15.555   9.421  47.734  0.00  0.00    -0.412 N 
ENDROOT
BRANCH   4   6
ATOM      6  C15 <0> A   1     -16.879   7.261  47.891  0.00  0.00    -0.027 A 
ATOM      7  C16 <0> A   1     -18.153   7.252  47.319  0.00  0.00    +0.045 A 
ATOM      8  C17 <0> A   1     -19.134   6.432  47.837  0.00  0.00    -0.008 A 
ATOM      9  C18 <0> A   1     -18.857   5.618  48.924  0.00  0.00    +0.105 A 
ATOM     10  C19 <0> A   1     -17.595   5.623  49.497  0.00  0.00    -0.008 A 
ATOM     11  C20 <0> A   1     -16.605   6.434  48.983  0.00  0.00    +0.075 A 
ATOM     12  F1  <0> A   1     -19.822   4.817  49.427  0.00  0.00    -0.137 F 
ENDBRANCH   4   6
BRANCH   3  13
ATOM     13  C21 <0> A   1     -14.840   6.516  45.622  0.00  0.00    -0.035 A 
ATOM     14  C22 <0> A   1     -15.367   6.394  44.337  0.00  0.00    +0.061 A 
ATOM     15  C23 <0> A   1     -15.283   5.188  43.671  0.00  0.00    -0.000 A 
ATOM     16  C24 <0> A   1     -14.678   4.101  44.277  0.00  0.00    +0.003 A 
ATOM     17  C25 <0> A   1     -14.155   4.216  45.552  0.00  0.00    -0.009 A 
ATOM     18  C26 <0> A   1     -14.227   5.418  46.224  0.00  0.00    +0.018 A 
ENDBRANCH   3  13
BRANCH   1  20
ATOM     19  C1  <0> A   1     -15.030  12.326  47.061  0.00  0.00    +0.040 C 
ATOM     20  C2  <0> A   1     -13.916  11.278  47.116  0.00  0.00    +0.059 C 
ATOM     21  C3  <0> A   1     -13.171  11.394  48.447  0.00  0.00    +0.038 C 
ENDBRANCH   1  20
BRANCH   2  22
ATOM     22  S1  <0> A   1     -12.789   9.080  44.977  0.00  0.00    +2.710 S 
ATOM     23  O5  <0> A   1     -11.970  10.156  45.415  0.00  0.00    -0.950 OA
ATOM     24  O6  <0> A   1     -12.282   7.767  44.782  0.00  0.00    -0.965 OA
BRANCH  22  25
ATOM     25  N2  <0> A   1     -13.453   9.549  43.535  0.00  0.00    -0.996 NA
ATOM     26  C27 <0> A   1     -14.109  10.858  43.404  0.00  0.00    +0.281 C 
ATOM     27  C28 <0> A   1     -13.485  11.605  42.221  0.00  0.00    +0.006 C 
ATOM     28  C29 <0> A   1     -13.571  10.731  40.967  0.00  0.00    +0.010 C 
ATOM     29  C30 <0> A   1     -12.784   9.438  41.192  0.00  0.00    +0.006 C 
ATOM     30  C31 <0> A   1     -13.394   8.668  42.361  0.00  0.00    +0.285 C 
ENDBRANCH  22  25
ENDBRANCH   2  22
BRANCH   5  31
ATOM     31  C8  <0> A   1     -16.269  10.162  48.777  0.00  0.00    +0.294 C 
BRANCH  31  32
ATOM     32  C9  <0> A   1     -15.688   9.803  50.146  0.00  0.00    -0.015 C 
BRANCH  32  33
ATOM     33  C10 <0> A   1     -16.826   9.464  51.111  0.00  0.00    +0.218 C 
BRANCH  33  34
ATOM     34  O4  <0> A   1     -16.798  10.369  52.218  0.00  0.00    -0.540 OA
ATOM     35  H19 <0> A   1     -16.368  10.011  53.006  0.00  0.00    +0.366 HD
ENDBRANCH  33  34
BRANCH  33  36
ATOM     36  C11 <0> A   1     -18.166   9.592  50.383  0.00  0.00    -0.047 C 
BRANCH  36  37
ATOM     37  C12 <0> A   1     -19.256   8.889  51.195  0.00  0.00    +0.232 C 
BRANCH  37  38
ATOM     38  O3  <0> A   1     -19.659   9.728  52.278  0.00  0.00    -0.528 OA
ATOM     39  H18 <0> A   1     -19.581   9.313  53.148  0.00  0.00    +0.350 HD
ENDBRANCH  37  38
BRANCH  37  40
ATOM     40  C13 <0> A   1     -20.460   8.605  50.294  0.00  0.00    -0.102 C 
BRANCH  40  41
ATOM     41  C14 <0> A   1     -21.663   9.348  50.815  0.00  0.00    +0.491 C 
ATOM     42  O1  <0> A   1     -21.898  10.479  50.425  0.00  0.00    -0.681 OA
ATOM     43  O2  <0> A   1     -22.402   8.818  51.627  0.00  0.00    -0.712 OA
ENDBRANCH  40  41
ENDBRANCH  37  40
ENDBRANCH  36  37
ENDBRANCH  33  36
ENDBRANCH  32  33
ENDBRANCH  31  32
ENDBRANCH   5  31
TORSDOF 14
