REMARK VINA RESULT:      -7.5      1.946      2.618
REMARK  Name = CHEMBL312626
REMARK  9 active torsions:
REMARK  status: ('A' for Active; 'I' for Inactive)
REMARK    1  A    between atoms: C1_1  and  C2_2
REMARK    2  A    between atoms: C4_5  and  O4_29
REMARK    3  A    between atoms: C6_9  and  C13_18
REMARK    4  A    between atoms: C7_11  and  C12_17
REMARK    5  A    between atoms: C13_18  and  C14_19
REMARK    6  A    between atoms: C14_19  and  C15_20
REMARK    7  A    between atoms: C17_22  and  O3_28
REMARK    8  A    between atoms: O4_29  and  C20_30
REMARK    9  A    between atoms: C20_30  and  C21_31
REMARK                            x       y       z     vdW  Elec       q    Type
REMARK                         _______ _______ _______ _____ _____    ______ ____
ROOT
ATOM      1  C1  <0> A   1     -26.277   0.299  55.865  0.00  0.00    +0.028 C 
ATOM      2  C2  <0> A   1     -25.702   0.070  54.466  0.00  0.00    +0.020 C 
ATOM      3  C3  <0> A   1     -26.501  -1.026  53.748  0.00  0.00    +0.009 C 
ATOM      4  C4  <0> A   1     -25.916  -1.210  52.349  0.00  0.00    +0.153 C 
ATOM      5  C5  <0> A   1     -24.455  -1.590  52.393  0.00  0.00    +0.039 C 
ATOM      6  C6  <0> A   1     -24.249  -3.096  52.215  0.00  0.00    +0.012 C 
ATOM      7  C7  <0> A   1     -22.755  -3.370  52.037  0.00  0.00    +0.017 C 
ATOM      8  C8  <0> A   1     -21.940  -2.702  53.103  0.00  0.00    -0.033 C 
ATOM      9  C9  <0> A   1     -22.367  -1.692  53.839  0.00  0.00    -0.011 C 
ATOM     10  C10 <0> A   1     -23.744  -1.185  53.650  0.00  0.00    -0.085 C 
ATOM     11  C11 <0> A   1     -24.272  -0.396  54.571  0.00  0.00    -0.032 C 
ATOM     12  C12 <0> A   1     -22.311  -2.845  50.670  0.00  0.00    +0.028 C 
ENDROOT
BRANCH   6  13
ATOM     13  C13 <0> A   1     -25.013  -3.574  50.979  0.00  0.00    +0.074 C 
BRANCH  13  14
ATOM     14  C14 <0> A   1     -25.689  -4.913  51.284  0.00  0.00    +0.030 C 
BRANCH  14  15
ATOM     15  C15 <0> A   1     -24.818  -6.056  50.763  0.00  0.00    +0.198 C 
ATOM     16  C16 <0> A   1     -25.526  -6.747  49.594  0.00  0.00    +0.034 C 
ATOM     17  C17 <0> A   1     -24.669  -7.918  49.101  0.00  0.00    +0.181 C 
ATOM     18  C18 <0> A   1     -24.464  -8.905  50.258  0.00  0.00    +0.014 C 
ATOM     19  C19 <0> A   1     -23.949  -8.134  51.454  0.00  0.00    +0.497 C 
ATOM     20  O1  <0> A   1     -22.984  -8.517  52.072  0.00  0.00    -0.454 OA
ATOM     21  O2  <0> A   1     -24.597  -7.006  51.811  0.00  0.00    -0.363 OA
BRANCH  17  22
ATOM     22  O3  <0> A   1     -23.401  -7.429  48.657  0.00  0.00    -0.558 OA
ATOM     23  H27 <0> A   1     -22.646  -7.920  49.008  0.00  0.00    +0.384 HD
ENDBRANCH  17  22
ENDBRANCH  14  15
ENDBRANCH  13  14
ENDBRANCH   6  13
BRANCH   4  24
ATOM     24  O4  <0> A   1     -26.642  -2.239  51.673  0.00  0.00    -0.345 OA
BRANCH  24  25
ATOM     25  C20 <0> A   1     -27.813  -1.777  50.998  0.00  0.00    +0.206 C 
BRANCH  25  26
ATOM     26  C21 <0> A   1     -28.519  -2.945  50.359  0.00  0.00    -0.101 A 
ATOM     27  C22 <0> A   1     -29.502  -3.623  51.055  0.00  0.00    +0.070 A 
ATOM     28  C23 <0> A   1     -30.151  -4.694  50.470  0.00  0.00    -0.015 A 
ATOM     29  C24 <0> A   1     -29.816  -5.087  49.186  0.00  0.00    +0.108 A 
ATOM     30  C25 <0> A   1     -28.831  -4.408  48.489  0.00  0.00    -0.025 A 
ATOM     31  C26 <0> A   1     -28.188  -3.334  49.075  0.00  0.00    +0.059 A 
ATOM     32  F1  <0> A   1     -30.450  -6.134  48.613  0.00  0.00    -0.140 F 
ENDBRANCH  25  26
ENDBRANCH  24  25
ENDBRANCH   4  24
TORSDOF 7
