REMARK VINA RESULT:      -8.3      3.832      8.171
REMARK  Name = CHEMBL341284
REMARK  11 active torsions:
REMARK  status: ('A' for Active; 'I' for Inactive)
REMARK    1  A    between atoms: C1_1  and  C2_2
REMARK    2  A    between atoms: C5_5  and  S1_8
REMARK    3  A    between atoms: S1_8  and  N1_11
REMARK    4  A    between atoms: C8_12  and  C21_31
REMARK    5  A    between atoms: C9_13  and  C14_19
REMARK    6  A    between atoms: C10_14  and  C11_16
REMARK    7  A    between atoms: C11_16  and  C12_17
REMARK    8  A    between atoms: C11_16  and  C13_18
REMARK    9  A    between atoms: C14_19  and  C15_20
REMARK   10  A    between atoms: C15_20  and  C16_21
REMARK   11  A    between atoms: C18_24  and  O5_30
REMARK                            x       y       z     vdW  Elec       q    Type
REMARK                         _______ _______ _______ _____ _____    ______ ____
ROOT
ATOM      1  N1  <0> A   1     -14.943   8.033  46.661  0.00  0.00    -0.734 N 
ATOM      2  C8  <0> A   1     -13.971   8.540  45.851  0.00  0.00    +0.141 C 
ATOM      3  C9  <0> A   1     -13.666   7.577  44.931  0.00  0.00    -0.168 C 
ATOM      4  C10 <0> A   1     -14.469   6.466  45.190  0.00  0.00    +0.127 C 
ATOM      5  N2  <0> A   1     -15.226   6.732  46.225  0.00  0.00    -0.237 NA
ENDROOT
BRANCH   2   6
ATOM      6  C21 <0> A   1     -13.362   9.884  45.949  0.00  0.00    -0.089 A 
ATOM      7  C22 <0> A   1     -12.076  10.033  46.472  0.00  0.00    +0.084 A 
ATOM      8  C23 <0> A   1     -11.512  11.289  46.561  0.00  0.00    -0.020 A 
ATOM      9  C24 <0> A   1     -12.219  12.400  46.133  0.00  0.00    +0.124 A 
ATOM     10  C25 <0> A   1     -13.496  12.258  45.614  0.00  0.00    -0.011 A 
ATOM     11  C26 <0> A   1     -14.067  11.006  45.515  0.00  0.00    +0.127 A 
ATOM     12  F1  <0> A   1     -11.662  13.628  46.223  0.00  0.00    -0.134 F 
ENDBRANCH   2   6
BRANCH   1  13
ATOM     13  S1  <0> A   1     -15.655   8.811  47.937  0.00  0.00    +2.687 S 
ATOM     14  O1  <0> A   1     -16.377   7.825  48.662  0.00  0.00    -0.914 OA
ATOM     15  O2  <0> A   1     -16.277   9.974  47.407  0.00  0.00    -0.921 OA
BRANCH  13  20
ATOM     16  C1  <0> A   1     -11.226  10.726  51.558  0.00  0.00    +0.105 C 
ATOM     17  C2  <0> A   1     -12.333  10.248  50.654  0.00  0.00    -0.018 A 
ATOM     18  C3  <0> A   1     -12.464   8.900  50.377  0.00  0.00    -0.005 A 
ATOM     19  C4  <0> A   1     -13.479   8.461  49.547  0.00  0.00    +0.131 A 
ATOM     20  C5  <0> A   1     -14.362   9.370  48.995  0.00  0.00    -0.682 A 
ATOM     21  C6  <0> A   1     -14.231  10.718  49.273  0.00  0.00    +0.137 A 
ATOM     22  C7  <0> A   1     -13.218  11.156  50.106  0.00  0.00    -0.004 A 
ENDBRANCH  13  20
ENDBRANCH   1  13
BRANCH   4  23
ATOM     23  C11 <0> A   1     -14.460   5.174  44.415  0.00  0.00    +0.076 C 
ATOM     24  C12 <0> A   1     -14.178   4.010  45.367  0.00  0.00    +0.041 C 
ATOM     25  C13 <0> A   1     -15.823   4.969  43.750  0.00  0.00    +0.041 C 
ENDBRANCH   4  23
BRANCH   3  26
ATOM     26  C14 <0> A   1     -12.643   7.695  43.831  0.00  0.00    +0.117 C 
BRANCH  26  27
ATOM     27  C15 <0> A   1     -13.352   7.702  42.475  0.00  0.00    +0.055 C 
BRANCH  27  28
ATOM     28  C16 <0> A   1     -13.158   9.064  41.805  0.00  0.00    +0.198 C 
ATOM     29  C17 <0> A   1     -13.238   8.902  40.285  0.00  0.00    +0.040 C 
ATOM     30  C18 <0> A   1     -13.086  10.274  39.619  0.00  0.00    +0.183 C 
ATOM     31  C19 <0> A   1     -14.209  11.194  40.116  0.00  0.00    +0.021 C 
ATOM     32  C20 <0> A   1     -14.214  11.163  41.628  0.00  0.00    +0.496 C 
ATOM     33  O3  <0> A   1     -14.241  12.186  42.271  0.00  0.00    -0.452 OA
ATOM     34  O4  <0> A   1     -14.187   9.961  42.240  0.00  0.00    -0.366 OA
BRANCH  30  35
ATOM     35  O5  <0> A   1     -11.818  10.836  39.964  0.00  0.00    -0.564 OA
ATOM     36  H25 <0> A   1     -11.282  10.275  40.542  0.00  0.00    +0.387 HD
ENDBRANCH  30  35
ENDBRANCH  27  28
ENDBRANCH  26  27
ENDBRANCH   3  26
TORSDOF 8
