REMARK VINA RESULT:      -8.8      0.000      0.000
REMARK  Name = CHEMBL317142
REMARK  15 active torsions:
REMARK  status: ('A' for Active; 'I' for Inactive)
REMARK    1  A    between atoms: C1_1  and  C2_2
REMARK    2  A    between atoms: C2_2  and  C3_3
REMARK    3  A    between atoms: C2_2  and  C4_4
REMARK    4  A    between atoms: C12_12  and  C20_26
REMARK    5  A    between atoms: C13_13  and  O1_14
REMARK    6  A    between atoms: O1_14  and  C14_15
REMARK    7  A    between atoms: C14_15  and  C15_16
REMARK    8  A    between atoms: C15_16  and  C16_17
REMARK    9  A    between atoms: C15_16  and  O5_25
REMARK   10  A    between atoms: C16_17  and  C17_18
REMARK   11  A    between atoms: C17_18  and  C18_20
REMARK   12  A    between atoms: C17_18  and  O4_24
REMARK   13  A    between atoms: C18_20  and  C19_21
REMARK   14  A    between atoms: C20_26  and  C21_27
REMARK   15  A    between atoms: C20_26  and  C27_34
REMARK                            x       y       z     vdW  Elec       q    Type
REMARK                         _______ _______ _______ _____ _____    ______ ____
ROOT
ATOM      1  C4  <0> A   1     -15.190   6.443  45.180  0.00  0.00    -0.077 A 
ATOM      2  C5  <0> A   1     -15.911   6.878  46.305  0.00  0.00    -0.031 A 
ATOM      3  C6  <0> A   1     -17.107   6.249  46.692  0.00  0.00    +0.028 A 
ATOM      4  C7  <0> A   1     -17.779   6.697  47.787  0.00  0.00    +0.004 A 
ATOM      5  C8  <0> A   1     -17.299   7.772  48.533  0.00  0.00    +0.004 A 
ATOM      6  C9  <0> A   1     -16.144   8.405  48.189  0.00  0.00    +0.022 A 
ATOM      7  C10 <0> A   1     -15.423   7.970  47.064  0.00  0.00    -0.053 A 
ATOM      8  C11 <0> A   1     -14.226   8.600  46.679  0.00  0.00    +0.040 A 
ATOM      9  C12 <0> A   1     -13.552   8.154  45.584  0.00  0.00    -0.082 A 
ATOM     10  C13 <0> A   1     -14.029   7.073  44.837  0.00  0.00    +0.109 A 
ENDROOT
BRANCH   1  12
ATOM     11  C1  <0> A   1     -15.639   4.004  45.200  0.00  0.00    +0.029 C 
ATOM     12  C2  <0> A   1     -15.693   5.282  44.361  0.00  0.00    +0.037 C 
ATOM     13  C3  <0> A   1     -17.137   5.549  43.932  0.00  0.00    +0.024 C 
ENDBRANCH   1  12
BRANCH  10  14
ATOM     14  O1  <0> A   1     -13.330   6.647  43.752  0.00  0.00    -0.317 OA
BRANCH  14  15
ATOM     15  C14 <0> A   1     -13.666   7.233  42.493  0.00  0.00    +0.147 C 
BRANCH  15  16
ATOM     16  C15 <0> A   1     -12.392   7.450  41.675  0.00  0.00    +0.225 C 
BRANCH  16  17
ATOM     17  O5  <0> A   1     -11.509   6.343  41.867  0.00  0.00    -0.530 OA
ATOM     18  H22 <0> A   1     -11.951   5.483  41.869  0.00  0.00    +0.363 HD
ENDBRANCH  16  17
BRANCH  16  19
ATOM     19  C16 <0> A   1     -12.751   7.565  40.192  0.00  0.00    -0.043 C 
BRANCH  19  20
ATOM     20  C17 <0> A   1     -12.315   8.934  39.667  0.00  0.00    +0.235 C 
BRANCH  20  21
ATOM     21  O4  <0> A   1     -12.615   9.028  38.273  0.00  0.00    -0.527 OA
ATOM     22  H21 <0> A   1     -12.615   9.933  37.932  0.00  0.00    +0.350 HD
ENDBRANCH  20  21
BRANCH  20  23
ATOM     23  C18 <0> A   1     -13.062  10.033  40.426  0.00  0.00    -0.101 C 
BRANCH  23  24
ATOM     24  C19 <0> A   1     -13.285  11.211  39.513  0.00  0.00    +0.491 C 
ATOM     25  O2  <0> A   1     -12.357  11.949  39.232  0.00  0.00    -0.680 OA
ATOM     26  O3  <0> A   1     -14.394  11.426  39.055  0.00  0.00    -0.712 OA
ENDBRANCH  23  24
ENDBRANCH  20  23
ENDBRANCH  19  20
ENDBRANCH  16  19
ENDBRANCH  15  16
ENDBRANCH  14  15
ENDBRANCH  10  14
BRANCH   9  27
ATOM     27  C20 <0> A   1     -12.269   8.832  45.176  0.00  0.00    +0.144 C 
BRANCH  27  28
ATOM     28  C21 <0> A   1     -12.189  10.189  45.828  0.00  0.00    -0.087 A 
ATOM     29  C22 <0> A   1     -11.549  10.332  47.045  0.00  0.00    +0.057 A 
ATOM     30  C23 <0> A   1     -11.475  11.575  47.645  0.00  0.00    -0.014 A 
ATOM     31  C24 <0> A   1     -12.041  12.676  47.025  0.00  0.00    +0.097 A 
ATOM     32  C25 <0> A   1     -12.681  12.532  45.806  0.00  0.00    -0.016 A 
ATOM     33  C26 <0> A   1     -12.749  11.288  45.206  0.00  0.00    +0.050 A 
ATOM     34  F1  <0> A   1     -11.969  13.892  47.611  0.00  0.00    -0.141 F 
ENDBRANCH  27  28
BRANCH  27  35
ATOM     35  C27 <0> A   1     -11.096   7.994  45.612  0.00  0.00    -0.080 A 
ATOM     36  C28 <0> A   1     -11.210   7.166  46.713  0.00  0.00    +0.050 A 
ATOM     37  C29 <0> A   1     -10.135   6.396  47.114  0.00  0.00    -0.019 A 
ATOM     38  C30 <0> A   1      -8.943   6.454  46.412  0.00  0.00    +0.097 A 
ATOM     39  C31 <0> A   1      -8.829   7.284  45.310  0.00  0.00    -0.012 A 
ATOM     40  C32 <0> A   1      -9.908   8.049  44.907  0.00  0.00    +0.063 A 
ATOM     41  F2  <0> A   1      -7.891   5.702  46.804  0.00  0.00    -0.141 F 
ENDBRANCH  27  35
ENDBRANCH   9  27
TORSDOF 13
