REMARK VINA RESULT:      -7.3      2.845      5.099
REMARK  Name = CHEMBL562679
REMARK  15 active torsions:
REMARK  status: ('A' for Active; 'I' for Inactive)
REMARK    1  A    between atoms: C1_1  and  C2_2
REMARK    2  A    between atoms: C2_2  and  C3_3
REMARK    3  A    between atoms: C3_3  and  C4_4
REMARK    4  A    between atoms: C3_3  and  C6_6
REMARK    5  A    between atoms: C3_3  and  C12_12
REMARK    6  A    between atoms: C4_4  and  C5_5
REMARK    7  A    between atoms: C15_15  and  C24_25
REMARK    8  A    between atoms: C16_16  and  C18_18
REMARK    9  A    between atoms: C25_26  and  C26_27
REMARK   10  A    between atoms: C26_27  and  C27_29
REMARK   11  A    between atoms: C26_27  and  O4_37
REMARK   12  A    between atoms: C27_29  and  C28_30
REMARK   13  A    between atoms: C28_30  and  C29_32
REMARK   14  A    between atoms: C28_30  and  O3_36
REMARK   15  A    between atoms: C29_32  and  C30_33
REMARK                            x       y       z     vdW  Elec       q    Type
REMARK                         _______ _______ _______ _____ _____    ______ ____
ROOT
ATOM      1  C12 <0> A   1     -25.972  -3.183  51.769  0.00  0.00    -0.073 A 
ATOM      2  C13 <0> A   1     -27.277  -3.366  52.195  0.00  0.00    +0.022 A 
ATOM      3  C14 <0> A   1     -27.833  -4.629  52.216  0.00  0.00    +0.010 A 
ATOM      4  C15 <0> A   1     -27.079  -5.729  51.807  0.00  0.00    -0.030 A 
ATOM      5  C16 <0> A   1     -25.756  -5.541  51.375  0.00  0.00    -0.047 A 
ATOM      6  C17 <0> A   1     -25.213  -4.259  51.355  0.00  0.00    +0.035 A 
ENDROOT
BRANCH   5   7
ATOM      7  C18 <0> A   1     -24.943  -6.701  50.938  0.00  0.00    -0.051 A 
ATOM      8  C19 <0> A   1     -24.339  -7.528  51.884  0.00  0.00    +0.060 A 
ATOM      9  C20 <0> A   1     -23.583  -8.607  51.472  0.00  0.00    -0.009 A 
ATOM     10  C21 <0> A   1     -23.424  -8.868  50.121  0.00  0.00    +0.100 A 
ATOM     11  C22 <0> A   1     -24.022  -8.049  49.177  0.00  0.00    -0.016 A 
ATOM     12  C23 <0> A   1     -24.784  -6.972  49.579  0.00  0.00    +0.052 A 
ATOM     13  F1  <0> A   1     -22.682  -9.926  49.723  0.00  0.00    -0.140 F 
ENDBRANCH   5   7
BRANCH   4  14
ATOM     14  C24 <0> A   1     -27.670  -7.082  51.828  0.00  0.00    -0.002 C 
ATOM     15  C25 <0> A   1     -28.248  -7.571  50.739  0.00  0.00    -0.047 C 
BRANCH  15  16
ATOM     16  C26 <0> A   1     -28.852  -8.952  50.762  0.00  0.00    +0.249 C 
BRANCH  16  17
ATOM     17  O4  <0> A   1     -27.809  -9.928  50.786  0.00  0.00    -0.536 OA
ATOM     18  H32 <0> A   1     -27.466 -10.115  51.671  0.00  0.00    +0.364 HD
ENDBRANCH  16  17
BRANCH  16  19
ATOM     19  C27 <0> A   1     -29.725  -9.107  52.008  0.00  0.00    -0.041 C 
BRANCH  19  20
ATOM     20  C28 <0> A   1     -30.599 -10.355  51.867  0.00  0.00    +0.231 C 
BRANCH  20  21
ATOM     21  O3  <0> A   1     -30.339 -10.978  50.609  0.00  0.00    -0.528 OA
ATOM     22  H31 <0> A   1     -31.034 -10.842  49.950  0.00  0.00    +0.350 HD
ENDBRANCH  20  21
BRANCH  20  23
ATOM     23  C29 <0> A   1     -30.277 -11.333  52.999  0.00  0.00    -0.101 C 
BRANCH  23  24
ATOM     24  C30 <0> A   1     -29.618 -12.561  52.428  0.00  0.00    +0.490 C 
ATOM     25  O1  <0> A   1     -30.264 -13.581  52.263  0.00  0.00    -0.681 OA
ATOM     26  O2  <0> A   1     -28.435 -12.535  52.130  0.00  0.00    -0.713 OA
ENDBRANCH  23  24
ENDBRANCH  20  23
ENDBRANCH  19  20
ENDBRANCH  16  19
ENDBRANCH  15  16
ENDBRANCH   4  14
BRANCH   1  27
ATOM     27  C3  <0> A   1     -25.377  -1.798  51.751  0.00  0.00    +0.023 C 
BRANCH  27  28
ATOM     28  C6  <0> A   1     -24.038  -1.817  52.443  0.00  0.00    -0.055 A 
ATOM     29  C7  <0> A   1     -23.954  -1.546  53.795  0.00  0.00    +0.009 A 
ATOM     30  C8  <0> A   1     -22.727  -1.564  54.429  0.00  0.00    +0.002 A 
ATOM     31  C9  <0> A   1     -21.582  -1.855  53.711  0.00  0.00    -0.009 A 
ATOM     32  C10 <0> A   1     -21.665  -2.127  52.358  0.00  0.00    -0.001 A 
ATOM     33  C11 <0> A   1     -22.894  -2.113  51.724  0.00  0.00    +0.003 A 
ENDBRANCH  27  28
BRANCH  27  35
ATOM     34  C1  <0> A   1     -25.909   0.609  52.159  0.00  0.00    +0.013 C 
ATOM     35  C2  <0> A   1     -26.314  -0.832  52.479  0.00  0.00    +0.025 C 
ENDBRANCH  27  35
BRANCH  27  36
ATOM     36  C4  <0> A   1     -25.197  -1.338  50.303  0.00  0.00    +0.029 C 
ATOM     37  C5  <0> A   1     -26.542  -1.401  49.577  0.00  0.00    +0.012 C 
ENDBRANCH  27  36
ENDBRANCH   1  27
TORSDOF 13
