REMARK VINA RESULT:      -8.4      0.000      0.000
REMARK  Name = CHEMBL398240
REMARK  17 active torsions:
REMARK  status: ('A' for Active; 'I' for Inactive)
REMARK    1  A    between atoms: C1_1  and  C2_2
REMARK    2  A    between atoms: C2_2  and  C3_3
REMARK    3  A    between atoms: C2_2  and  N1_4
REMARK    4  A    between atoms: C4_5  and  C27_32
REMARK    5  A    between atoms: C5_6  and  C21_25
REMARK    6  A    between atoms: C6_7  and  C15_19
REMARK    7  A    between atoms: C7_8  and  C8_9
REMARK    8  A    between atoms: N2_11  and  C9_12
REMARK    9  A    between atoms: C9_12  and  C10_13
REMARK   10  A    between atoms: C27_32  and  C28_33
REMARK   11  A    between atoms: C28_33  and  C29_34
REMARK   12  A    between atoms: C29_34  and  C30_36
REMARK   13  A    between atoms: C29_34  and  O5_44
REMARK   14  A    between atoms: C30_36  and  C31_37
REMARK   15  A    between atoms: C31_37  and  C32_39
REMARK   16  A    between atoms: C31_37  and  O4_43
REMARK   17  A    between atoms: C32_39  and  C33_40
REMARK                            x       y       z     vdW  Elec       q    Type
REMARK                         _______ _______ _______ _____ _____    ______ ____
ROOT
ATOM      1  N1  <0> A   1     -15.792   6.262  45.493  0.00  0.00    -0.402 N 
ATOM      2  C4  <0> A   1     -14.566   6.745  45.176  0.00  0.00    +0.073 C 
ATOM      3  C5  <0> A   1     -14.321   7.860  45.920  0.00  0.00    -0.122 C 
ATOM      4  C6  <0> A   1     -15.455   8.081  46.743  0.00  0.00    -0.058 C 
ATOM      5  C7  <0> A   1     -16.362   7.070  46.451  0.00  0.00    -0.030 C 
ENDROOT
BRANCH   3   6
ATOM      6  C21 <0> A   1     -13.093   8.691  45.877  0.00  0.00    -0.008 A 
ATOM      7  C22 <0> A   1     -12.005   8.373  46.689  0.00  0.00    +0.050 A 
ATOM      8  C23 <0> A   1     -10.865   9.148  46.646  0.00  0.00    -0.016 A 
ATOM      9  C24 <0> A   1     -10.800  10.242  45.798  0.00  0.00    +0.095 A 
ATOM     10  C25 <0> A   1     -11.879  10.563  44.990  0.00  0.00    -0.017 A 
ATOM     11  C26 <0> A   1     -13.021   9.788  45.022  0.00  0.00    +0.055 A 
ATOM     12  F1  <0> A   1      -9.682  10.999  45.760  0.00  0.00    -0.142 F 
ENDBRANCH   3   6
BRANCH   4  13
ATOM     13  C15 <0> A   1     -15.639   9.179  47.719  0.00  0.00    -0.012 A 
ATOM     14  C16 <0> A   1     -16.281  10.357  47.335  0.00  0.00    +0.024 A 
ATOM     15  C17 <0> A   1     -16.449  11.377  48.249  0.00  0.00    +0.001 A 
ATOM     16  C18 <0> A   1     -15.982  11.234  49.544  0.00  0.00    -0.003 A 
ATOM     17  C19 <0> A   1     -15.345  10.068  49.930  0.00  0.00    +0.003 A 
ATOM     18  C20 <0> A   1     -15.176   9.039  49.027  0.00  0.00    +0.013 A 
ENDBRANCH   4  13
BRANCH   5  19
ATOM     19  C8  <0> A   1     -17.684   6.893  47.056  0.00  0.00    +0.606 C 
ATOM     20  O1  <0> A   1     -18.686   7.101  46.396  0.00  0.00    -0.519 OA
ATOM     21  N2  <0> A   1     -17.792   6.502  48.340  0.00  0.00    -0.713 N 
ATOM     22  H10 <0> A   1     -16.996   6.400  48.885  0.00  0.00    +0.404 HD
BRANCH  21  23
ATOM     23  C9  <0> A   1     -19.111   6.230  48.915  0.00  0.00    +0.348 C 
BRANCH  23  24
ATOM     24  C10 <0> A   1     -19.567   7.423  49.715  0.00  0.00    +0.105 A 
ATOM     25  C11 <0> A   1     -18.635   8.340  50.164  0.00  0.00    -0.016 A 
ATOM     26  C12 <0> A   1     -19.065   9.434  50.899  0.00  0.00    +0.063 A 
ATOM     27  C13 <0> A   1     -20.422   9.565  51.157  0.00  0.00    -0.027 A 
ATOM     28  C14 <0> A   1     -21.294   8.608  50.675  0.00  0.00    +0.260 A 
ATOM     29  N3  <0> A   1     -20.850   7.582  49.974  0.00  0.00    -0.466 NA
ENDBRANCH  23  24
ENDBRANCH  21  23
ENDBRANCH   5  19
BRANCH   1  31
ATOM     30  C1  <0> A   1     -17.024   5.435  43.550  0.00  0.00    +0.046 C 
ATOM     31  C2  <0> A   1     -16.414   5.073  44.905  0.00  0.00    +0.229 C 
ATOM     32  C3  <0> A   1     -15.355   3.984  44.714  0.00  0.00    +0.042 C 
ENDBRANCH   1  31
BRANCH   2  33
ATOM     33  C27 <0> A   1     -13.626   6.145  44.163  0.00  0.00    +0.117 C 
BRANCH  33  34
ATOM     34  C28 <0> A   1     -13.740   6.911  42.844  0.00  0.00    -0.007 C 
BRANCH  34  35
ATOM     35  C29 <0> A   1     -12.342   7.282  42.348  0.00  0.00    +0.212 C 
BRANCH  35  36
ATOM     36  O5  <0> A   1     -11.535   6.105  42.267  0.00  0.00    -0.541 OA
ATOM     37  H35 <0> A   1     -11.523   5.698  41.390  0.00  0.00    +0.362 HD
ENDBRANCH  35  36
BRANCH  35  38
ATOM     38  C30 <0> A   1     -12.447   7.925  40.963  0.00  0.00    -0.051 C 
BRANCH  38  39
ATOM     39  C31 <0> A   1     -12.988   9.350  41.102  0.00  0.00    +0.230 C 
BRANCH  39  40
ATOM     40  O4  <0> A   1     -11.901  10.255  41.302  0.00  0.00    -0.528 OA
ATOM     41  H34 <0> A   1     -12.095  10.972  41.921  0.00  0.00    +0.349 HD
ENDBRANCH  39  40
BRANCH  39  42
ATOM     42  C32 <0> A   1     -13.743   9.734  39.827  0.00  0.00    -0.103 C 
BRANCH  42  43
ATOM     43  C33 <0> A   1     -13.707  11.231  39.655  0.00  0.00    +0.490 C 
ATOM     44  O2  <0> A   1     -12.926  11.736  38.866  0.00  0.00    -0.681 OA
ATOM     45  O3  <0> A   1     -14.459  11.937  40.305  0.00  0.00    -0.713 OA
ENDBRANCH  42  43
ENDBRANCH  39  42
ENDBRANCH  38  39
ENDBRANCH  35  38
ENDBRANCH  34  35
ENDBRANCH  33  34
ENDBRANCH   2  33
TORSDOF 15
