REMARK VINA RESULT:      -7.1     16.991     20.162
REMARK  Name = CHEMBL333904
REMARK  15 active torsions:
REMARK  status: ('A' for Active; 'I' for Inactive)
REMARK    1  A    between atoms: C1_1  and  C2_2
REMARK    2  A    between atoms: C2_2  and  C3_3
REMARK    3  A    between atoms: C2_2  and  C4_4
REMARK    4  A    between atoms: C6_6  and  C22_30
REMARK    5  A    between atoms: C7_7  and  C16_23
REMARK    6  A    between atoms: N1_8  and  C8_9
REMARK    7  A    between atoms: C9_10  and  C10_11
REMARK    8  A    between atoms: C10_11  and  C11_13
REMARK    9  A    between atoms: C10_11  and  O4_22
REMARK   10  A    between atoms: C11_13  and  C12_14
REMARK   11  A    between atoms: C12_14  and  C13_16
REMARK   12  A    between atoms: C12_14  and  O3_21
REMARK   13  A    between atoms: C13_16  and  C14_17
REMARK   14  A    between atoms: C14_17  and  O2_19
REMARK   15  A    between atoms: O2_19  and  C15_20
REMARK                            x       y       z     vdW  Elec       q    Type
REMARK                         _______ _______ _______ _____ _____    ______ ____
ROOT
ATOM      1  C4  <0> A   1     -25.832  -2.902  50.940  0.00  0.00    +0.043 C 
ATOM      2  C5  <0> A   1     -27.057  -3.446  50.813  0.00  0.00    -0.020 C 
ATOM      3  C6  <0> A   1     -26.897  -4.849  50.708  0.00  0.00    -0.112 C 
ATOM      4  C7  <0> A   1     -25.536  -5.104  50.779  0.00  0.00    +0.072 C 
ATOM      5  N1  <0> A   1     -24.897  -3.899  50.915  0.00  0.00    -0.389 N 
ENDROOT
BRANCH   4   6
ATOM      6  C16 <0> A   1     -24.893  -6.431  50.713  0.00  0.00    -0.034 A 
ATOM      7  C17 <0> A   1     -24.654  -7.034  49.476  0.00  0.00    +0.056 A 
ATOM      8  C18 <0> A   1     -24.051  -8.273  49.421  0.00  0.00    -0.011 A 
ATOM      9  C19 <0> A   1     -23.683  -8.921  50.590  0.00  0.00    +0.106 A 
ATOM     10  C20 <0> A   1     -23.918  -8.327  51.820  0.00  0.00    -0.010 A 
ATOM     11  C21 <0> A   1     -24.514  -7.086  51.888  0.00  0.00    +0.069 A 
ATOM     12  F1  <0> A   1     -23.093 -10.134  50.530  0.00  0.00    -0.136 F 
ENDBRANCH   4   6
BRANCH   3  13
ATOM     13  C22 <0> A   1     -27.975  -5.851  50.554  0.00  0.00    +0.041 A 
ATOM     14  C23 <0> A   1     -28.505  -6.149  49.292  0.00  0.00    -0.031 A 
ATOM     15  C24 <0> A   1     -29.508  -7.089  49.194  0.00  0.00    +0.255 A 
ATOM     16  N2  <0> A   1     -29.970  -7.704  50.268  0.00  0.00    -0.490 NA
ATOM     17  C25 <0> A   1     -29.498  -7.452  51.475  0.00  0.00    +0.255 A 
ATOM     18  C26 <0> A   1     -28.489  -6.530  51.663  0.00  0.00    -0.031 A 
ENDBRANCH   3  13
BRANCH   1  20
ATOM     19  C1  <0> A   1     -26.400  -0.642  50.091  0.00  0.00    +0.041 C 
ATOM     20  C2  <0> A   1     -25.538  -1.431  51.080  0.00  0.00    +0.050 C 
ATOM     21  C3  <0> A   1     -25.857  -0.980  52.507  0.00  0.00    +0.033 C 
ENDBRANCH   1  20
BRANCH   5  22
ATOM     22  C8  <0> A   1     -23.518  -3.720  51.017  0.00  0.00    +0.201 C 
ATOM     23  C9  <0> A   1     -22.946  -3.660  52.204  0.00  0.00    -0.056 C 
BRANCH  23  24
ATOM     24  C10 <0> A   1     -21.456  -3.468  52.314  0.00  0.00    +0.268 C 
BRANCH  24  25
ATOM     25  O4  <0> A   1     -20.919  -3.161  51.026  0.00  0.00    -0.538 OA
ATOM     26  H21 <0> A   1     -20.289  -3.815  50.695  0.00  0.00    +0.370 HD
ENDBRANCH  24  25
BRANCH  24  27
ATOM     27  C11 <0> A   1     -21.160  -2.316  53.276  0.00  0.00    -0.015 C 
BRANCH  27  28
ATOM     28  C12 <0> A   1     -20.221  -2.802  54.381  0.00  0.00    +0.233 C 
BRANCH  28  29
ATOM     29  O3  <0> A   1     -20.724  -4.021  54.933  0.00  0.00    -0.530 OA
ATOM     30  H20 <0> A   1     -21.572  -3.925  55.388  0.00  0.00    +0.366 HD
ENDBRANCH  28  29
BRANCH  28  31
ATOM     31  C13 <0> A   1     -18.828  -3.042  53.799  0.00  0.00    +0.073 C 
BRANCH  31  32
ATOM     32  C14 <0> A   1     -18.387  -4.449  54.114  0.00  0.00    +0.456 C 
ATOM     33  O1  <0> A   1     -18.547  -5.328  53.301  0.00  0.00    -0.486 OA
BRANCH  32  34
ATOM     34  O2  <0> A   1     -17.815  -4.724  55.296  0.00  0.00    -0.359 OA
ATOM     35  C15 <0> A   1     -16.919  -3.743  55.828  0.00  0.00    +0.258 C 
ENDBRANCH  32  34
ENDBRANCH  31  32
ENDBRANCH  28  31
ENDBRANCH  27  28
ENDBRANCH  24  27
ENDBRANCH  23  24
ENDBRANCH   5  22
TORSDOF 12
