REMARK VINA RESULT:      -7.5     14.856     20.524
REMARK  Name = CHEMBL250794
REMARK  16 active torsions:
REMARK  status: ('A' for Active; 'I' for Inactive)
REMARK    1  A    between atoms: C1_1  and  C2_2
REMARK    2  A    between atoms: C2_2  and  C3_3
REMARK    3  A    between atoms: C2_2  and  C4_4
REMARK    4  A    between atoms: C5_5  and  C19_29
REMARK    5  A    between atoms: N2_7  and  C13_22
REMARK    6  A    between atoms: C6_8  and  O1_9
REMARK    7  A    between atoms: O1_9  and  C7_10
REMARK    8  A    between atoms: C7_10  and  C8_11
REMARK    9  A    between atoms: C8_11  and  C9_13
REMARK   10  A    between atoms: C8_11  and  O5_21
REMARK   11  A    between atoms: C9_13  and  C10_14
REMARK   12  A    between atoms: C10_14  and  C11_16
REMARK   13  A    between atoms: C10_14  and  O4_20
REMARK   14  A    between atoms: C11_16  and  C12_17
REMARK   15  A    between atoms: N3_31  and  C20_32
REMARK   16  A    between atoms: C20_32  and  C21_33
REMARK                            x       y       z     vdW  Elec       q    Type
REMARK                         _______ _______ _______ _____ _____    ______ ____
ROOT
ATOM      1  C4  <0> A   1     -26.388  -4.769  50.963  0.00  0.00    -0.160 C 
ATOM      2  C5  <0> A   1     -25.054  -4.338  50.799  0.00  0.00    +0.045 C 
ATOM      3  N1  <0> A   1     -24.325  -5.383  50.454  0.00  0.00    -0.237 NA
ATOM      4  N2  <0> A   1     -25.166  -6.501  50.388  0.00  0.00    -0.318 N 
ATOM      5  C6  <0> A   1     -26.427  -6.100  50.711  0.00  0.00    +0.260 C 
ENDROOT
BRANCH   4   6
ATOM      6  C13 <0> A   1     -24.778  -7.806  50.056  0.00  0.00    +0.126 A 
ATOM      7  C14 <0> A   1     -24.444  -8.708  51.057  0.00  0.00    +0.064 A 
ATOM      8  C15 <0> A   1     -24.061  -9.993  50.727  0.00  0.00    +0.005 A 
ATOM      9  C16 <0> A   1     -24.006 -10.381  49.399  0.00  0.00    +0.106 A 
ATOM     10  C17 <0> A   1     -24.338  -9.482  48.398  0.00  0.00    +0.020 A 
ATOM     11  C18 <0> A   1     -24.728  -8.198  48.725  0.00  0.00    +0.073 A 
ATOM     12  F1  <0> A   1     -23.631 -11.639  49.078  0.00  0.00    -0.133 F 
ENDBRANCH   4   6
BRANCH   2  13
ATOM     13  C19 <0> A   1     -24.560  -2.959  50.981  0.00  0.00    +0.607 C 
ATOM     14  O6  <0> A   1     -23.896  -2.675  51.959  0.00  0.00    -0.513 OA
ATOM     15  N3  <0> A   1     -24.845  -2.014  50.063  0.00  0.00    -0.710 N 
ATOM     16  H22 <0> A   1     -25.374  -2.240  49.282  0.00  0.00    +0.409 HD
BRANCH  15  17
ATOM     17  C20 <0> A   1     -24.355  -0.646  50.243  0.00  0.00    +0.354 C 
BRANCH  17  18
ATOM     18  C21 <0> A   1     -25.505   0.257  50.606  0.00  0.00    +0.105 A 
ATOM     19  C22 <0> A   1     -26.770  -0.020  50.122  0.00  0.00    -0.013 A 
ATOM     20  C23 <0> A   1     -27.822   0.817  50.461  0.00  0.00    +0.062 A 
ATOM     21  C24 <0> A   1     -27.560   1.906  51.279  0.00  0.00    -0.028 A 
ATOM     22  C25 <0> A   1     -26.271   2.120  51.724  0.00  0.00    +0.259 A 
ATOM     23  N4  <0> A   1     -25.295   1.299  51.386  0.00  0.00    -0.468 NA
ENDBRANCH  17  18
ENDBRANCH  15  17
ENDBRANCH   2  13
BRANCH   1  25
ATOM     24  C1  <0> A   1     -28.421  -3.626  50.125  0.00  0.00    +0.028 C 
ATOM     25  C2  <0> A   1     -27.558  -3.904  51.356  0.00  0.00    +0.078 C 
ATOM     26  C3  <0> A   1     -28.395  -4.629  52.412  0.00  0.00    +0.021 C 
ENDBRANCH   1  25
BRANCH   5  27
ATOM     27  O1  <0> A   1     -27.529  -6.893  50.766  0.00  0.00    -0.282 OA
BRANCH  27  28
ATOM     28  C7  <0> A   1     -28.175  -7.193  49.528  0.00  0.00    +0.155 C 
BRANCH  28  29
ATOM     29  C8  <0> A   1     -28.652  -8.647  49.540  0.00  0.00    +0.232 C 
BRANCH  29  30
ATOM     30  O5  <0> A   1     -28.015  -9.366  48.481  0.00  0.00    -0.529 OA
ATOM     31  H17 <0> A   1     -28.403  -9.205  47.610  0.00  0.00    +0.363 HD
ENDBRANCH  29  30
BRANCH  29  32
ATOM     32  C9  <0> A   1     -28.293  -9.289  50.881  0.00  0.00    -0.040 C 
BRANCH  32  33
ATOM     33  C10 <0> A   1     -29.503 -10.052  51.422  0.00  0.00    +0.237 C 
BRANCH  33  34
ATOM     34  O4  <0> A   1     -29.074 -11.303  51.965  0.00  0.00    -0.526 OA
ATOM     35  H16 <0> A   1     -29.757 -11.770  52.466  0.00  0.00    +0.350 HD
ENDBRANCH  33  34
BRANCH  33  36
ATOM     36  C11 <0> A   1     -30.179  -9.227  52.519  0.00  0.00    -0.100 C 
BRANCH  36  37
ATOM     37  C12 <0> A   1     -30.519 -10.120  53.683  0.00  0.00    +0.491 C 
ATOM     38  O2  <0> A   1     -31.464 -10.888  53.607  0.00  0.00    -0.680 OA
ATOM     39  O3  <0> A   1     -29.849 -10.078  54.701  0.00  0.00    -0.712 OA
ENDBRANCH  36  37
ENDBRANCH  33  36
ENDBRANCH  32  33
ENDBRANCH  29  32
ENDBRANCH  28  29
ENDBRANCH  27  28
ENDBRANCH   5  27
TORSDOF 14
