REMARK  Name = CHEMBL100165
REMARK  16 active torsions:
REMARK  status: ('A' for Active; 'I' for Inactive)
REMARK    1  A    between atoms: C1_1  and  C2_2
REMARK    2  A    between atoms: C2_2  and  C3_3
REMARK    3  A    between atoms: C2_2  and  C4_4
REMARK    4  A    between atoms: C6_6  and  C19_25
REMARK    5  A    between atoms: C7_7  and  O1_13
REMARK    6  A    between atoms: C8_8  and  C10_10
REMARK    7  A    between atoms: C10_10  and  C11_11
REMARK    8  A    between atoms: C10_10  and  C12_12
REMARK    9  A    between atoms: O1_13  and  C13_14
REMARK   10  A    between atoms: C13_14  and  C14_15
REMARK   11  A    between atoms: C14_15  and  C15_16
REMARK   12  A    between atoms: C14_15  and  O5_24
REMARK   13  A    between atoms: C15_16  and  C16_17
REMARK   14  A    between atoms: C16_17  and  C17_19
REMARK   15  A    between atoms: C16_17  and  O4_23
REMARK   16  A    between atoms: C17_19  and  C18_20
REMARK                            x       y       z     vdW  Elec       q    Type
REMARK                         _______ _______ _______ _____ _____    ______ ____
ROOT
ATOM      1  C4  <0> A   1      -1.451  -0.436   0.100  0.00  0.00    -0.081 A 
ATOM      2  C5  <0> A   1      -2.373  -0.100   1.072  0.00  0.00    +0.032 A 
ATOM      3  C6  <0> A   1      -3.658  -0.635   1.026  0.00  0.00    -0.063 A 
ATOM      4  C7  <0> A   1      -4.007  -1.511  -0.006  0.00  0.00    +0.109 A 
ATOM      5  C8  <0> A   1      -3.073  -1.840  -0.975  0.00  0.00    -0.085 A 
ATOM      6  C9  <0> A   1      -1.802  -1.298  -0.923  0.00  0.00    +0.026 A 
ENDROOT
BRANCH   3   7
ATOM      7  C19 <0> A   1      -4.651  -0.278   2.068  0.00  0.00    -0.056 A 
ATOM      8  C20 <0> A   1      -5.883   0.261   1.703  0.00  0.00    +0.079 A 
ATOM      9  C21 <0> A   1      -6.804   0.592   2.675  0.00  0.00    -0.014 A 
ATOM     10  C22 <0> A   1      -6.506   0.389   4.013  0.00  0.00    +0.102 A 
ATOM     11  C23 <0> A   1      -5.282  -0.146   4.380  0.00  0.00    -0.020 A 
ATOM     12  C24 <0> A   1      -4.357  -0.485   3.414  0.00  0.00    +0.050 A 
ATOM     13  F1  <0> A   1      -7.411   0.715   4.962  0.00  0.00    -0.139 F 
ENDBRANCH   3   7
BRANCH   1  15
ATOM     14  C1  <0> A   1      -0.142   1.670   0.082  0.00  0.00    +0.026 C 
ATOM     15  C2  <0> A   1      -0.061   0.143   0.151  0.00  0.00    +0.023 C 
ATOM     16  C3  <0> A   1       0.617  -0.272   1.458  0.00  0.00    +0.025 C 
ENDBRANCH   1  15
BRANCH   5  17
ATOM     17  C10 <0> A   1      -3.444  -2.783  -2.090  0.00  0.00    +0.032 C 
ATOM     18  C11 <0> A   1      -3.284  -2.072  -3.435  0.00  0.00    +0.028 C 
ATOM     19  C12 <0> A   1      -2.527  -4.008  -2.048  0.00  0.00    +0.024 C 
ENDBRANCH   5  17
BRANCH   4  20
ATOM     20  O1  <0> A   1      -5.258  -2.038  -0.059  0.00  0.00    -0.316 OA
BRANCH  20  21
ATOM     21  C13 <0> A   1      -5.478  -3.258   0.651  0.00  0.00    +0.149 C 
BRANCH  21  22
ATOM     22  C14 <0> A   1      -6.907  -3.745   0.398  0.00  0.00    +0.225 C 
BRANCH  22  23
ATOM     23  O5  <0> A   1      -7.058  -4.079  -0.983  0.00  0.00    -0.531 OA
ATOM     24  H26 <0> A   1      -6.460  -4.777  -1.287  0.00  0.00    +0.362 HD
ENDBRANCH  22  23
BRANCH  22  25
ATOM     25  C15 <0> A   1      -7.184  -4.981   1.255  0.00  0.00    -0.043 C 
BRANCH  25  26
ATOM     26  C16 <0> A   1      -8.648  -5.394   1.097  0.00  0.00    +0.235 C 
BRANCH  26  27
ATOM     27  O4  <0> A   1      -8.883  -5.808  -0.251  0.00  0.00    -0.526 OA
ATOM     28  H25 <0> A   1      -8.343  -6.560  -0.531  0.00  0.00    +0.350 HD
ENDBRANCH  26  27
BRANCH  26  29
ATOM     29  C17 <0> A   1      -8.957  -6.553   2.047  0.00  0.00    -0.101 C 
BRANCH  29  30
ATOM     30  C18 <0> A   1     -10.427  -6.878   1.981  0.00  0.00    +0.491 C 
ATOM     31  O2  <0> A   1     -11.160  -6.243   1.242  0.00  0.00    -0.680 OA
ATOM     32  O3  <0> A   1     -10.884  -7.777   2.667  0.00  0.00    -0.713 OA
ENDBRANCH  29  30
ENDBRANCH  26  29
ENDBRANCH  25  26
ENDBRANCH  22  25
ENDBRANCH  21  22
ENDBRANCH  20  21
ENDBRANCH   4  20
TORSDOF 12
