REMARK VINA RESULT:      -7.1      1.742      2.236
REMARK  Name = CHEMBL235712
REMARK  15 active torsions:
REMARK  status: ('A' for Active; 'I' for Inactive)
REMARK    1  A    between atoms: C1_1  and  C2_2
REMARK    2  A    between atoms: C2_2  and  C3_3
REMARK    3  A    between atoms: C2_2  and  N1_4
REMARK    4  A    between atoms: C4_5  and  C20_24
REMARK    5  A    between atoms: C5_6  and  C14_17
REMARK    6  A    between atoms: C6_7  and  C9_11
REMARK    7  A    between atoms: C7_8  and  C8_9
REMARK    8  A    between atoms: C20_24  and  C21_25
REMARK    9  A    between atoms: C21_25  and  C22_26
REMARK   10  A    between atoms: C22_26  and  C23_28
REMARK   11  A    between atoms: C22_26  and  O4_36
REMARK   12  A    between atoms: C23_28  and  C24_29
REMARK   13  A    between atoms: C24_29  and  C25_31
REMARK   14  A    between atoms: C24_29  and  O3_35
REMARK   15  A    between atoms: C25_31  and  C26_32
REMARK                            x       y       z     vdW  Elec       q    Type
REMARK                         _______ _______ _______ _____ _____    ______ ____
ROOT
ATOM      1  N1  <0> A   1     -14.019   6.966  45.540  0.00  0.00    -0.399 N 
ATOM      2  C4  <0> A   1     -13.015   7.785  45.938  0.00  0.00    +0.088 C 
ATOM      3  C5  <0> A   1     -13.452   8.554  46.974  0.00  0.00    -0.097 C 
ATOM      4  C6  <0> A   1     -14.801   8.191  47.233  0.00  0.00    -0.033 C 
ATOM      5  C7  <0> A   1     -15.129   7.199  46.316  0.00  0.00    +0.069 C 
ENDROOT
BRANCH   3   6
ATOM      6  C14 <0> A   1     -12.665   9.580  47.701  0.00  0.00    -0.000 A 
ATOM      7  C15 <0> A   1     -12.647  10.897  47.248  0.00  0.00    +0.049 A 
ATOM      8  C16 <0> A   1     -11.914  11.849  47.927  0.00  0.00    -0.022 A 
ATOM      9  C17 <0> A   1     -11.196  11.496  49.058  0.00  0.00    +0.096 A 
ATOM     10  C18 <0> A   1     -11.210  10.187  49.512  0.00  0.00    -0.023 A 
ATOM     11  C19 <0> A   1     -11.946   9.230  48.843  0.00  0.00    +0.079 A 
ATOM     12  F1  <0> A   1     -10.480  12.430  49.720  0.00  0.00    -0.144 F 
ENDBRANCH   3   6
BRANCH   4  13
ATOM     13  C9  <0> A   1     -15.686   8.761  48.272  0.00  0.00    +0.198 A 
ATOM     14  C10 <0> A   1     -16.170  10.062  48.132  0.00  0.00    -0.046 A 
ATOM     15  C11 <0> A   1     -16.996  10.581  49.112  0.00  0.00    +0.064 A 
ATOM     16  C12 <0> A   1     -17.314   9.782  50.203  0.00  0.00    -0.043 A 
ATOM     17  C13 <0> A   1     -16.800   8.501  50.279  0.00  0.00    +0.266 A 
ATOM     18  N3  <0> A   1     -16.018   8.028  49.329  0.00  0.00    -0.458 NA
ENDBRANCH   4  13
BRANCH   1  20
ATOM     19  C1  <0> A   1     -14.206   4.588  45.000  0.00  0.00    +0.047 C 
ATOM     20  C2  <0> A   1     -13.937   5.990  44.450  0.00  0.00    +0.235 C 
ATOM     21  C3  <0> A   1     -14.979   6.329  43.382  0.00  0.00    +0.047 C 
ENDBRANCH   1  20
BRANCH   5  22
ATOM     22  C8  <0> A   1     -16.394   6.538  46.203  0.00  0.00    +0.287 C 
ATOM     23  N2  <0> A   1     -17.398   6.013  46.113  0.00  0.00    -0.406 NA
ENDBRANCH   5  22
BRANCH   2  24
ATOM     24  C20 <0> A   1     -11.636   7.838  45.333  0.00  0.00    +0.124 C 
BRANCH  24  25
ATOM     25  C21 <0> A   1     -11.732   8.341  43.891  0.00  0.00    -0.005 C 
BRANCH  25  26
ATOM     26  C22 <0> A   1     -12.663   9.553  43.833  0.00  0.00    +0.214 C 
BRANCH  26  27
ATOM     27  O4  <0> A   1     -11.895  10.751  43.964  0.00  0.00    -0.542 OA
ATOM     28  H27 <0> A   1     -11.009  10.693  43.581  0.00  0.00    +0.363 HD
ENDBRANCH  26  27
BRANCH  26  29
ATOM     29  C23 <0> A   1     -13.403   9.566  42.495  0.00  0.00    -0.051 C 
BRANCH  29  30
ATOM     30  C24 <0> A   1     -13.012  10.817  41.707  0.00  0.00    +0.231 C 
BRANCH  30  31
ATOM     31  O3  <0> A   1     -11.681  10.670  41.208  0.00  0.00    -0.528 OA
ATOM     32  H26 <0> A   1     -11.088  11.396  41.448  0.00  0.00    +0.349 HD
ENDBRANCH  30  31
BRANCH  30  33
ATOM     33  C25 <0> A   1     -13.979  11.005  40.535  0.00  0.00    -0.103 C 
BRANCH  33  34
ATOM     34  C26 <0> A   1     -13.200  11.054  39.245  0.00  0.00    +0.490 C 
ATOM     35  O1  <0> A   1     -12.751  10.027  38.765  0.00  0.00    -0.681 OA
ATOM     36  O2  <0> A   1     -13.020  12.120  38.682  0.00  0.00    -0.713 OA
ENDBRANCH  33  34
ENDBRANCH  30  33
ENDBRANCH  29  30
ENDBRANCH  26  29
ENDBRANCH  25  26
ENDBRANCH  24  25
ENDBRANCH   2  24
TORSDOF 13
