REMARK VINA RESULT:      -8.9      6.616     10.503
REMARK  Name = CHEMBL332812
REMARK  11 active torsions:
REMARK  status: ('A' for Active; 'I' for Inactive)
REMARK    1  A    between atoms: C6_6  and  C11_11
REMARK    2  A    between atoms: C11_11  and  C12_12
REMARK    3  A    between atoms: N2_19  and  C26_34
REMARK    4  A    between atoms: C18_20  and  C19_21
REMARK    5  A    between atoms: C20_22  and  C21_23
REMARK    6  A    between atoms: C21_23  and  C22_25
REMARK    7  A    between atoms: C21_23  and  O4_33
REMARK    8  A    between atoms: C22_25  and  C23_26
REMARK    9  A    between atoms: C23_26  and  C24_28
REMARK   10  A    between atoms: C23_26  and  O3_32
REMARK   11  A    between atoms: C24_28  and  C25_29
REMARK                            x       y       z     vdW  Elec       q    Type
REMARK                         _______ _______ _______ _____ _____    ______ ____
ROOT
ATOM      1  C12 <0> A   1      -7.611   4.799  47.007  0.00  0.00    +0.092 C 
ATOM      2  C13 <0> A   1      -7.942   3.555  47.839  0.00  0.00    +0.030 C 
ATOM      3  C14 <0> A   1      -8.607   3.973  49.153  0.00  0.00    +0.016 C 
ATOM      4  C15 <0> A   1     -10.028   4.479  48.874  0.00  0.00    +0.104 C 
ATOM      5  C16 <0> A   1      -9.956   5.502  47.768  0.00  0.00    -0.211 C 
ATOM      6  C17 <0> A   1      -8.854   5.652  46.915  0.00  0.00    +0.089 C 
ATOM      7  N1  <0> A   1      -9.104   6.618  46.077  0.00  0.00    -0.263 NA
ATOM      8  N2  <0> A   1     -10.379   7.134  46.351  0.00  0.00    -0.330 N 
ATOM      9  C18 <0> A   1     -10.898   6.430  47.405  0.00  0.00    +0.124 C 
ENDROOT
BRANCH   8  10
ATOM     10  C26 <0> A   1     -11.010   8.182  45.668  0.00  0.00    +0.149 A 
ATOM     11  C27 <0> A   1     -10.850   9.492  46.103  0.00  0.00    +0.048 A 
ATOM     12  C28 <0> A   1     -11.472  10.523  45.428  0.00  0.00    +0.017 A 
ATOM     13  C29 <0> A   1     -12.255  10.253  44.318  0.00  0.00    +0.097 A 
ATOM     14  C30 <0> A   1     -12.415   8.948  43.883  0.00  0.00    +0.007 A 
ATOM     15  C31 <0> A   1     -11.791   7.914  44.551  0.00  0.00    +0.056 A 
ATOM     16  F1  <0> A   1     -12.863  11.264  43.659  0.00  0.00    -0.135 F 
ENDBRANCH   8  10
BRANCH   9  17
ATOM     17  C19 <0> A   1     -12.216   6.631  48.030  0.00  0.00    +0.027 C 
ATOM     18  C20 <0> A   1     -13.293   6.049  47.512  0.00  0.00    -0.028 C 
BRANCH  18  19
ATOM     19  C21 <0> A   1     -14.641   6.254  48.151  0.00  0.00    +0.254 C 
BRANCH  19  20
ATOM     20  O4  <0> A   1     -14.723   7.581  48.677  0.00  0.00    -0.536 OA
ATOM     21  H26 <0> A   1     -14.661   8.274  48.005  0.00  0.00    +0.368 HD
ENDBRANCH  19  20
BRANCH  19  22
ATOM     22  C22 <0> A   1     -15.738   6.052  47.104  0.00  0.00    -0.040 C 
BRANCH  22  23
ATOM     23  C23 <0> A   1     -15.173   5.271  45.916  0.00  0.00    +0.232 C 
BRANCH  23  24
ATOM     24  O3  <0> A   1     -15.602   3.910  45.994  0.00  0.00    -0.528 OA
ATOM     25  H25 <0> A   1     -16.478   3.794  46.387  0.00  0.00    +0.351 HD
ENDBRANCH  23  24
BRANCH  23  26
ATOM     26  C24 <0> A   1     -15.677   5.890  44.612  0.00  0.00    -0.102 C 
BRANCH  26  27
ATOM     27  C25 <0> A   1     -14.767   5.487  43.479  0.00  0.00    +0.491 C 
ATOM     28  O1  <0> A   1     -14.615   6.231  42.526  0.00  0.00    -0.681 OA
ATOM     29  O2  <0> A   1     -14.185   4.416  43.517  0.00  0.00    -0.713 OA
ENDBRANCH  26  27
ENDBRANCH  23  26
ENDBRANCH  22  23
ENDBRANCH  19  22
ENDBRANCH  18  19
ENDBRANCH   9  17
BRANCH   1  30
ATOM     30  C11 <0> A   1      -7.169   4.378  45.603  0.00  0.00    +0.081 C 
BRANCH  30  36
ATOM     31  C1  <0> A   1      -0.943   2.966  44.632  0.00  0.00    -0.002 A 
ATOM     32  C2  <0> A   1      -1.728   2.219  43.754  0.00  0.00    -0.004 A 
ATOM     33  C3  <0> A   1      -3.083   2.333  43.757  0.00  0.00    +0.017 A 
ATOM     34  C4  <0> A   1      -3.706   3.217  44.656  0.00  0.00    -0.055 A 
ATOM     35  C5  <0> A   1      -5.103   3.361  44.688  0.00  0.00    +0.015 A 
ATOM     36  C6  <0> A   1      -5.671   4.225  45.573  0.00  0.00    -0.073 A 
ATOM     37  C7  <0> A   1      -4.886   4.972  46.450  0.00  0.00    +0.066 A 
ATOM     38  C8  <0> A   1      -3.530   4.858  46.448  0.00  0.00    +0.001 A 
ATOM     39  C9  <0> A   1      -2.908   3.975  45.549  0.00  0.00    -0.047 A 
ATOM     40  C10 <0> A   1      -1.510   3.830  45.517  0.00  0.00    +0.015 A 
ENDBRANCH  30  36
ENDBRANCH   1  30
TORSDOF 11
