REMARK VINA RESULT:      -6.7      2.063      3.544
REMARK  Name = CHEMBL296765
REMARK  6 active torsions:
REMARK  status: ('A' for Active; 'I' for Inactive)
REMARK    1  A    between atoms: C2_2  and  C3_3
REMARK    2  A    between atoms: C3_3  and  O1_4
REMARK    3  A    between atoms: O1_4  and  C4_5
REMARK    4  A    between atoms: C9_10  and  C10_11
REMARK    5  A    between atoms: C11_12  and  C12_13
REMARK    6  A    between atoms: C14_15  and  O4_21
REMARK                            x       y       z     vdW  Elec       q    Type
REMARK                         _______ _______ _______ _____ _____    ______ ____
ROOT
ATOM      1  C4  <0> A   1      -5.988   3.900  46.075  0.00  0.00    +0.170 A 
ATOM      2  C5  <0> A   1      -6.594   2.881  45.359  0.00  0.00    -0.052 A 
ATOM      3  C6  <0> A   1      -5.841   2.088  44.511  0.00  0.00    +0.017 A 
ATOM      4  C7  <0> A   1      -4.479   2.305  44.375  0.00  0.00    +0.011 A 
ATOM      5  C8  <0> A   1      -3.863   3.316  45.084  0.00  0.00    +0.017 A 
ATOM      6  C9  <0> A   1      -4.614   4.127  45.936  0.00  0.00    -0.077 A 
ATOM      7 Cl1  <0> A   1      -2.157   3.585  44.909  0.00  0.00    -0.037 Cl
ATOM      8 Cl2  <0> A   1      -6.606   0.812  43.617  0.00  0.00    -0.049 Cl
ENDROOT
BRANCH   6   9
ATOM      9  C10 <0> A   1      -3.962   5.215  46.692  0.00  0.00    +0.056 C 
ATOM     10  C11 <0> A   1      -3.514   4.995  47.921  0.00  0.00    -0.010 C 
BRANCH  10  11
ATOM     11  C12 <0> A   1      -2.849   6.104  48.691  0.00  0.00    +0.243 C 
ATOM     12  C13 <0> A   1      -2.930   5.806  50.191  0.00  0.00    +0.051 C 
ATOM     13  C14 <0> A   1      -2.288   6.956  50.973  0.00  0.00    +0.186 C 
ATOM     14  C15 <0> A   1      -3.037   8.255  50.649  0.00  0.00    +0.023 C 
ATOM     15  C16 <0> A   1      -3.102   8.402  49.145  0.00  0.00    +0.497 C 
ATOM     16  O2  <0> A   1      -2.793   9.440  48.609  0.00  0.00    -0.451 OA
ATOM     17  O3  <0> A   1      -3.515   7.342  48.420  0.00  0.00    -0.367 OA
BRANCH  13  18
ATOM     18  O4  <0> A   1      -0.916   7.085  50.597  0.00  0.00    -0.564 OA
ATOM     19  H16 <0> A   1      -0.644   6.487  49.888  0.00  0.00    +0.387 HD
ENDBRANCH  13  18
ENDBRANCH  10  11
ENDBRANCH   6   9
BRANCH   1  20
ATOM     20  O1  <0> A   1      -6.727   4.680  46.907  0.00  0.00    -0.292 OA
BRANCH  20  21
ATOM     21  C3  <0> A   1      -7.931   5.238  46.374  0.00  0.00    +0.232 C 
BRANCH  21  23
ATOM     22  C1  <0> A   1      -7.777   6.520  44.302  0.00  0.00    +0.049 C 
ATOM     23  C2  <0> A   1      -7.606   6.489  45.600  0.00  0.00    -0.039 C 
ENDBRANCH  21  23
ENDBRANCH  20  21
ENDBRANCH   1  20
TORSDOF 6
