REMARK VINA RESULT:      -7.3      2.789      8.867
REMARK  Name = CHEMBL389442
REMARK  15 active torsions:
REMARK  status: ('A' for Active; 'I' for Inactive)
REMARK    1  A    between atoms: C1_1  and  C2_2
REMARK    2  A    between atoms: C2_2  and  C3_3
REMARK    3  A    between atoms: C2_2  and  N1_4
REMARK    4  A    between atoms: C4_5  and  C28_33
REMARK    5  A    between atoms: C5_6  and  C22_26
REMARK    6  A    between atoms: N2_11  and  C15_18
REMARK    7  A    between atoms: C15_18  and  C16_19
REMARK    8  A    between atoms: C28_33  and  C29_34
REMARK    9  A    between atoms: C29_34  and  C30_35
REMARK   10  A    between atoms: C30_35  and  C31_37
REMARK   11  A    between atoms: C30_35  and  O5_45
REMARK   12  A    between atoms: C31_37  and  C32_38
REMARK   13  A    between atoms: C32_38  and  C33_40
REMARK   14  A    between atoms: C32_38  and  O4_44
REMARK   15  A    between atoms: C33_40  and  C34_41
REMARK                            x       y       z     vdW  Elec       q    Type
REMARK                         _______ _______ _______ _____ _____    ______ ____
ROOT
ATOM      1  N1  <0> A   1     -15.698   6.416  46.329  0.00  0.00    -0.391 N 
ATOM      2  C4  <0> A   1     -14.561   7.146  46.222  0.00  0.00    +0.107 C 
ATOM      3  C5  <0> A   1     -14.546   8.107  47.189  0.00  0.00    -0.131 C 
ATOM      4  C6  <0> A   1     -15.780   7.948  47.951  0.00  0.00    -0.046 C 
ATOM      5  C7  <0> A   1     -16.466   6.882  47.370  0.00  0.00    -0.043 C 
ATOM      6  C8  <0> A   1     -17.717   6.495  47.901  0.00  0.00    +0.575 C 
ATOM      7  O1  <0> A   1     -18.316   5.560  47.395  0.00  0.00    -0.515 OA
ATOM      8  N2  <0> A   1     -18.263   7.131  48.952  0.00  0.00    -0.516 N 
ATOM      9  C9  <0> A   1     -17.633   8.197  49.568  0.00  0.00    +0.167 A 
ATOM     10  C10 <0> A   1     -16.381   8.635  49.102  0.00  0.00    -0.054 A 
ATOM     11  C11 <0> A   1     -15.746   9.710  49.721  0.00  0.00    +0.065 A 
ATOM     12  C12 <0> A   1     -16.342  10.329  50.798  0.00  0.00    -0.017 A 
ATOM     13  C13 <0> A   1     -17.569   9.887  51.269  0.00  0.00    +0.045 A 
ATOM     14  C14 <0> A   1     -18.220   8.838  50.653  0.00  0.00    -0.031 A 
ENDROOT
BRANCH   3  15
ATOM     15  C22 <0> A   1     -13.483   9.115  47.422  0.00  0.00    -0.011 A 
ATOM     16  C23 <0> A   1     -13.565  10.369  46.821  0.00  0.00    +0.054 A 
ATOM     17  C24 <0> A   1     -12.574  11.303  47.040  0.00  0.00    -0.012 A 
ATOM     18  C25 <0> A   1     -11.497  10.996  47.856  0.00  0.00    +0.097 A 
ATOM     19  C26 <0> A   1     -11.411   9.750  48.456  0.00  0.00    -0.015 A 
ATOM     20  C27 <0> A   1     -12.401   8.811  48.247  0.00  0.00    +0.052 A 
ATOM     21  F2  <0> A   1     -10.528  11.913  48.067  0.00  0.00    -0.140 F 
ENDBRANCH   3  15
BRANCH   1  23
ATOM     22  C1  <0> A   1     -16.386   5.822  44.058  0.00  0.00    +0.045 C 
ATOM     23  C2  <0> A   1     -16.060   5.295  45.457  0.00  0.00    +0.228 C 
ATOM     24  C3  <0> A   1     -14.886   4.317  45.371  0.00  0.00    +0.046 C 
ENDBRANCH   1  23
BRANCH   8  25
ATOM     25  C15 <0> A   1     -19.563   6.683  49.458  0.00  0.00    +0.359 C 
BRANCH  25  26
ATOM     26  C16 <0> A   1     -19.404   5.348  50.139  0.00  0.00    -0.151 A 
ATOM     27  C17 <0> A   1     -18.410   5.166  51.082  0.00  0.00    +0.058 A 
ATOM     28  C18 <0> A   1     -18.264   3.941  51.705  0.00  0.00    -0.003 A 
ATOM     29  C19 <0> A   1     -19.114   2.896  51.387  0.00  0.00    +0.051 A 
ATOM     30  C20 <0> A   1     -20.108   3.077  50.446  0.00  0.00    -0.025 A 
ATOM     31  C21 <0> A   1     -20.259   4.305  49.824  0.00  0.00    +0.123 A 
ATOM     32  F1  <0> A   1     -21.233   4.483  48.907  0.00  0.00    -0.116 F 
ENDBRANCH  25  26
ENDBRANCH   8  25
BRANCH   2  33
ATOM     33  C28 <0> A   1     -13.480   6.929  45.194  0.00  0.00    +0.121 C 
BRANCH  33  34
ATOM     34  C29 <0> A   1     -13.580   8.009  44.114  0.00  0.00    -0.006 C 
BRANCH  34  35
ATOM     35  C30 <0> A   1     -12.175   8.476  43.729  0.00  0.00    +0.214 C 
BRANCH  35  36
ATOM     36  O5  <0> A   1     -11.223   7.472  44.092  0.00  0.00    -0.542 OA
ATOM     37  H33 <0> A   1     -10.479   7.398  43.479  0.00  0.00    +0.364 HD
ENDBRANCH  35  36
BRANCH  35  38
ATOM     38  C31 <0> A   1     -12.113   8.714  42.219  0.00  0.00    -0.051 C 
BRANCH  38  39
ATOM     39  C32 <0> A   1     -13.066   9.851  41.842  0.00  0.00    +0.231 C 
BRANCH  39  40
ATOM     40  O4  <0> A   1     -12.452  11.106  42.143  0.00  0.00    -0.528 OA
ATOM     41  H32 <0> A   1     -12.954  11.873  41.836  0.00  0.00    +0.349 HD
ENDBRANCH  39  40
BRANCH  39  42
ATOM     42  C33 <0> A   1     -13.378   9.780  40.346  0.00  0.00    -0.103 C 
BRANCH  42  43
ATOM     43  C34 <0> A   1     -13.370  11.172  39.767  0.00  0.00    +0.491 C 
ATOM     44  O2  <0> A   1     -14.394  11.832  39.752  0.00  0.00    -0.681 OA
ATOM     45  O3  <0> A   1     -12.339  11.637  39.313  0.00  0.00    -0.713 OA
ENDBRANCH  42  43
ENDBRANCH  39  42
ENDBRANCH  38  39
ENDBRANCH  35  38
ENDBRANCH  34  35
ENDBRANCH  33  34
ENDBRANCH   2  33
TORSDOF 13
