REMARK VINA RESULT:      -8.1      2.347      5.496
REMARK  Name = CHEMBL254036
REMARK  16 active torsions:
REMARK  status: ('A' for Active; 'I' for Inactive)
REMARK    1  A    between atoms: C1_1  and  C2_2
REMARK    2  A    between atoms: C2_2  and  C3_3
REMARK    3  A    between atoms: C2_2  and  C4_4
REMARK    4  A    between atoms: C5_5  and  C21_26
REMARK    5  A    between atoms: N2_7  and  C15_19
REMARK    6  A    between atoms: C6_8  and  C7_9
REMARK    7  A    between atoms: N3_11  and  C8_12
REMARK    8  A    between atoms: C8_12  and  C9_13
REMARK    9  A    between atoms: C21_26  and  C22_27
REMARK   10  A    between atoms: C22_27  and  C23_28
REMARK   11  A    between atoms: C23_28  and  C24_30
REMARK   12  A    between atoms: C23_28  and  O5_38
REMARK   13  A    between atoms: C24_30  and  C25_31
REMARK   14  A    between atoms: C25_31  and  C26_33
REMARK   15  A    between atoms: C25_31  and  O4_37
REMARK   16  A    between atoms: C26_33  and  C27_34
REMARK                            x       y       z     vdW  Elec       q    Type
REMARK                         _______ _______ _______ _____ _____    ______ ____
ROOT
ATOM      1  C4  <0> A   1     -14.189   7.573  45.781  0.00  0.00    -0.123 C 
ATOM      2  C5  <0> A   1     -14.589   6.524  44.949  0.00  0.00    +0.056 C 
ATOM      3  N1  <0> A   1     -15.733   6.071  45.396  0.00  0.00    -0.273 NA
ATOM      4  N2  <0> A   1     -16.113   6.725  46.434  0.00  0.00    -0.230 N 
ATOM      5  C6  <0> A   1     -15.184   7.683  46.737  0.00  0.00    -0.035 C 
ENDROOT
BRANCH   4   6
ATOM      6  C15 <0> A   1     -17.295   6.491  47.149  0.00  0.00    +0.120 A 
ATOM      7  C16 <0> A   1     -18.471   7.125  46.774  0.00  0.00    +0.057 A 
ATOM      8  C17 <0> A   1     -19.635   6.894  47.480  0.00  0.00    +0.015 A 
ATOM      9  C18 <0> A   1     -19.629   6.029  48.563  0.00  0.00    +0.109 A 
ATOM     10  C19 <0> A   1     -18.456   5.397  48.939  0.00  0.00    +0.012 A 
ATOM     11  C20 <0> A   1     -17.290   5.622  48.232  0.00  0.00    +0.080 A 
ATOM     12  F1  <0> A   1     -20.767   5.805  49.253  0.00  0.00    -0.132 F 
ENDBRANCH   4   6
BRANCH   5  13
ATOM     13  C7  <0> A   1     -15.235   8.640  47.853  0.00  0.00    +0.602 C 
ATOM     14  O1  <0> A   1     -14.952   8.277  48.978  0.00  0.00    -0.514 OA
ATOM     15  N3  <0> A   1     -15.594   9.920  47.628  0.00  0.00    -0.713 N 
ATOM     16  H10 <0> A   1     -15.891  10.193  46.745  0.00  0.00    +0.405 HD
BRANCH  15  17
ATOM     17  C8  <0> A   1     -15.537  10.899  48.715  0.00  0.00    +0.324 C 
BRANCH  17  18
ATOM     18  C9  <0> A   1     -14.181  11.556  48.730  0.00  0.00    -0.112 A 
ATOM     19  C10 <0> A   1     -13.858  12.496  47.769  0.00  0.00    +0.027 A 
ATOM     20  C11 <0> A   1     -12.614  13.099  47.782  0.00  0.00    +0.004 A 
ATOM     21  C12 <0> A   1     -11.693  12.761  48.756  0.00  0.00    +0.014 A 
ATOM     22  C13 <0> A   1     -12.016  11.821  49.716  0.00  0.00    +0.002 A 
ATOM     23  C14 <0> A   1     -13.262  11.222  49.706  0.00  0.00    +0.024 A 
ENDBRANCH  17  18
ENDBRANCH  15  17
ENDBRANCH   5  13
BRANCH   1  25
ATOM     24  C1  <0> A   1     -13.298   9.805  45.169  0.00  0.00    +0.023 C 
ATOM     25  C2  <0> A   1     -12.937   8.404  45.665  0.00  0.00    +0.066 C 
ATOM     26  C3  <0> A   1     -12.263   8.505  47.035  0.00  0.00    +0.030 C 
ENDBRANCH   1  25
BRANCH   2  27
ATOM     27  C21 <0> A   1     -13.836   6.005  43.752  0.00  0.00    +0.141 C 
BRANCH  27  28
ATOM     28  C22 <0> A   1     -13.844   7.062  42.646  0.00  0.00    -0.007 C 
BRANCH  28  29
ATOM     29  C23 <0> A   1     -12.409   7.338  42.194  0.00  0.00    +0.212 C 
BRANCH  29  30
ATOM     30  O5  <0> A   1     -11.704   6.102  42.066  0.00  0.00    -0.542 OA
ATOM     31  H31 <0> A   1     -10.972   6.000  42.689  0.00  0.00    +0.364 HD
ENDBRANCH  29  30
BRANCH  29  32
ATOM     32  C24 <0> A   1     -12.430   8.055  40.842  0.00  0.00    -0.052 C 
BRANCH  32  33
ATOM     33  C25 <0> A   1     -12.959   9.479  41.028  0.00  0.00    +0.230 C 
BRANCH  33  34
ATOM     34  O4  <0> A   1     -11.863  10.395  41.050  0.00  0.00    -0.528 OA
ATOM     35  H30 <0> A   1     -11.110  10.095  41.577  0.00  0.00    +0.350 HD
ENDBRANCH  33  34
BRANCH  33  36
ATOM     36  C26 <0> A   1     -13.896   9.831  39.870  0.00  0.00    -0.103 C 
BRANCH  36  37
ATOM     37  C27 <0> A   1     -13.951  11.327  39.706  0.00  0.00    +0.490 C 
ATOM     38  O2  <0> A   1     -14.608  12.002  40.480  0.00  0.00    -0.681 OA
ATOM     39  O3  <0> A   1     -13.339  11.863  38.798  0.00  0.00    -0.714 OA
ENDBRANCH  36  37
ENDBRANCH  33  36
ENDBRANCH  32  33
ENDBRANCH  29  32
ENDBRANCH  28  29
ENDBRANCH  27  28
ENDBRANCH   2  27
TORSDOF 14
