REMARK VINA RESULT:      -7.8     15.640     20.517
REMARK  Name = CHEMBL122219
REMARK  13 active torsions:
REMARK  status: ('A' for Active; 'I' for Inactive)
REMARK    1  A    between atoms: C1_1  and  C2_2
REMARK    2  A    between atoms: C2_2  and  O1_3
REMARK    3  A    between atoms: O1_3  and  C3_4
REMARK    4  A    between atoms: C3_4  and  C4_6
REMARK    5  A    between atoms: C5_7  and  C24_33
REMARK    6  A    between atoms: C6_8  and  C21_30
REMARK    7  A    between atoms: N1_9  and  C14_18
REMARK    8  A    between atoms: C7_10  and  C8_11
REMARK    9  A    between atoms: C14_18  and  C15_19
REMARK   10  A    between atoms: C15_19  and  C16_20
REMARK   11  A    between atoms: C18_23  and  O5_29
REMARK   12  A    between atoms: C21_30  and  C22_31
REMARK   13  A    between atoms: C21_30  and  C23_32
REMARK                            x       y       z     vdW  Elec       q    Type
REMARK                         _______ _______ _______ _____ _____    ______ ____
ROOT
ATOM      1  C4  <0> A   1     -24.679  -3.769  51.532  0.00  0.00    -0.167 C 
ATOM      2  C5  <0> A   1     -25.687  -2.752  51.880  0.00  0.00    -0.087 C 
ATOM      3  C6  <0> A   1     -26.879  -3.399  51.945  0.00  0.00    +0.068 C 
ATOM      4  N1  <0> A   1     -26.690  -4.719  51.667  0.00  0.00    -0.419 N 
ATOM      5  C7  <0> A   1     -25.376  -4.968  51.411  0.00  0.00    +0.114 C 
ENDROOT
BRANCH   5   6
ATOM      6  C8  <0> A   1     -24.792  -6.278  51.067  0.00  0.00    -0.043 A 
ATOM      7  C9  <0> A   1     -24.284  -7.106  52.073  0.00  0.00    +0.056 A 
ATOM      8  C10 <0> A   1     -23.741  -8.329  51.745  0.00  0.00    -0.006 A 
ATOM      9  C11 <0> A   1     -23.696  -8.740  50.421  0.00  0.00    +0.110 A 
ATOM     10  C12 <0> A   1     -24.198  -7.923  49.420  0.00  0.00    -0.004 A 
ATOM     11  C13 <0> A   1     -24.750  -6.700  49.735  0.00  0.00    +0.073 A 
ATOM     12  F1  <0> A   1     -23.162  -9.939  50.107  0.00  0.00    -0.135 F 
ENDBRANCH   5   6
BRANCH   2  13
ATOM     13  C24 <0> A   1     -25.447  -1.308  52.112  0.00  0.00    -0.017 A 
ATOM     14  C25 <0> A   1     -25.082  -0.856  53.380  0.00  0.00    +0.020 A 
ATOM     15  C26 <0> A   1     -24.859   0.491  53.591  0.00  0.00    +0.003 A 
ATOM     16  C27 <0> A   1     -24.998   1.389  52.549  0.00  0.00    +0.003 A 
ATOM     17  C28 <0> A   1     -25.360   0.946  51.289  0.00  0.00    +0.003 A 
ATOM     18  C29 <0> A   1     -25.579  -0.398  51.064  0.00  0.00    +0.020 A 
ENDBRANCH   2  13
BRANCH   3  19
ATOM     19  C21 <0> A   1     -28.202  -2.757  52.271  0.00  0.00    +0.069 C 
ATOM     20  C22 <0> A   1     -28.037  -1.831  53.478  0.00  0.00    +0.031 C 
ATOM     21  C23 <0> A   1     -28.683  -1.943  51.066  0.00  0.00    +0.033 C 
ENDBRANCH   3  19
BRANCH   1  22
ATOM     22  C3  <0> A   1     -23.240  -3.559  51.346  0.00  0.00    +0.552 C 
ATOM     23  O2  <0> A   1     -22.836  -2.931  50.386  0.00  0.00    -0.499 OA
BRANCH  22  24
ATOM     24  O1  <0> A   1     -22.364  -4.064  52.239  0.00  0.00    -0.343 OA
BRANCH  24  26
ATOM     25  C1  <0> A   1     -21.707  -2.231  53.671  0.00  0.00    +0.061 C 
ATOM     26  C2  <0> A   1     -21.260  -3.233  52.605  0.00  0.00    +0.194 C 
ENDBRANCH  24  26
ENDBRANCH  22  24
ENDBRANCH   1  22
BRANCH   4  27
ATOM     27  C14 <0> A   1     -27.751  -5.729  51.645  0.00  0.00    +0.296 C 
BRANCH  27  28
ATOM     28  C15 <0> A   1     -27.862  -6.381  53.025  0.00  0.00    +0.052 C 
BRANCH  28  29
ATOM     29  C16 <0> A   1     -29.337  -6.539  53.397  0.00  0.00    +0.204 C 
ATOM     30  C17 <0> A   1     -29.775  -5.356  54.265  0.00  0.00    +0.046 C 
ATOM     31  C18 <0> A   1     -31.242  -5.538  54.669  0.00  0.00    +0.187 C 
ATOM     32  C19 <0> A   1     -31.382  -6.850  55.450  0.00  0.00    +0.024 C 
ATOM     33  C20 <0> A   1     -30.754  -7.959  54.634  0.00  0.00    +0.498 C 
ATOM     34  O3  <0> A   1     -31.342  -8.996  54.437  0.00  0.00    -0.449 OA
ATOM     35  O4  <0> A   1     -29.519  -7.755  54.129  0.00  0.00    -0.370 OA
BRANCH  31  36
ATOM     36  O5  <0> A   1     -32.059  -5.586  53.497  0.00  0.00    -0.564 OA
ATOM     37  H20 <0> A   1     -32.172  -6.475  53.132  0.00  0.00    +0.388 HD
ENDBRANCH  31  36
ENDBRANCH  28  29
ENDBRANCH  27  28
ENDBRANCH   4  27
TORSDOF 10
