REMARK VINA RESULT:      -7.5      5.740      9.297
REMARK  Name = CHEMBL298482
REMARK  6 active torsions:
REMARK  status: ('A' for Active; 'I' for Inactive)
REMARK    1  A    between atoms: C3_3  and  C5_6
REMARK    2  A    between atoms: C5_6  and  O2_7
REMARK    3  A    between atoms: O2_7  and  C6_8
REMARK    4  A    between atoms: C11_13  and  C12_14
REMARK    5  A    between atoms: C13_15  and  C14_16
REMARK    6  A    between atoms: C16_18  and  O5_24
REMARK                            x       y       z     vdW  Elec       q    Type
REMARK                         _______ _______ _______ _____ _____    ______ ____
ROOT
ATOM      1  C6  <0> A   1       0.067  10.144  52.073  0.00  0.00    +0.169 A 
ATOM      2  C7  <0> A   1       0.512  10.917  53.134  0.00  0.00    -0.050 A 
ATOM      3  C8  <0> A   1      -0.395  11.616  53.911  0.00  0.00    +0.017 A 
ATOM      4  C9  <0> A   1      -1.751  11.548  53.635  0.00  0.00    +0.014 A 
ATOM      5  C10 <0> A   1      -2.208  10.782  52.581  0.00  0.00    +0.017 A 
ATOM      6  C11 <0> A   1      -1.302  10.078  51.788  0.00  0.00    -0.074 A 
ATOM      7 Cl1  <0> A   1      -3.908  10.700  52.240  0.00  0.00    -0.036 Cl
ATOM      8 Cl2  <0> A   1       0.168  12.581  55.239  0.00  0.00    -0.047 Cl
ENDROOT
BRANCH   6   9
ATOM      9  C12 <0> A   1      -1.783   9.261  50.655  0.00  0.00    +0.055 C 
ATOM     10  C13 <0> A   1      -2.399   8.109  50.883  0.00  0.00    -0.009 C 
BRANCH  10  11
ATOM     11  C14 <0> A   1      -2.892   7.276  49.728  0.00  0.00    +0.243 C 
ATOM     12  C15 <0> A   1      -1.765   6.362  49.239  0.00  0.00    +0.051 C 
ATOM     13  C16 <0> A   1      -2.257   5.547  48.038  0.00  0.00    +0.186 C 
ATOM     14  C17 <0> A   1      -2.679   6.512  46.924  0.00  0.00    +0.023 C 
ATOM     15  C18 <0> A   1      -3.644   7.521  47.508  0.00  0.00    +0.498 C 
ATOM     16  O3  <0> A   1      -4.693   7.767  46.961  0.00  0.00    -0.451 OA
ATOM     17  O4  <0> A   1      -3.299   8.137  48.658  0.00  0.00    -0.367 OA
BRANCH  13  18
ATOM     18  O5  <0> A   1      -3.373   4.745  48.430  0.00  0.00    -0.564 OA
ATOM     19  H16 <0> A   1      -3.388   3.868  48.023  0.00  0.00    +0.387 HD
ENDBRANCH  13  18
ENDBRANCH  10  11
ENDBRANCH   6   9
BRANCH   1  20
ATOM     20  O2  <0> A   1       0.958   9.458  51.311  0.00  0.00    -0.292 OA
BRANCH  20  21
ATOM     21  C5  <0> A   1       1.316   8.148  51.753  0.00  0.00    +0.326 C 
BRANCH  21  24
ATOM     22  C1  <0> A   1       4.940   7.507  51.947  0.00  0.00    -0.065 C 
ATOM     23  C2  <0> A   1       3.660   7.569  52.543  0.00  0.00    -0.016 C 
ATOM     24  C3  <0> A   1       2.801   7.949  51.581  0.00  0.00    -0.032 C 
ATOM     25  O1  <0> A   1       3.489   8.119  50.440  0.00  0.00    -0.170 OA
ATOM     26  C4  <0> A   1       4.787   7.853  50.657  0.00  0.00    +0.187 C 
ENDBRANCH  21  24
ENDBRANCH  20  21
ENDBRANCH   1  20
TORSDOF 6
