REMARK VINA RESULT:      -7.3     13.005     15.540
REMARK  Name = CHEMBL142436
REMARK  13 active torsions:
REMARK  status: ('A' for Active; 'I' for Inactive)
REMARK    1  A    between atoms: C1_1  and  C2_2
REMARK    2  A    between atoms: C4_4  and  C17_24
REMARK    3  A    between atoms: C5_5  and  C10_12
REMARK    4  A    between atoms: C6_6  and  C7_9
REMARK    5  A    between atoms: C7_9  and  C8_10
REMARK    6  A    between atoms: C7_9  and  C9_11
REMARK    7  A    between atoms: C11_13  and  C12_14
REMARK    8  A    between atoms: C12_14  and  C13_15
REMARK    9  A    between atoms: C12_14  and  O5_23
REMARK   10  A    between atoms: C13_15  and  C14_16
REMARK   11  A    between atoms: C14_16  and  C15_18
REMARK   12  A    between atoms: C14_16  and  O4_22
REMARK   13  A    between atoms: C15_18  and  C16_19
REMARK                            x       y       z     vdW  Elec       q    Type
REMARK                         _______ _______ _______ _____ _____    ______ ____
ROOT
ATOM      1  C1  <0> A   1      -0.211  13.083  56.072  0.00  0.00    +0.156 C 
ATOM      2  C2  <0> A   1      -0.643  12.068  55.045  0.00  0.00    +0.101 A 
ATOM      3  C3  <0> A   1       0.314  11.337  54.370  0.00  0.00    +0.042 A 
ATOM      4  C4  <0> A   1      -0.091  10.397  53.421  0.00  0.00    +0.005 A 
ATOM      5  C5  <0> A   1      -1.474  10.236  53.194  0.00  0.00    -0.041 A 
ATOM      6  C6  <0> A   1      -2.368  11.019  53.923  0.00  0.00    +0.125 A 
ATOM      7  N1  <0> A   1      -1.931  11.888  54.812  0.00  0.00    -0.114 N 
ATOM      8  O1  <0> A   1      -2.871  12.660  55.535  0.00  0.00    -0.533 OA
ENDROOT
BRANCH   4   9
ATOM      9  C17 <0> A   1       0.903   9.591  52.674  0.00  0.00    -0.073 A 
ATOM     10  C18 <0> A   1       1.391  10.045  51.449  0.00  0.00    +0.083 A 
ATOM     11  C19 <0> A   1       2.317   9.292  50.756  0.00  0.00    -0.008 A 
ATOM     12  C20 <0> A   1       2.762   8.088  51.278  0.00  0.00    +0.114 A 
ATOM     13  C21 <0> A   1       2.280   7.634  52.494  0.00  0.00    -0.014 A 
ATOM     14  C22 <0> A   1       1.358   8.382  53.196  0.00  0.00    +0.064 A 
ATOM     15  F1  <0> A   1       3.669   7.354  50.596  0.00  0.00    -0.135 F 
ENDBRANCH   4   9
BRANCH   6  16
ATOM     16  C7  <0> A   1      -3.851  10.864  53.697  0.00  0.00    +0.055 C 
ATOM     17  C8  <0> A   1      -4.557  10.696  55.043  0.00  0.00    +0.044 C 
ATOM     18  C9  <0> A   1      -4.390  12.108  52.989  0.00  0.00    +0.044 C 
ENDBRANCH   6  16
BRANCH   5  19
ATOM     19  C10 <0> A   1      -1.965   9.259  52.203  0.00  0.00    +0.002 C 
ATOM     20  C11 <0> A   1      -2.299   9.662  50.983  0.00  0.00    -0.015 C 
BRANCH  20  21
ATOM     21  C12 <0> A   1      -2.801   8.665  49.971  0.00  0.00    +0.253 C 
BRANCH  21  22
ATOM     22  O5  <0> A   1      -2.876   9.285  48.686  0.00  0.00    -0.536 OA
ATOM     23  H21 <0> A   1      -3.293   8.736  48.008  0.00  0.00    +0.367 HD
ENDBRANCH  21  22
BRANCH  21  24
ATOM     24  C13 <0> A   1      -1.841   7.475  49.908  0.00  0.00    -0.040 C 
BRANCH  24  25
ATOM     25  C14 <0> A   1      -2.532   6.297  49.218  0.00  0.00    +0.232 C 
BRANCH  25  26
ATOM     26  O4  <0> A   1      -3.906   6.617  48.993  0.00  0.00    -0.528 OA
ATOM     27  H20 <0> A   1      -4.333   6.068  48.321  0.00  0.00    +0.351 HD
ENDBRANCH  25  26
BRANCH  25  28
ATOM     28  C15 <0> A   1      -1.847   6.017  47.880  0.00  0.00    -0.101 C 
BRANCH  28  29
ATOM     29  C16 <0> A   1      -2.807   6.306  46.754  0.00  0.00    +0.491 C 
ATOM     30  O2  <0> A   1      -3.472   5.404  46.273  0.00  0.00    -0.681 OA
ATOM     31  O3  <0> A   1      -2.918   7.441  46.325  0.00  0.00    -0.712 OA
ENDBRANCH  28  29
ENDBRANCH  25  28
ENDBRANCH  24  25
ENDBRANCH  21  24
ENDBRANCH  20  21
ENDBRANCH   5  19
TORSDOF 10
