REMARK VINA RESULT:      -7.5     12.508     15.282
REMARK  Name = CHEMBL471744
REMARK  17 active torsions:
REMARK  status: ('A' for Active; 'I' for Inactive)
REMARK    1  A    between atoms: C1_1  and  C2_2
REMARK    2  A    between atoms: C2_2  and  C3_3
REMARK    3  A    between atoms: C4_4  and  C23_31
REMARK    4  A    between atoms: C5_5  and  C20_28
REMARK    5  A    between atoms: C6_6  and  C14_21
REMARK    6  A    between atoms: N1_7  and  C7_8
REMARK    7  A    between atoms: C7_8  and  C8_9
REMARK    8  A    between atoms: C8_9  and  C9_10
REMARK    9  A    between atoms: C9_10  and  C10_12
REMARK   10  A    between atoms: C9_10  and  O4_20
REMARK   11  A    between atoms: C10_12  and  C11_13
REMARK   12  A    between atoms: C11_13  and  C12_15
REMARK   13  A    between atoms: C11_13  and  O3_19
REMARK   14  A    between atoms: C12_15  and  C13_16
REMARK   15  A    between atoms: C20_28  and  C21_29
REMARK   16  A    between atoms: C20_28  and  C22_30
REMARK   17  A    between atoms: N2_33  and  C24_34
REMARK                            x       y       z     vdW  Elec       q    Type
REMARK                         _______ _______ _______ _____ _____    ______ ____
ROOT
ATOM      1  C3  <0> A   1     -22.323  -1.465  51.952  0.00  0.00    +0.089 C 
ATOM      2  C4  <0> A   1     -22.634  -0.151  52.230  0.00  0.00    -0.221 C 
ATOM      3  C5  <0> A   1     -21.627   0.337  53.102  0.00  0.00    -0.086 C 
ATOM      4  C6  <0> A   1     -20.757  -0.684  53.317  0.00  0.00    +0.043 C 
ATOM      5  N1  <0> A   1     -21.193  -1.781  52.615  0.00  0.00    -0.413 N 
ENDROOT
BRANCH   4   6
ATOM      6  C14 <0> A   1     -19.548  -0.626  54.167  0.00  0.00    -0.023 A 
ATOM      7  C15 <0> A   1     -18.311  -0.310  53.603  0.00  0.00    +0.065 A 
ATOM      8  C16 <0> A   1     -17.187  -0.257  54.400  0.00  0.00    -0.009 A 
ATOM      9  C17 <0> A   1     -17.283  -0.517  55.758  0.00  0.00    +0.102 A 
ATOM     10  C18 <0> A   1     -18.509  -0.833  56.322  0.00  0.00    -0.006 A 
ATOM     11  C19 <0> A   1     -19.641  -0.882  55.536  0.00  0.00    +0.046 A 
ATOM     12  F1  <0> A   1     -16.179  -0.464  56.534  0.00  0.00    -0.138 F 
ENDBRANCH   4   6
BRANCH   2  13
ATOM     13  C23 <0> A   1     -23.791   0.603  51.719  0.00  0.00    +0.606 C 
ATOM     14  O5  <0> A   1     -23.668   1.319  50.743  0.00  0.00    -0.512 OA
ATOM     15  N2  <0> A   1     -24.986   0.500  52.332  0.00  0.00    -0.671 N 
ATOM     16  H29 <0> A   1     -25.105  -0.128  53.063  0.00  0.00    +0.411 HD
BRANCH  15  17
ATOM     17  C24 <0> A   1     -26.057   1.299  51.917  0.00  0.00    +0.151 A 
ATOM     18  C25 <0> A   1     -26.995   0.797  51.024  0.00  0.00    -0.024 A 
ATOM     19  C26 <0> A   1     -28.051   1.589  50.617  0.00  0.00    +0.024 A 
ATOM     20  C27 <0> A   1     -28.174   2.880  51.096  0.00  0.00    -0.018 A 
ATOM     21  C28 <0> A   1     -27.242   3.383  51.986  0.00  0.00    +0.024 A 
ATOM     22  C29 <0> A   1     -26.188   2.594  52.402  0.00  0.00    +0.011 A 
ENDBRANCH  15  17
ENDBRANCH   2  13
BRANCH   3  23
ATOM     23  C20 <0> A   1     -21.538   1.724  53.682  0.00  0.00    +0.048 C 
ATOM     24  C21 <0> A   1     -21.337   2.737  52.552  0.00  0.00    +0.021 C 
ATOM     25  C22 <0> A   1     -22.832   2.048  54.432  0.00  0.00    +0.024 C 
ENDBRANCH   3  23
BRANCH   1  27
ATOM     26  C1  <0> A   1     -24.229  -3.050  51.880  0.00  0.00    +0.035 C 
ATOM     27  C2  <0> A   1     -23.115  -2.390  51.064  0.00  0.00    +0.099 C 
ENDBRANCH   1  27
BRANCH   5  28
ATOM     28  C7  <0> A   1     -20.531  -3.088  52.589  0.00  0.00    +0.293 C 
BRANCH  28  29
ATOM     29  C8  <0> A   1     -21.060  -3.950  53.736  0.00  0.00    -0.014 C 
BRANCH  29  30
ATOM     30  C9  <0> A   1     -19.885  -4.486  54.556  0.00  0.00    +0.217 C 
BRANCH  30  31
ATOM     31  O4  <0> A   1     -19.935  -5.914  54.585  0.00  0.00    -0.541 OA
ATOM     32  H17 <0> A   1     -20.814  -6.280  54.416  0.00  0.00    +0.366 HD
ENDBRANCH  30  31
BRANCH  30  33
ATOM     33  C10 <0> A   1     -18.569  -4.035  53.918  0.00  0.00    -0.048 C 
BRANCH  33  34
ATOM     34  C11 <0> A   1     -17.411  -4.830  54.522  0.00  0.00    +0.231 C 
BRANCH  34  35
ATOM     35  O3  <0> A   1     -17.096  -5.935  53.673  0.00  0.00    -0.528 OA
ATOM     36  H16 <0> A   1     -17.254  -6.799  54.077  0.00  0.00    +0.350 HD
ENDBRANCH  34  35
BRANCH  34  37
ATOM     37  C12 <0> A   1     -16.184  -3.923  54.653  0.00  0.00    -0.102 C 
BRANCH  37  38
ATOM     38  C13 <0> A   1     -14.987  -4.752  55.041  0.00  0.00    +0.490 C 
ATOM     39  O1  <0> A   1     -14.475  -5.503  54.228  0.00  0.00    -0.681 OA
ATOM     40  O2  <0> A   1     -14.529  -4.670  56.168  0.00  0.00    -0.712 OA
ENDBRANCH  37  38
ENDBRANCH  34  37
ENDBRANCH  33  34
ENDBRANCH  30  33
ENDBRANCH  29  30
ENDBRANCH  28  29
ENDBRANCH   5  28
TORSDOF 14
