REMARK VINA RESULT:      -7.9      0.000      0.000
REMARK  Name = CHEMBL333760
REMARK  13 active torsions:
REMARK  status: ('A' for Active; 'I' for Inactive)
REMARK    1  A    between atoms: C1_1  and  C2_2
REMARK    2  A    between atoms: C2_2  and  C3_3
REMARK    3  A    between atoms: C2_2  and  C4_4
REMARK    4  A    between atoms: C5_6  and  C20_29
REMARK    5  A    between atoms: C6_7  and  C14_22
REMARK    6  A    between atoms: N2_8  and  C7_9
REMARK    7  A    between atoms: C8_10  and  C9_11
REMARK    8  A    between atoms: C9_11  and  C10_13
REMARK    9  A    between atoms: C9_11  and  O4_21
REMARK   10  A    between atoms: C10_13  and  C11_14
REMARK   11  A    between atoms: C11_14  and  C12_16
REMARK   12  A    between atoms: C11_14  and  O3_20
REMARK   13  A    between atoms: C12_16  and  C13_17
REMARK                            x       y       z     vdW  Elec       q    Type
REMARK                         _______ _______ _______ _____ _____    ______ ____
ROOT
ATOM      1  C4  <0> A   1     -15.141   6.748  45.648  0.00  0.00    +0.236 C 
ATOM      2  N1  <0> A   1     -15.525   7.023  46.863  0.00  0.00    -0.465 NA
ATOM      3  C5  <0> A   1     -15.051   8.230  47.225  0.00  0.00    +0.059 C 
ATOM      4  C6  <0> A   1     -14.327   8.731  46.158  0.00  0.00    +0.030 C 
ATOM      5  N2  <0> A   1     -14.390   7.774  45.168  0.00  0.00    -0.400 N 
ENDROOT
BRANCH   4   6
ATOM      6  C14 <0> A   1     -13.624  10.027  46.094  0.00  0.00    -0.032 A 
ATOM      7  C15 <0> A   1     -12.304  10.132  46.539  0.00  0.00    +0.060 A 
ATOM      8  C16 <0> A   1     -11.652  11.345  46.477  0.00  0.00    -0.007 A 
ATOM      9  C17 <0> A   1     -12.305  12.461  45.976  0.00  0.00    +0.108 A 
ATOM     10  C18 <0> A   1     -13.615  12.364  45.535  0.00  0.00    -0.010 A 
ATOM     11  C19 <0> A   1     -14.275  11.154  45.585  0.00  0.00    +0.072 A 
ATOM     12  F1  <0> A   1     -11.662  13.648  45.919  0.00  0.00    -0.136 F 
ENDBRANCH   4   6
BRANCH   3  13
ATOM     13  C20 <0> A   1     -15.268   8.900  48.528  0.00  0.00    -0.009 A 
ATOM     14  C21 <0> A   1     -14.348   8.731  49.563  0.00  0.00    +0.057 A 
ATOM     15  C22 <0> A   1     -14.554   9.357  50.774  0.00  0.00    -0.015 A 
ATOM     16  C23 <0> A   1     -15.672  10.154  50.964  0.00  0.00    +0.097 A 
ATOM     17  C24 <0> A   1     -16.588  10.325  49.939  0.00  0.00    -0.017 A 
ATOM     18  C25 <0> A   1     -16.388   9.708  48.722  0.00  0.00    +0.073 A 
ATOM     19  F2  <0> A   1     -15.869  10.765  52.153  0.00  0.00    -0.141 F 
ENDBRANCH   3  13
BRANCH   1  21
ATOM     20  C1  <0> A   1     -15.463   4.298  45.860  0.00  0.00    +0.048 C 
ATOM     21  C2  <0> A   1     -15.473   5.485  44.894  0.00  0.00    +0.077 C 
ATOM     22  C3  <0> A   1     -16.861   5.618  44.263  0.00  0.00    +0.048 C 
ENDBRANCH   1  21
BRANCH   5  23
ATOM     23  C7  <0> A   1     -13.797   7.848  43.908  0.00  0.00    +0.181 C 
ATOM     24  C8  <0> A   1     -12.590   7.355  43.717  0.00  0.00    -0.029 C 
BRANCH  24  25
ATOM     25  C9  <0> A   1     -11.950   7.434  42.355  0.00  0.00    +0.265 C 
BRANCH  25  26
ATOM     26  O4  <0> A   1     -11.481   6.139  41.973  0.00  0.00    -0.536 OA
ATOM     27  H17 <0> A   1     -11.510   5.975  41.021  0.00  0.00    +0.367 HD
ENDBRANCH  25  26
BRANCH  25  28
ATOM     28  C10 <0> A   1     -12.980   7.925  41.335  0.00  0.00    -0.037 C 
BRANCH  28  29
ATOM     29  C11 <0> A   1     -12.448   9.176  40.635  0.00  0.00    +0.233 C 
BRANCH  29  30
ATOM     30  O3  <0> A   1     -12.405   8.951  39.224  0.00  0.00    -0.527 OA
ATOM     31  H16 <0> A   1     -11.683   9.413  38.775  0.00  0.00    +0.351 HD
ENDBRANCH  29  30
BRANCH  29  32
ATOM     32  C12 <0> A   1     -13.371  10.359  40.935  0.00  0.00    -0.101 C 
BRANCH  32  33
ATOM     33  C13 <0> A   1     -13.466  11.243  39.718  0.00  0.00    +0.491 C 
ATOM     34  O1  <0> A   1     -14.511  11.307  39.091  0.00  0.00    -0.681 OA
ATOM     35  O2  <0> A   1     -12.500  11.895  39.360  0.00  0.00    -0.712 OA
ENDBRANCH  32  33
ENDBRANCH  29  32
ENDBRANCH  28  29
ENDBRANCH  25  28
ENDBRANCH  24  25
ENDBRANCH   5  23
TORSDOF 11
