REMARK VINA RESULT:      -9.1      0.000      0.000
REMARK  Name = CHEMBL228955
REMARK  14 active torsions:
REMARK  status: ('A' for Active; 'I' for Inactive)
REMARK    1  A    between atoms: C1_1  and  C2_2
REMARK    2  A    between atoms: C2_2  and  C3_3
REMARK    3  A    between atoms: C2_2  and  N1_4
REMARK    4  A    between atoms: C4_5  and  C24_28
REMARK    5  A    between atoms: C5_6  and  C18_21
REMARK    6  A    between atoms: N2_11  and  C12_15
REMARK    7  A    between atoms: C24_28  and  C25_29
REMARK    8  A    between atoms: C25_29  and  C26_30
REMARK    9  A    between atoms: C26_30  and  C27_32
REMARK   10  A    between atoms: C26_30  and  O5_40
REMARK   11  A    between atoms: C27_32  and  C28_33
REMARK   12  A    between atoms: C28_33  and  C29_35
REMARK   13  A    between atoms: C28_33  and  O4_39
REMARK   14  A    between atoms: C29_35  and  C30_36
REMARK                            x       y       z     vdW  Elec       q    Type
REMARK                         _______ _______ _______ _____ _____    ______ ____
ROOT
ATOM      1  N1  <0> A   1     -15.179   6.505  45.957  0.00  0.00    -0.392 N 
ATOM      2  C4  <0> A   1     -14.297   7.443  45.569  0.00  0.00    +0.101 C 
ATOM      3  C5  <0> A   1     -14.533   8.580  46.283  0.00  0.00    -0.157 C 
ATOM      4  C6  <0> A   1     -15.618   8.319  47.151  0.00  0.00    -0.071 C 
ATOM      5  C7  <0> A   1     -16.004   7.030  46.940  0.00  0.00    -0.044 C 
ATOM      6  C8  <0> A   1     -17.057   6.268  47.595  0.00  0.00    +0.593 C 
ATOM      7  O1  <0> A   1     -17.185   5.119  47.215  0.00  0.00    -0.552 OA
ATOM      8  N2  <0> A   1     -17.888   6.646  48.539  0.00  0.00    -0.540 N 
ATOM      9  C9  <0> A   1     -18.047   7.944  49.138  0.00  0.00    +0.265 C 
ATOM     10  C10 <0> A   1     -16.761   8.697  49.346  0.00  0.00    +0.026 C 
ATOM     11  C11 <0> A   1     -16.209   9.318  48.095  0.00  0.00    +0.101 C 
ENDROOT
BRANCH   3  12
ATOM     12  C18 <0> A   1     -13.787   9.859  46.170  0.00  0.00    -0.006 A 
ATOM     13  C19 <0> A   1     -12.677  10.093  46.978  0.00  0.00    +0.049 A 
ATOM     14  C20 <0> A   1     -11.986  11.283  46.870  0.00  0.00    -0.015 A 
ATOM     15  C21 <0> A   1     -12.395  12.244  45.960  0.00  0.00    +0.093 A 
ATOM     16  C22 <0> A   1     -13.499  12.015  45.155  0.00  0.00    -0.017 A 
ATOM     17  C23 <0> A   1     -14.193  10.825  45.253  0.00  0.00    +0.050 A 
ATOM     18  F1  <0> A   1     -11.717  13.407  45.857  0.00  0.00    -0.142 F 
ENDBRANCH   3  12
BRANCH   8  19
ATOM     19  C12 <0> A   1     -18.735   5.648  49.030  0.00  0.00    +0.139 A 
ATOM     20  C13 <0> A   1     -18.216   4.602  49.780  0.00  0.00    +0.021 A 
ATOM     21  C14 <0> A   1     -19.056   3.617  50.263  0.00  0.00    +0.015 A 
ATOM     22  C15 <0> A   1     -20.412   3.674  50.001  0.00  0.00    +0.006 A 
ATOM     23  C16 <0> A   1     -20.932   4.715  49.253  0.00  0.00    +0.016 A 
ATOM     24  C17 <0> A   1     -20.098   5.705  48.772  0.00  0.00    +0.007 A 
ENDBRANCH   8  19
BRANCH   1  26
ATOM     25  C1  <0> A   1     -15.702   5.199  43.956  0.00  0.00    +0.038 C 
ATOM     26  C2  <0> A   1     -15.260   5.145  45.420  0.00  0.00    +0.242 C 
ATOM     27  C3  <0> A   1     -13.887   4.477  45.513  0.00  0.00    +0.039 C 
ENDBRANCH   1  26
BRANCH   2  28
ATOM     28  C24 <0> A   1     -13.228   7.268  44.522  0.00  0.00    +0.115 C 
BRANCH  28  29
ATOM     29  C25 <0> A   1     -13.730   7.811  43.183  0.00  0.00    -0.006 C 
BRANCH  29  30
ATOM     30  C26 <0> A   1     -12.608   7.735  42.147  0.00  0.00    +0.212 C 
BRANCH  30  31
ATOM     31  O5  <0> A   1     -12.032   6.427  42.163  0.00  0.00    -0.541 OA
ATOM     32  H34 <0> A   1     -11.473   6.253  42.933  0.00  0.00    +0.362 HD
ENDBRANCH  30  31
BRANCH  30  33
ATOM     33  C27 <0> A   1     -13.175   8.024  40.756  0.00  0.00    -0.051 C 
BRANCH  33  34
ATOM     34  C28 <0> A   1     -12.361   9.137  40.094  0.00  0.00    +0.231 C 
BRANCH  34  35
ATOM     35  O4  <0> A   1     -12.508   9.055  38.675  0.00  0.00    -0.528 OA
ATOM     36  H33 <0> A   1     -13.039   8.305  38.377  0.00  0.00    +0.349 HD
ENDBRANCH  34  35
BRANCH  34  37
ATOM     37  C29 <0> A   1     -12.868  10.497  40.579  0.00  0.00    -0.103 C 
BRANCH  37  38
ATOM     38  C30 <0> A   1     -13.243  11.346  39.392  0.00  0.00    +0.490 C 
ATOM     39  O2  <0> A   1     -12.384  11.973  38.796  0.00  0.00    -0.681 OA
ATOM     40  O3  <0> A   1     -14.405  11.406  39.028  0.00  0.00    -0.713 OA
ENDBRANCH  37  38
ENDBRANCH  34  37
ENDBRANCH  33  34
ENDBRANCH  30  33
ENDBRANCH  29  30
ENDBRANCH  28  29
ENDBRANCH   2  28
TORSDOF 12
