REMARK VINA RESULT:      -8.3     23.488     27.013
REMARK  Name = CHEMBL122937
REMARK  7 active torsions:
REMARK  status: ('A' for Active; 'I' for Inactive)
REMARK    1  A    between atoms: C1_1  and  C2_2
REMARK    2  A    between atoms: C2_2  and  C3_3
REMARK    3  A    between atoms: C2_2  and  C4_4
REMARK    4  A    between atoms: C5_5  and  C19_23
REMARK    5  A    between atoms: C6_6  and  C13_16
REMARK    6  A    between atoms: C20_24  and  C21_25
REMARK    7  A    between atoms: C23_28  and  O4_34
REMARK                            x       y       z     vdW  Elec       q    Type
REMARK                         _______ _______ _______ _____ _____    ______ ____
ROOT
ATOM      1  C4  <0> A   1      -0.382  10.715  52.506  0.00  0.00    +0.152 A 
ATOM      2  C5  <0> A   1      -1.750  10.408  52.426  0.00  0.00    -0.043 A 
ATOM      3  C6  <0> A   1      -2.616  10.868  53.428  0.00  0.00    +0.014 A 
ATOM      4  C7  <0> A   1      -2.056  11.631  54.483  0.00  0.00    -0.024 A 
ATOM      5  C8  <0> A   1      -2.856  12.127  55.522  0.00  0.00    +0.016 A 
ATOM      6  C9  <0> A   1      -2.284  12.857  56.523  0.00  0.00    +0.130 A 
ATOM      7  C10 <0> A   1      -0.913  13.116  56.523  0.00  0.00    +0.025 A 
ATOM      8  C11 <0> A   1      -0.111  12.648  55.528  0.00  0.00    +0.121 A 
ATOM      9  C12 <0> A   1      -0.665  11.892  54.481  0.00  0.00    +0.089 A 
ATOM     10  N1  <0> A   1       0.108  11.417  53.496  0.00  0.00    -0.108 N 
ATOM     11  O1  <0> A   1       1.498  11.689  53.522  0.00  0.00    -0.515 OA
ATOM     12  F1  <0> A   1      -3.054  13.335  57.525  0.00  0.00    -0.126 F 
ENDROOT
BRANCH   3  13
ATOM     13  C13 <0> A   1      -4.062  10.569  53.384  0.00  0.00    -0.072 A 
ATOM     14  C14 <0> A   1      -4.965  11.535  52.934  0.00  0.00    +0.080 A 
ATOM     15  C15 <0> A   1      -6.314  11.250  52.895  0.00  0.00    -0.005 A 
ATOM     16  C16 <0> A   1      -6.774  10.008  53.301  0.00  0.00    +0.115 A 
ATOM     17  C17 <0> A   1      -5.883   9.045  53.748  0.00  0.00    -0.007 A 
ATOM     18  C18 <0> A   1      -4.532   9.317  53.786  0.00  0.00    +0.064 A 
ATOM     19  F2  <0> A   1      -8.097   9.733  53.260  0.00  0.00    -0.134 F 
ENDBRANCH   3  13
BRANCH   1  21
ATOM     20  C1  <0> A   1       1.244  11.407  50.766  0.00  0.00    +0.048 C 
ATOM     21  C2  <0> A   1       0.546  10.217  51.427  0.00  0.00    +0.053 C 
ATOM     22  C3  <0> A   1       1.595   9.290  52.045  0.00  0.00    +0.048 C 
ENDBRANCH   1  21
BRANCH   2  23
ATOM     23  C19 <0> A   1      -2.270   9.609  51.300  0.00  0.00    +0.049 C 
ATOM     24  C20 <0> A   1      -2.017   8.307  51.238  0.00  0.00    +0.013 C 
BRANCH  24  25
ATOM     25  C21 <0> A   1      -2.550   7.491  50.088  0.00  0.00    +0.244 C 
ATOM     26  C22 <0> A   1      -1.547   6.388  49.737  0.00  0.00    +0.052 C 
ATOM     27  C23 <0> A   1      -2.071   5.586  48.541  0.00  0.00    +0.187 C 
ATOM     28  C24 <0> A   1      -2.257   6.535  47.351  0.00  0.00    +0.025 C 
ATOM     29  C25 <0> A   1      -3.092   7.712  47.806  0.00  0.00    +0.498 C 
ATOM     30  O2  <0> A   1      -4.048   8.080  47.165  0.00  0.00    -0.448 OA
ATOM     31  O3  <0> A   1      -2.741   8.337  48.949  0.00  0.00    -0.369 OA
BRANCH  27  32
ATOM     32  O4  <0> A   1      -3.324   4.988  48.880  0.00  0.00    -0.564 OA
ATOM     33  H23 <0> A   1      -3.620   5.177  49.781  0.00  0.00    +0.388 HD
ENDBRANCH  27  32
ENDBRANCH  24  25
ENDBRANCH   2  23
TORSDOF 5
