REMARK VINA RESULT:      -8.4      0.000      0.000
REMARK  Name = CHEMBL331453
REMARK  13 active torsions:
REMARK  status: ('A' for Active; 'I' for Inactive)
REMARK    1  A    between atoms: C1_1  and  C2_2
REMARK    2  A    between atoms: C2_2  and  C3_3
REMARK    3  A    between atoms: C2_2  and  C4_4
REMARK    4  A    between atoms: C5_5  and  C27_34
REMARK    5  A    between atoms: C6_6  and  C21_28
REMARK    6  A    between atoms: C7_7  and  C15_21
REMARK    7  A    between atoms: N1_8  and  C8_9
REMARK    8  A    between atoms: C8_9  and  C9_10
REMARK    9  A    between atoms: C9_10  and  C10_11
REMARK   10  A    between atoms: C12_14  and  O3_20
REMARK   11  A    between atoms: C27_34  and  O5_36
REMARK   12  A    between atoms: O5_36  and  C28_37
REMARK   13  A    between atoms: C28_37  and  C29_38
REMARK                            x       y       z     vdW  Elec       q    Type
REMARK                         _______ _______ _______ _____ _____    ______ ____
ROOT
ATOM      1  C4  <0> A   1     -13.562   9.815  46.885  0.00  0.00    +0.106 C 
ATOM      2  C5  <0> A   1     -12.893   9.829  45.681  0.00  0.00    -0.188 C 
ATOM      3  C6  <0> A   1     -13.266   8.583  44.989  0.00  0.00    -0.060 C 
ATOM      4  C7  <0> A   1     -14.132   7.925  45.840  0.00  0.00    +0.065 C 
ATOM      5  N1  <0> A   1     -14.287   8.684  46.972  0.00  0.00    -0.418 N 
ENDROOT
BRANCH   4   6
ATOM      6  C15 <0> A   1     -14.776   6.622  45.578  0.00  0.00    -0.032 A 
ATOM      7  C16 <0> A   1     -14.111   5.435  45.897  0.00  0.00    +0.050 A 
ATOM      8  C17 <0> A   1     -14.717   4.221  45.650  0.00  0.00    -0.011 A 
ATOM      9  C18 <0> A   1     -15.983   4.177  45.088  0.00  0.00    +0.107 A 
ATOM     10  C19 <0> A   1     -16.647   5.351  44.770  0.00  0.00    -0.008 A 
ATOM     11  C20 <0> A   1     -16.054   6.571  45.016  0.00  0.00    +0.078 A 
ATOM     12  F1  <0> A   1     -16.571   2.985  44.849  0.00  0.00    -0.137 F 
ENDBRANCH   4   6
BRANCH   3  13
ATOM     13  C21 <0> A   1     -12.807   8.131  43.657  0.00  0.00    -0.018 A 
ATOM     14  C22 <0> A   1     -13.729   7.929  42.630  0.00  0.00    +0.023 A 
ATOM     15  C23 <0> A   1     -13.296   7.507  41.390  0.00  0.00    +0.002 A 
ATOM     16  C24 <0> A   1     -11.950   7.284  41.165  0.00  0.00    +0.004 A 
ATOM     17  C25 <0> A   1     -11.030   7.481  42.179  0.00  0.00    +0.004 A 
ATOM     18  C26 <0> A   1     -11.450   7.910  43.421  0.00  0.00    +0.020 A 
ENDBRANCH   3  13
BRANCH   1  20
ATOM     19  C1  <0> A   1     -12.078  10.937  48.523  0.00  0.00    +0.041 C 
ATOM     20  C2  <0> A   1     -13.491  10.890  47.939  0.00  0.00    +0.048 C 
ATOM     21  C3  <0> A   1     -13.828  12.244  47.310  0.00  0.00    +0.043 C 
ENDBRANCH   1  20
BRANCH   2  22
ATOM     22  C27 <0> A   1     -11.988  10.876  45.187  0.00  0.00    +0.554 C 
ATOM     23  O4  <0> A   1     -10.838  10.921  45.579  0.00  0.00    -0.495 OA
BRANCH  22  24
ATOM     24  O5  <0> A   1     -12.431  11.786  44.297  0.00  0.00    -0.338 OA
BRANCH  24  25
ATOM     25  C28 <0> A   1     -13.769  11.629  43.820  0.00  0.00    +0.259 C 
BRANCH  25  26
ATOM     26  C29 <0> A   1     -13.747  11.400  42.330  0.00  0.00    -0.096 A 
ATOM     27  C30 <0> A   1     -14.910  11.522  41.595  0.00  0.00    +0.030 A 
ATOM     28  C31 <0> A   1     -14.889  11.312  40.229  0.00  0.00    +0.003 A 
ATOM     29  C32 <0> A   1     -13.705  10.980  39.598  0.00  0.00    +0.015 A 
ATOM     30  C33 <0> A   1     -12.541  10.859  40.334  0.00  0.00    +0.002 A 
ATOM     31  C34 <0> A   1     -12.561  11.073  41.699  0.00  0.00    +0.028 A 
ENDBRANCH  25  26
ENDBRANCH  24  25
ENDBRANCH  22  24
ENDBRANCH   2  22
BRANCH   5  32
ATOM     32  C8  <0> A   1     -15.127   8.316  48.113  0.00  0.00    +0.300 C 
BRANCH  32  33
ATOM     33  C9  <0> A   1     -16.555   8.812  47.876  0.00  0.00    +0.052 C 
BRANCH  33  34
ATOM     34  C10 <0> A   1     -17.542   7.888  48.592  0.00  0.00    +0.204 C 
ATOM     35  C11 <0> A   1     -16.768   6.858  49.420  0.00  0.00    +0.046 C 
ATOM     36  C12 <0> A   1     -17.759   5.908  50.102  0.00  0.00    +0.187 C 
ATOM     37  C13 <0> A   1     -18.595   5.206  49.025  0.00  0.00    +0.025 C 
ATOM     38  C14 <0> A   1     -19.179   6.263  48.113  0.00  0.00    +0.497 C 
ATOM     39  O1  <0> A   1     -20.353   6.260  47.830  0.00  0.00    -0.448 OA
ATOM     40  O2  <0> A   1     -18.350   7.209  47.624  0.00  0.00    -0.370 OA
BRANCH  36  41
ATOM     41  O3  <0> A   1     -18.617   6.654  50.968  0.00  0.00    -0.564 OA
ATOM     42  H18 <0> A   1     -18.173   7.007  51.751  0.00  0.00    +0.388 HD
ENDBRANCH  36  41
ENDBRANCH  33  34
ENDBRANCH  32  33
ENDBRANCH   5  32
TORSDOF 11
