REMARK VINA RESULT:      -7.9      9.913     14.124
REMARK  Name = CHEMBL253153
REMARK  15 active torsions:
REMARK  status: ('A' for Active; 'I' for Inactive)
REMARK    1  A    between atoms: C1_1  and  C2_2
REMARK    2  A    between atoms: C2_2  and  C3_3
REMARK    3  A    between atoms: C2_2  and  C4_4
REMARK    4  A    between atoms: C5_5  and  C24_29
REMARK    5  A    between atoms: N1_6  and  C18_22
REMARK    6  A    between atoms: C6_8  and  C7_9
REMARK    7  A    between atoms: C11_15  and  C12_16
REMARK    8  A    between atoms: C24_29  and  C25_30
REMARK    9  A    between atoms: C25_30  and  C26_31
REMARK   10  A    between atoms: C26_31  and  C27_33
REMARK   11  A    between atoms: C26_31  and  O5_41
REMARK   12  A    between atoms: C27_33  and  C28_34
REMARK   13  A    between atoms: C28_34  and  C29_36
REMARK   14  A    between atoms: C28_34  and  O4_40
REMARK   15  A    between atoms: C29_36  and  C30_37
REMARK                            x       y       z     vdW  Elec       q    Type
REMARK                         _______ _______ _______ _____ _____    ______ ____
ROOT
ATOM      1  C4  <0> A   1     -22.688   0.164  52.445  0.00  0.00    -0.124 C 
ATOM      2  C5  <0> A   1     -21.634   0.978  52.695  0.00  0.00    +0.027 C 
ATOM      3  N1  <0> A   1     -21.624   1.928  51.725  0.00  0.00    -0.234 N 
ATOM      4  N2  <0> A   1     -22.601   1.739  50.912  0.00  0.00    -0.257 NA
ATOM      5  C6  <0> A   1     -23.295   0.679  51.276  0.00  0.00    -0.001 C 
ENDROOT
BRANCH   5   6
ATOM      6  C7  <0> A   1     -24.487   0.133  50.594  0.00  0.00    +0.618 C 
ATOM      7  O1  <0> A   1     -24.365  -0.769  49.788  0.00  0.00    -0.502 OA
ATOM      8  N3  <0> A   1     -25.707   0.635  50.865  0.00  0.00    -0.603 N 
ATOM      9  C8  <0> A   1     -25.996   1.729  51.811  0.00  0.00    +0.263 C 
ATOM     10  C9  <0> A   1     -27.337   2.331  51.323  0.00  0.00    +0.028 C 
ATOM     11  C10 <0> A   1     -28.096   1.063  50.853  0.00  0.00    +0.043 C 
ATOM     12  C11 <0> A   1     -26.971   0.188  50.262  0.00  0.00    +0.266 C 
BRANCH  12  13
ATOM     13  C12 <0> A   1     -27.217  -1.259  50.602  0.00  0.00    -0.084 A 
ATOM     14  C13 <0> A   1     -27.182  -1.674  51.920  0.00  0.00    +0.013 A 
ATOM     15  C14 <0> A   1     -27.409  -3.002  52.233  0.00  0.00    -0.001 A 
ATOM     16  C15 <0> A   1     -27.671  -3.914  51.227  0.00  0.00    -0.000 A 
ATOM     17  C16 <0> A   1     -27.707  -3.498  49.909  0.00  0.00    +0.002 A 
ATOM     18  C17 <0> A   1     -27.485  -2.170  49.598  0.00  0.00    +0.016 A 
ENDBRANCH  12  13
ENDBRANCH   5   6
BRANCH   3  19
ATOM     19  C18 <0> A   1     -20.686   2.965  51.626  0.00  0.00    +0.119 A 
ATOM     20  C19 <0> A   1     -19.569   2.817  50.815  0.00  0.00    +0.068 A 
ATOM     21  C20 <0> A   1     -18.647   3.840  50.719  0.00  0.00    +0.021 A 
ATOM     22  C21 <0> A   1     -18.835   5.013  51.430  0.00  0.00    +0.112 A 
ATOM     23  C22 <0> A   1     -19.949   5.163  52.239  0.00  0.00    +0.008 A 
ATOM     24  C23 <0> A   1     -20.878   4.144  52.333  0.00  0.00    +0.070 A 
ATOM     25  F1  <0> A   1     -17.932   6.013  51.334  0.00  0.00    -0.131 F 
ENDBRANCH   3  19
BRANCH   1  27
ATOM     26  C1  <0> A   1     -24.411  -0.719  53.993  0.00  0.00    +0.028 C 
ATOM     27  C2  <0> A   1     -23.117  -1.040  53.242  0.00  0.00    +0.061 C 
ATOM     28  C3  <0> A   1     -23.357  -2.219  52.297  0.00  0.00    +0.025 C 
ENDBRANCH   1  27
BRANCH   2  29
ATOM     29  C24 <0> A   1     -20.657   0.853  53.835  0.00  0.00    +0.127 C 
BRANCH  29  30
ATOM     30  C25 <0> A   1     -19.481  -0.027  53.404  0.00  0.00    -0.009 C 
BRANCH  30  31
ATOM     31  C26 <0> A   1     -19.379  -1.234  54.339  0.00  0.00    +0.214 C 
BRANCH  31  32
ATOM     32  O5  <0> A   1     -20.421  -1.172  55.314  0.00  0.00    -0.540 OA
ATOM     33  H35 <0> A   1     -20.323  -1.808  56.036  0.00  0.00    +0.363 HD
ENDBRANCH  31  32
BRANCH  31  34
ATOM     34  C27 <0> A   1     -19.519  -2.522  53.525  0.00  0.00    -0.052 C 
BRANCH  34  35
ATOM     35  C28 <0> A   1     -20.173  -3.603  54.389  0.00  0.00    +0.231 C 
BRANCH  35  36
ATOM     36  O4  <0> A   1     -20.968  -4.457  53.564  0.00  0.00    -0.528 OA
ATOM     37  H34 <0> A   1     -21.845  -4.648  53.926  0.00  0.00    +0.349 HD
ENDBRANCH  35  36
BRANCH  35  38
ATOM     38  C29 <0> A   1     -19.087  -4.428  55.082  0.00  0.00    -0.103 C 
BRANCH  38  39
ATOM     39  C30 <0> A   1     -18.883  -5.720  54.333  0.00  0.00    +0.491 C 
ATOM     40  O2  <0> A   1     -18.099  -5.766  53.401  0.00  0.00    -0.681 OA
ATOM     41  O3  <0> A   1     -19.502  -6.718  54.661  0.00  0.00    -0.713 OA
ENDBRANCH  38  39
ENDBRANCH  35  38
ENDBRANCH  34  35
ENDBRANCH  31  34
ENDBRANCH  30  31
ENDBRANCH  29  30
ENDBRANCH   2  29
TORSDOF 13
