MODEL 1
REMARK VINA RESULT:      -7.8      0.000      0.000
REMARK  Name = CHEMBL389442
REMARK  15 active torsions:
REMARK  status: ('A' for Active; 'I' for Inactive)
REMARK    1  A    between atoms: C1_1  and  C2_2
REMARK    2  A    between atoms: C2_2  and  C3_3
REMARK    3  A    between atoms: C2_2  and  N1_4
REMARK    4  A    between atoms: C4_5  and  C28_33
REMARK    5  A    between atoms: C5_6  and  C22_26
REMARK    6  A    between atoms: N2_11  and  C15_18
REMARK    7  A    between atoms: C15_18  and  C16_19
REMARK    8  A    between atoms: C28_33  and  C29_34
REMARK    9  A    between atoms: C29_34  and  C30_35
REMARK   10  A    between atoms: C30_35  and  C31_37
REMARK   11  A    between atoms: C30_35  and  O5_45
REMARK   12  A    between atoms: C31_37  and  C32_38
REMARK   13  A    between atoms: C32_38  and  C33_40
REMARK   14  A    between atoms: C32_38  and  O4_44
REMARK   15  A    between atoms: C33_40  and  C34_41
REMARK                            x       y       z     vdW  Elec       q    Type
REMARK                         _______ _______ _______ _____ _____    ______ ____
ROOT
ATOM      1  N1  <0> A   1     -15.386   6.525  45.515  0.00  0.00    -0.391 N 
ATOM      2  C4  <0> A   1     -16.013   6.831  46.678  0.00  0.00    +0.107 C 
ATOM      3  C5  <0> A   1     -15.428   7.932  47.233  0.00  0.00    -0.131 C 
ATOM      4  C6  <0> A   1     -14.355   8.331  46.329  0.00  0.00    -0.046 C 
ATOM      5  C7  <0> A   1     -14.368   7.416  45.276  0.00  0.00    -0.043 C 
ATOM      6  C8  <0> A   1     -13.421   7.550  44.234  0.00  0.00    +0.575 C 
ATOM      7  O1  <0> A   1     -13.435   6.753  43.311  0.00  0.00    -0.515 OA
ATOM      8  N2  <0> A   1     -12.507   8.536  44.236  0.00  0.00    -0.516 N 
ATOM      9  C9  <0> A   1     -12.442   9.469  45.255  0.00  0.00    +0.167 A 
ATOM     10  C10 <0> A   1     -13.355   9.407  46.321  0.00  0.00    -0.054 A 
ATOM     11  C11 <0> A   1     -13.290  10.347  47.349  0.00  0.00    +0.065 A 
ATOM     12  C12 <0> A   1     -12.338  11.342  47.305  0.00  0.00    -0.017 A 
ATOM     13  C13 <0> A   1     -11.447  11.414  46.245  0.00  0.00    +0.045 A 
ATOM     14  C14 <0> A   1     -11.486  10.478  45.232  0.00  0.00    -0.031 A 
ENDROOT
BRANCH   3  15
ATOM     15  C22 <0> A   1     -15.811   8.594  48.503  0.00  0.00    -0.011 A 
ATOM     16  C23 <0> A   1     -16.739   9.632  48.499  0.00  0.00    +0.054 A 
ATOM     17  C24 <0> A   1     -17.091  10.245  49.684  0.00  0.00    -0.012 A 
ATOM     18  C25 <0> A   1     -16.523   9.830  50.877  0.00  0.00    +0.097 A 
ATOM     19  C26 <0> A   1     -15.599   8.798  50.887  0.00  0.00    -0.015 A 
ATOM     20  C27 <0> A   1     -15.244   8.175  49.707  0.00  0.00    +0.052 A 
ATOM     21  F2  <0> A   1     -16.870  10.433  52.035  0.00  0.00    -0.140 F 
ENDBRANCH   3  15
BRANCH   1  23
ATOM     22  C1  <0> A   1     -15.755   4.108  45.459  0.00  0.00    +0.045 C 
ATOM     23  C2  <0> A   1     -15.741   5.402  44.643  0.00  0.00    +0.228 C 
ATOM     24  C3  <0> A   1     -17.129   5.641  44.044  0.00  0.00    +0.046 C 
ENDBRANCH   1  23
BRANCH   8  25
ATOM     25  C15 <0> A   1     -11.552   8.622  43.128  0.00  0.00    +0.359 C 
BRANCH  25  26
ATOM     26  C16 <0> A   1     -12.225   9.248  41.933  0.00  0.00    -0.151 A 
ATOM     27  C17 <0> A   1     -12.703  10.542  42.007  0.00  0.00    +0.058 A 
ATOM     28  C18 <0> A   1     -13.320  11.115  40.911  0.00  0.00    -0.003 A 
ATOM     29  C19 <0> A   1     -13.458  10.394  39.738  0.00  0.00    +0.051 A 
ATOM     30  C20 <0> A   1     -12.980   9.101  39.662  0.00  0.00    -0.025 A 
ATOM     31  C21 <0> A   1     -12.357   8.527  40.759  0.00  0.00    +0.123 A 
ATOM     32  F1  <0> A   1     -11.885   7.264  40.683  0.00  0.00    -0.116 F 
ENDBRANCH  25  26
ENDBRANCH   8  25
BRANCH   2  33
ATOM     33  C28 <0> A   1     -17.174   6.072  47.268  0.00  0.00    +0.121 C 
BRANCH  33  34
ATOM     34  C29 <0> A   1     -18.485   6.747  46.857  0.00  0.00    -0.006 C 
BRANCH  34  35
ATOM     35  C30 <0> A   1     -19.413   6.837  48.070  0.00  0.00    +0.214 C 
BRANCH  35  36
ATOM     36  O5  <0> A   1     -20.544   5.986  47.869  0.00  0.00    -0.542 OA
ATOM     37  H33 <0> A   1     -20.337   5.161  47.407  0.00  0.00    +0.364 HD
ENDBRANCH  35  36
BRANCH  35  38
ATOM     38  C31 <0> A   1     -18.658   6.393  49.324  0.00  0.00    -0.051 C 
BRANCH  38  39
ATOM     39  C32 <0> A   1     -19.167   7.183  50.533  0.00  0.00    +0.231 C 
BRANCH  39  40
ATOM     40  O4  <0> A   1     -20.120   8.156  50.098  0.00  0.00    -0.528 OA
ATOM     41  H32 <0> A   1     -21.004   7.797  49.939  0.00  0.00    +0.349 HD
ENDBRANCH  39  40
BRANCH  39  42
ATOM     42  C33 <0> A   1     -19.831   6.226  51.524  0.00  0.00    -0.103 C 
BRANCH  42  43
ATOM     43  C34 <0> A   1     -21.315   6.182  51.262  0.00  0.00    +0.491 C 
ATOM     44  O2  <0> A   1     -22.069   6.892  51.905  0.00  0.00    -0.681 OA
ATOM     45  O3  <0> A   1     -21.761   5.438  50.406  0.00  0.00    -0.713 OA
ENDBRANCH  42  43
ENDBRANCH  39  42
ENDBRANCH  38  39
ENDBRANCH  35  38
ENDBRANCH  34  35
ENDBRANCH  33  34
ENDBRANCH   2  33
TORSDOF 13
ENDMDL
MODEL 2
REMARK VINA RESULT:      -7.8      2.539      8.834
REMARK  Name = CHEMBL389442
REMARK  15 active torsions:
REMARK  status: ('A' for Active; 'I' for Inactive)
REMARK    1  A    between atoms: C1_1  and  C2_2
REMARK    2  A    between atoms: C2_2  and  C3_3
REMARK    3  A    between atoms: C2_2  and  N1_4
REMARK    4  A    between atoms: C4_5  and  C28_33
REMARK    5  A    between atoms: C5_6  and  C22_26
REMARK    6  A    between atoms: N2_11  and  C15_18
REMARK    7  A    between atoms: C15_18  and  C16_19
REMARK    8  A    between atoms: C28_33  and  C29_34
REMARK    9  A    between atoms: C29_34  and  C30_35
REMARK   10  A    between atoms: C30_35  and  C31_37
REMARK   11  A    between atoms: C30_35  and  O5_45
REMARK   12  A    between atoms: C31_37  and  C32_38
REMARK   13  A    between atoms: C32_38  and  C33_40
REMARK   14  A    between atoms: C32_38  and  O4_44
REMARK   15  A    between atoms: C33_40  and  C34_41
REMARK                            x       y       z     vdW  Elec       q    Type
REMARK                         _______ _______ _______ _____ _____    ______ ____
ROOT
ATOM      1  N1  <0> A   1     -15.711   6.296  45.693  0.00  0.00    -0.391 N 
ATOM      2  C4  <0> A   1     -14.509   6.780  45.297  0.00  0.00    +0.107 C 
ATOM      3  C5  <0> A   1     -14.159   7.832  46.091  0.00  0.00    -0.131 C 
ATOM      4  C6  <0> A   1     -15.241   8.002  47.054  0.00  0.00    -0.046 C 
ATOM      5  C7  <0> A   1     -16.188   7.021  46.758  0.00  0.00    -0.043 C 
ATOM      6  C8  <0> A   1     -17.367   6.944  47.535  0.00  0.00    +0.575 C 
ATOM      7  O1  <0> A   1     -18.193   6.084  47.279  0.00  0.00    -0.515 OA
ATOM      8  N2  <0> A   1     -17.599   7.795  48.548  0.00  0.00    -0.516 N 
ATOM      9  C9  <0> A   1     -16.701   8.791  48.887  0.00  0.00    +0.167 A 
ATOM     10  C10 <0> A   1     -15.501   8.926  48.166  0.00  0.00    -0.054 A 
ATOM     11  C11 <0> A   1     -14.595   9.930  48.505  0.00  0.00    +0.065 A 
ATOM     12  C12 <0> A   1     -14.874  10.776  49.556  0.00  0.00    -0.017 A 
ATOM     13  C13 <0> A   1     -16.050  10.634  50.277  0.00  0.00    +0.045 A 
ATOM     14  C14 <0> A   1     -16.966   9.658  49.940  0.00  0.00    -0.031 A 
ENDROOT
BRANCH   3  15
ATOM     15  C22 <0> A   1     -12.921   8.643  45.995  0.00  0.00    -0.011 A 
ATOM     16  C23 <0> A   1     -11.725   8.158  46.518  0.00  0.00    +0.054 A 
ATOM     17  C24 <0> A   1     -10.576   8.915  46.426  0.00  0.00    -0.012 A 
ATOM     18  C25 <0> A   1     -10.610  10.158  45.816  0.00  0.00    +0.097 A 
ATOM     19  C26 <0> A   1     -11.797  10.646  45.294  0.00  0.00    -0.015 A 
ATOM     20  C27 <0> A   1     -12.950   9.892  45.376  0.00  0.00    +0.052 A 
ATOM     21  F2  <0> A   1      -9.482  10.898  45.729  0.00  0.00    -0.140 F 
ENDBRANCH   3  15
BRANCH   1  23
ATOM     22  C1  <0> A   1     -16.911   5.576  43.686  0.00  0.00    +0.045 C 
ATOM     23  C2  <0> A   1     -16.405   5.164  45.071  0.00  0.00    +0.228 C 
ATOM     24  C3  <0> A   1     -15.437   3.988  44.931  0.00  0.00    +0.046 C 
ENDBRANCH   1  23
BRANCH   8  25
ATOM     25  C15 <0> A   1     -18.839   7.665  49.317  0.00  0.00    +0.359 C 
BRANCH  25  26
ATOM     26  C16 <0> A   1     -18.753   6.454  50.210  0.00  0.00    -0.151 A 
ATOM     27  C17 <0> A   1     -17.722   6.341  51.123  0.00  0.00    +0.058 A 
ATOM     28  C18 <0> A   1     -17.642   5.230  51.942  0.00  0.00    -0.003 A 
ATOM     29  C19 <0> A   1     -18.594   4.231  51.849  0.00  0.00    +0.051 A 
ATOM     30  C20 <0> A   1     -19.626   4.343  50.938  0.00  0.00    -0.025 A 
ATOM     31  C21 <0> A   1     -19.710   5.458  50.120  0.00  0.00    +0.123 A 
ATOM     32  F1  <0> A   1     -20.721   5.570  49.232  0.00  0.00    -0.116 F 
ENDBRANCH  25  26
ENDBRANCH   8  25
BRANCH   2  33
ATOM     33  C28 <0> A   1     -13.685   6.240  44.155  0.00  0.00    +0.121 C 
BRANCH  33  34
ATOM     34  C29 <0> A   1     -13.713   7.234  42.992  0.00  0.00    -0.006 C 
BRANCH  34  35
ATOM     35  C30 <0> A   1     -12.310   7.358  42.395  0.00  0.00    +0.214 C 
BRANCH  35  36
ATOM     36  O5  <0> A   1     -11.732   6.058  42.259  0.00  0.00    -0.542 OA
ATOM     37  H33 <0> A   1     -12.381   5.342  42.227  0.00  0.00    +0.364 HD
ENDBRANCH  35  36
BRANCH  35  38
ATOM     38  C31 <0> A   1     -12.398   8.022  41.019  0.00  0.00    -0.051 C 
BRANCH  38  39
ATOM     39  C32 <0> A   1     -12.978   9.431  41.168  0.00  0.00    +0.231 C 
BRANCH  39  40
ATOM     40  O4  <0> A   1     -11.910  10.373  41.291  0.00  0.00    -0.528 OA
ATOM     41  H32 <0> A   1     -11.738  10.656  42.200  0.00  0.00    +0.349 HD
ENDBRANCH  39  40
BRANCH  39  42
ATOM     42  C33 <0> A   1     -13.818   9.769  39.936  0.00  0.00    -0.103 C 
BRANCH  42  43
ATOM     43  C34 <0> A   1     -13.770  11.255  39.689  0.00  0.00    +0.491 C 
ATOM     44  O2  <0> A   1     -13.018  11.709  38.843  0.00  0.00    -0.681 OA
ATOM     45  O3  <0> A   1     -14.483  12.004  40.334  0.00  0.00    -0.713 OA
ENDBRANCH  42  43
ENDBRANCH  39  42
ENDBRANCH  38  39
ENDBRANCH  35  38
ENDBRANCH  34  35
ENDBRANCH  33  34
ENDBRANCH   2  33
TORSDOF 13
ENDMDL
MODEL 3
REMARK VINA RESULT:      -7.8      1.155      1.510
REMARK  Name = CHEMBL389442
REMARK  15 active torsions:
REMARK  status: ('A' for Active; 'I' for Inactive)
REMARK    1  A    between atoms: C1_1  and  C2_2
REMARK    2  A    between atoms: C2_2  and  C3_3
REMARK    3  A    between atoms: C2_2  and  N1_4
REMARK    4  A    between atoms: C4_5  and  C28_33
REMARK    5  A    between atoms: C5_6  and  C22_26
REMARK    6  A    between atoms: N2_11  and  C15_18
REMARK    7  A    between atoms: C15_18  and  C16_19
REMARK    8  A    between atoms: C28_33  and  C29_34
REMARK    9  A    between atoms: C29_34  and  C30_35
REMARK   10  A    between atoms: C30_35  and  C31_37
REMARK   11  A    between atoms: C30_35  and  O5_45
REMARK   12  A    between atoms: C31_37  and  C32_38
REMARK   13  A    between atoms: C32_38  and  C33_40
REMARK   14  A    between atoms: C32_38  and  O4_44
REMARK   15  A    between atoms: C33_40  and  C34_41
REMARK                            x       y       z     vdW  Elec       q    Type
REMARK                         _______ _______ _______ _____ _____    ______ ____
ROOT
ATOM      1  N1  <0> A   1     -15.374   6.685  45.771  0.00  0.00    -0.391 N 
ATOM      2  C4  <0> A   1     -15.973   6.867  46.974  0.00  0.00    +0.107 C 
ATOM      3  C5  <0> A   1     -15.510   8.016  47.543  0.00  0.00    -0.131 C 
ATOM      4  C6  <0> A   1     -14.547   8.584  46.606  0.00  0.00    -0.046 C 
ATOM      5  C7  <0> A   1     -14.495   7.711  45.519  0.00  0.00    -0.043 C 
ATOM      6  C8  <0> A   1     -13.630   8.004  44.439  0.00  0.00    +0.575 C 
ATOM      7  O1  <0> A   1     -13.588   7.243  43.488  0.00  0.00    -0.515 OA
ATOM      8  N2  <0> A   1     -12.855   9.101  44.437  0.00  0.00    -0.516 N 
ATOM      9  C9  <0> A   1     -12.858  10.001  45.487  0.00  0.00    +0.167 A 
ATOM     10  C10 <0> A   1     -13.699   9.783  46.593  0.00  0.00    -0.054 A 
ATOM     11  C11 <0> A   1     -13.703  10.689  47.652  0.00  0.00    +0.065 A 
ATOM     12  C12 <0> A   1     -12.893  11.803  47.603  0.00  0.00    -0.017 A 
ATOM     13  C13 <0> A   1     -12.076  12.027  46.505  0.00  0.00    +0.045 A 
ATOM     14  C14 <0> A   1     -12.046  11.128  45.459  0.00  0.00    -0.031 A 
ENDROOT
BRANCH   3  15
ATOM     15  C22 <0> A   1     -15.908   8.580  48.856  0.00  0.00    -0.011 A 
ATOM     16  C23 <0> A   1     -15.285   8.142  50.022  0.00  0.00    +0.054 A 
ATOM     17  C24 <0> A   1     -15.659   8.669  51.241  0.00  0.00    -0.012 A 
ATOM     18  C25 <0> A   1     -16.653   9.631  51.307  0.00  0.00    +0.097 A 
ATOM     19  C26 <0> A   1     -17.276  10.070  50.150  0.00  0.00    -0.015 A 
ATOM     20  C27 <0> A   1     -16.905   9.552  48.925  0.00  0.00    +0.052 A 
ATOM     21  F2  <0> A   1     -17.017  10.144  52.503  0.00  0.00    -0.140 F 
ENDBRANCH   3  15
BRANCH   1  23
ATOM     22  C1  <0> A   1     -15.535   4.247  45.663  0.00  0.00    +0.045 C 
ATOM     23  C2  <0> A   1     -15.625   5.555  44.873  0.00  0.00    +0.228 C 
ATOM     24  C3  <0> A   1     -17.022   5.687  44.264  0.00  0.00    +0.046 C 
ENDBRANCH   1  23
BRANCH   8  25
ATOM     25  C15 <0> A   1     -11.979   9.351  43.289  0.00  0.00    +0.359 C 
BRANCH  25  26
ATOM     26  C16 <0> A   1     -12.794   9.893  42.143  0.00  0.00    -0.151 A 
ATOM     27  C17 <0> A   1     -13.514  11.062  42.299  0.00  0.00    +0.058 A 
ATOM     28  C18 <0> A   1     -14.262  11.559  41.249  0.00  0.00    -0.003 A 
ATOM     29  C19 <0> A   1     -14.290  10.887  40.039  0.00  0.00    +0.051 A 
ATOM     30  C20 <0> A   1     -13.570   9.719  39.881  0.00  0.00    -0.025 A 
ATOM     31  C21 <0> A   1     -12.816   9.223  40.932  0.00  0.00    +0.123 A 
ATOM     32  F1  <0> A   1     -12.108   8.083  40.777  0.00  0.00    -0.116 F 
ENDBRANCH  25  26
ENDBRANCH   8  25
BRANCH   2  33
ATOM     33  C28 <0> A   1     -16.993   5.941  47.588  0.00  0.00    +0.121 C 
BRANCH  33  34
ATOM     34  C29 <0> A   1     -18.372   6.603  47.545  0.00  0.00    -0.006 C 
BRANCH  34  35
ATOM     35  C30 <0> A   1     -19.250   6.023  48.656  0.00  0.00    +0.214 C 
BRANCH  35  36
ATOM     36  O5  <0> A   1     -20.512   5.632  48.111  0.00  0.00    -0.542 OA
ATOM     37  H33 <0> A   1     -20.670   5.957  47.214  0.00  0.00    +0.364 HD
ENDBRANCH  35  36
BRANCH  35  38
ATOM     38  C31 <0> A   1     -18.559   4.802  49.267  0.00  0.00    -0.051 C 
BRANCH  38  39
ATOM     39  C32 <0> A   1     -19.201   4.475  50.617  0.00  0.00    +0.231 C 
BRANCH  39  40
ATOM     40  O4  <0> A   1     -20.236   5.421  50.893  0.00  0.00    -0.528 OA
ATOM     41  H32 <0> A   1     -19.945   6.183  51.413  0.00  0.00    +0.349 HD
ENDBRANCH  39  40
BRANCH  39  42
ATOM     42  C33 <0> A   1     -19.796   3.066  50.571  0.00  0.00    -0.103 C 
BRANCH  42  43
ATOM     43  C34 <0> A   1     -21.299   3.158  50.516  0.00  0.00    +0.491 C 
ATOM     44  O2  <0> A   1     -21.962   2.925  51.511  0.00  0.00    -0.681 OA
ATOM     45  O3  <0> A   1     -21.853   3.467  49.474  0.00  0.00    -0.713 OA
ENDBRANCH  42  43
ENDBRANCH  39  42
ENDBRANCH  38  39
ENDBRANCH  35  38
ENDBRANCH  34  35
ENDBRANCH  33  34
ENDBRANCH   2  33
TORSDOF 13
ENDMDL
MODEL 4
REMARK VINA RESULT:      -7.8      2.753      8.767
REMARK  Name = CHEMBL389442
REMARK  15 active torsions:
REMARK  status: ('A' for Active; 'I' for Inactive)
REMARK    1  A    between atoms: C1_1  and  C2_2
REMARK    2  A    between atoms: C2_2  and  C3_3
REMARK    3  A    between atoms: C2_2  and  N1_4
REMARK    4  A    between atoms: C4_5  and  C28_33
REMARK    5  A    between atoms: C5_6  and  C22_26
REMARK    6  A    between atoms: N2_11  and  C15_18
REMARK    7  A    between atoms: C15_18  and  C16_19
REMARK    8  A    between atoms: C28_33  and  C29_34
REMARK    9  A    between atoms: C29_34  and  C30_35
REMARK   10  A    between atoms: C30_35  and  C31_37
REMARK   11  A    between atoms: C30_35  and  O5_45
REMARK   12  A    between atoms: C31_37  and  C32_38
REMARK   13  A    between atoms: C32_38  and  C33_40
REMARK   14  A    between atoms: C32_38  and  O4_44
REMARK   15  A    between atoms: C33_40  and  C34_41
REMARK                            x       y       z     vdW  Elec       q    Type
REMARK                         _______ _______ _______ _____ _____    ______ ____
ROOT
ATOM      1  N1  <0> A   1     -15.193   6.469  45.997  0.00  0.00    -0.391 N 
ATOM      2  C4  <0> A   1     -14.553   7.514  45.417  0.00  0.00    +0.107 C 
ATOM      3  C5  <0> A   1     -14.361   8.498  46.341  0.00  0.00    -0.131 C 
ATOM      4  C6  <0> A   1     -14.932   8.010  47.591  0.00  0.00    -0.046 C 
ATOM      5  C7  <0> A   1     -15.444   6.741  47.320  0.00  0.00    -0.043 C 
ATOM      6  C8  <0> A   1     -16.073   6.015  48.357  0.00  0.00    +0.575 C 
ATOM      7  O1  <0> A   1     -16.517   4.904  48.122  0.00  0.00    -0.515 OA
ATOM      8  N2  <0> A   1     -16.192   6.520  49.597  0.00  0.00    -0.516 N 
ATOM      9  C9  <0> A   1     -15.709   7.773  49.926  0.00  0.00    +0.167 A 
ATOM     10  C10 <0> A   1     -15.064   8.552  48.950  0.00  0.00    -0.054 A 
ATOM     11  C11 <0> A   1     -14.577   9.817  49.280  0.00  0.00    +0.065 A 
ATOM     12  C12 <0> A   1     -14.718  10.290  50.566  0.00  0.00    -0.017 A 
ATOM     13  C13 <0> A   1     -15.341   9.515  51.533  0.00  0.00    +0.045 A 
ATOM     14  C14 <0> A   1     -15.846   8.271  51.216  0.00  0.00    -0.031 A 
ENDROOT
BRANCH   3  15
ATOM     15  C22 <0> A   1     -13.699   9.807  46.119  0.00  0.00    -0.011 A 
ATOM     16  C23 <0> A   1     -14.424  10.879  45.604  0.00  0.00    +0.054 A 
ATOM     17  C24 <0> A   1     -13.805  12.094  45.399  0.00  0.00    -0.012 A 
ATOM     18  C25 <0> A   1     -12.462  12.250  45.703  0.00  0.00    +0.097 A 
ATOM     19  C26 <0> A   1     -11.736  11.186  46.215  0.00  0.00    -0.015 A 
ATOM     20  C27 <0> A   1     -12.349   9.968  46.429  0.00  0.00    +0.052 A 
ATOM     21  F2  <0> A   1     -11.858  13.441  45.500  0.00  0.00    -0.140 F 
ENDBRANCH   3  15
BRANCH   1  23
ATOM     22  C1  <0> A   1     -16.319   5.571  44.019  0.00  0.00    +0.045 C 
ATOM     23  C2  <0> A   1     -15.569   5.230  45.309  0.00  0.00    +0.228 C 
ATOM     24  C3  <0> A   1     -14.308   4.434  44.969  0.00  0.00    +0.046 C 
ENDBRANCH   1  23
BRANCH   8  25
ATOM     25  C15 <0> A   1     -16.854   5.719  50.631  0.00  0.00    +0.359 C 
BRANCH  25  26
ATOM     26  C16 <0> A   1     -18.327   5.624  50.326  0.00  0.00    -0.151 A 
ATOM     27  C17 <0> A   1     -19.086   6.774  50.213  0.00  0.00    +0.058 A 
ATOM     28  C18 <0> A   1     -20.437   6.688  49.935  0.00  0.00    -0.003 A 
ATOM     29  C19 <0> A   1     -21.031   5.450  49.767  0.00  0.00    +0.051 A 
ATOM     30  C20 <0> A   1     -20.275   4.299  49.879  0.00  0.00    -0.025 A 
ATOM     31  C21 <0> A   1     -18.920   4.385  50.153  0.00  0.00    +0.123 A 
ATOM     32  F1  <0> A   1     -18.179   3.261  50.258  0.00  0.00    -0.116 F 
ENDBRANCH  25  26
ENDBRANCH   8  25
BRANCH   2  33
ATOM     33  C28 <0> A   1     -14.120   7.578  43.974  0.00  0.00    +0.121 C 
BRANCH  33  34
ATOM     34  C29 <0> A   1     -12.592   7.583  43.900  0.00  0.00    -0.006 C 
BRANCH  34  35
ATOM     35  C30 <0> A   1     -12.136   8.605  42.856  0.00  0.00    +0.214 C 
BRANCH  35  36
ATOM     36  O5  <0> A   1     -11.519   7.924  41.761  0.00  0.00    -0.542 OA
ATOM     37  H33 <0> A   1     -11.872   8.172  40.896  0.00  0.00    +0.364 HD
ENDBRANCH  35  36
BRANCH  35  38
ATOM     38  C31 <0> A   1     -13.346   9.392  42.350  0.00  0.00    -0.051 C 
BRANCH  38  39
ATOM     39  C32 <0> A   1     -12.876  10.716  41.742  0.00  0.00    +0.231 C 
BRANCH  39  40
ATOM     40  O4  <0> A   1     -11.509  10.597  41.344  0.00  0.00    -0.528 OA
ATOM     41  H32 <0> A   1     -11.149   9.704  41.434  0.00  0.00    +0.349 HD
ENDBRANCH  39  40
BRANCH  39  42
ATOM     42  C33 <0> A   1     -13.736  11.050  40.522  0.00  0.00    -0.103 C 
BRANCH  42  43
ATOM     43  C34 <0> A   1     -12.881  11.014  39.281  0.00  0.00    +0.491 C 
ATOM     44  O2  <0> A   1     -12.443  12.049  38.812  0.00  0.00    -0.681 OA
ATOM     45  O3  <0> A   1     -12.627   9.947  38.747  0.00  0.00    -0.713 OA
ENDBRANCH  42  43
ENDBRANCH  39  42
ENDBRANCH  38  39
ENDBRANCH  35  38
ENDBRANCH  34  35
ENDBRANCH  33  34
ENDBRANCH   2  33
TORSDOF 13
ENDMDL
MODEL 5
REMARK VINA RESULT:      -7.7      2.807      9.030
REMARK  Name = CHEMBL389442
REMARK  15 active torsions:
REMARK  status: ('A' for Active; 'I' for Inactive)
REMARK    1  A    between atoms: C1_1  and  C2_2
REMARK    2  A    between atoms: C2_2  and  C3_3
REMARK    3  A    between atoms: C2_2  and  N1_4
REMARK    4  A    between atoms: C4_5  and  C28_33
REMARK    5  A    between atoms: C5_6  and  C22_26
REMARK    6  A    between atoms: N2_11  and  C15_18
REMARK    7  A    between atoms: C15_18  and  C16_19
REMARK    8  A    between atoms: C28_33  and  C29_34
REMARK    9  A    between atoms: C29_34  and  C30_35
REMARK   10  A    between atoms: C30_35  and  C31_37
REMARK   11  A    between atoms: C30_35  and  O5_45
REMARK   12  A    between atoms: C31_37  and  C32_38
REMARK   13  A    between atoms: C32_38  and  C33_40
REMARK   14  A    between atoms: C32_38  and  O4_44
REMARK   15  A    between atoms: C33_40  and  C34_41
REMARK                            x       y       z     vdW  Elec       q    Type
REMARK                         _______ _______ _______ _____ _____    ______ ____
ROOT
ATOM      1  N1  <0> A   1     -15.408   6.070  46.060  0.00  0.00    -0.391 N 
ATOM      2  C4  <0> A   1     -14.486   6.984  45.671  0.00  0.00    +0.107 C 
ATOM      3  C5  <0> A   1     -14.638   8.124  46.405  0.00  0.00    -0.131 C 
ATOM      4  C6  <0> A   1     -15.748   7.881  47.321  0.00  0.00    -0.046 C 
ATOM      5  C7  <0> A   1     -16.197   6.586  47.060  0.00  0.00    -0.043 C 
ATOM      6  C8  <0> A   1     -17.284   6.071  47.802  0.00  0.00    +0.575 C 
ATOM      7  O1  <0> A   1     -17.674   4.937  47.577  0.00  0.00    -0.515 OA
ATOM      8  N2  <0> A   1     -17.897   6.799  48.751  0.00  0.00    -0.516 N 
ATOM      9  C9  <0> A   1     -17.501   8.090  49.051  0.00  0.00    +0.167 A 
ATOM     10  C10 <0> A   1     -16.421   8.669  48.362  0.00  0.00    -0.054 A 
ATOM     11  C11 <0> A   1     -16.021   9.970  48.663  0.00  0.00    +0.065 A 
ATOM     12  C12 <0> A   1     -16.678  10.676  49.647  0.00  0.00    -0.017 A 
ATOM     13  C13 <0> A   1     -17.733  10.100  50.338  0.00  0.00    +0.045 A 
ATOM     14  C14 <0> A   1     -18.153   8.821  50.037  0.00  0.00    -0.031 A 
ENDROOT
BRANCH   3  15
ATOM     15  C22 <0> A   1     -13.833   9.364  46.295  0.00  0.00    -0.011 A 
ATOM     16  C23 <0> A   1     -12.671   9.512  47.049  0.00  0.00    +0.054 A 
ATOM     17  C24 <0> A   1     -11.925  10.668  46.944  0.00  0.00    -0.012 A 
ATOM     18  C25 <0> A   1     -12.330  11.681  46.091  0.00  0.00    +0.097 A 
ATOM     19  C26 <0> A   1     -13.486  11.539  45.339  0.00  0.00    -0.015 A 
ATOM     20  C27 <0> A   1     -14.235  10.384  45.433  0.00  0.00    +0.052 A 
ATOM     21  F2  <0> A   1     -11.598  12.812  45.991  0.00  0.00    -0.140 F 
ENDBRANCH   3  15
BRANCH   1  23
ATOM     22  C1  <0> A   1     -16.268   4.815  44.144  0.00  0.00    +0.045 C 
ATOM     23  C2  <0> A   1     -15.547   4.726  45.491  0.00  0.00    +0.228 C 
ATOM     24  C3  <0> A   1     -14.160   4.113  45.288  0.00  0.00    +0.046 C 
ENDBRANCH   1  23
BRANCH   8  25
ATOM     25  C15 <0> A   1     -19.018   6.209  49.487  0.00  0.00    +0.359 C 
BRANCH  25  26
ATOM     26  C16 <0> A   1     -18.490   5.397  50.642  0.00  0.00    -0.151 A 
ATOM     27  C17 <0> A   1     -17.767   6.012  51.646  0.00  0.00    +0.058 A 
ATOM     28  C18 <0> A   1     -17.283   5.268  52.705  0.00  0.00    -0.003 A 
ATOM     29  C19 <0> A   1     -17.521   3.906  52.761  0.00  0.00    +0.051 A 
ATOM     30  C20 <0> A   1     -18.243   3.290  51.758  0.00  0.00    -0.025 A 
ATOM     31  C21 <0> A   1     -18.734   4.036  50.699  0.00  0.00    +0.123 A 
ATOM     32  F1  <0> A   1     -19.444   3.434  49.721  0.00  0.00    -0.116 F 
ENDBRANCH  25  26
ENDBRANCH   8  25
BRANCH   2  33
ATOM     33  C28 <0> A   1     -13.453   6.775  44.593  0.00  0.00    +0.121 C 
BRANCH  33  34
ATOM     34  C29 <0> A   1     -13.975   7.337  43.270  0.00  0.00    -0.006 C 
BRANCH  34  35
ATOM     35  C30 <0> A   1     -12.804   7.552  42.309  0.00  0.00    +0.214 C 
BRANCH  35  36
ATOM     36  O5  <0> A   1     -12.031   6.353  42.224  0.00  0.00    -0.542 OA
ATOM     37  H33 <0> A   1     -11.646   6.195  41.351  0.00  0.00    +0.364 HD
ENDBRANCH  35  36
BRANCH  35  38
ATOM     38  C31 <0> A   1     -13.341   7.911  40.922  0.00  0.00    -0.051 C 
BRANCH  38  39
ATOM     39  C32 <0> A   1     -12.465   9.002  40.302  0.00  0.00    +0.231 C 
BRANCH  39  40
ATOM     40  O4  <0> A   1     -12.528   8.911  38.877  0.00  0.00    -0.528 OA
ATOM     41  H32 <0> A   1     -11.761   8.480  38.477  0.00  0.00    +0.349 HD
ENDBRANCH  39  40
BRANCH  39  42
ATOM     42  C33 <0> A   1     -12.969  10.376  40.749  0.00  0.00    -0.103 C 
BRANCH  42  43
ATOM     43  C34 <0> A   1     -13.306  11.205  39.536  0.00  0.00    +0.491 C 
ATOM     44  O2  <0> A   1     -12.429  11.814  38.950  0.00  0.00    -0.681 OA
ATOM     45  O3  <0> A   1     -14.458  11.264  39.139  0.00  0.00    -0.713 OA
ENDBRANCH  42  43
ENDBRANCH  39  42
ENDBRANCH  38  39
ENDBRANCH  35  38
ENDBRANCH  34  35
ENDBRANCH  33  34
ENDBRANCH   2  33
TORSDOF 13
ENDMDL
MODEL 6
REMARK VINA RESULT:      -7.7      2.169      4.236
REMARK  Name = CHEMBL389442
REMARK  15 active torsions:
REMARK  status: ('A' for Active; 'I' for Inactive)
REMARK    1  A    between atoms: C1_1  and  C2_2
REMARK    2  A    between atoms: C2_2  and  C3_3
REMARK    3  A    between atoms: C2_2  and  N1_4
REMARK    4  A    between atoms: C4_5  and  C28_33
REMARK    5  A    between atoms: C5_6  and  C22_26
REMARK    6  A    between atoms: N2_11  and  C15_18
REMARK    7  A    between atoms: C15_18  and  C16_19
REMARK    8  A    between atoms: C28_33  and  C29_34
REMARK    9  A    between atoms: C29_34  and  C30_35
REMARK   10  A    between atoms: C30_35  and  C31_37
REMARK   11  A    between atoms: C30_35  and  O5_45
REMARK   12  A    between atoms: C31_37  and  C32_38
REMARK   13  A    between atoms: C32_38  and  C33_40
REMARK   14  A    between atoms: C32_38  and  O4_44
REMARK   15  A    between atoms: C33_40  and  C34_41
REMARK                            x       y       z     vdW  Elec       q    Type
REMARK                         _______ _______ _______ _____ _____    ______ ____
ROOT
ATOM      1  N1  <0> A   1     -15.062  10.809  47.244  0.00  0.00    -0.391 N 
ATOM      2  C4  <0> A   1     -15.909  10.078  48.011  0.00  0.00    +0.107 C 
ATOM      3  C5  <0> A   1     -15.941   8.793  47.554  0.00  0.00    -0.131 C 
ATOM      4  C6  <0> A   1     -15.035   8.737  46.411  0.00  0.00    -0.046 C 
ATOM      5  C7  <0> A   1     -14.518  10.023  46.257  0.00  0.00    -0.043 C 
ATOM      6  C8  <0> A   1     -13.602  10.278  45.210  0.00  0.00    +0.575 C 
ATOM      7  O1  <0> A   1     -13.146  11.401  45.077  0.00  0.00    -0.515 OA
ATOM      8  N2  <0> A   1     -13.221   9.310  44.358  0.00  0.00    -0.516 N 
ATOM      9  C9  <0> A   1     -13.703   8.018  44.458  0.00  0.00    +0.167 A 
ATOM     10  C10 <0> A   1     -14.610   7.685  45.478  0.00  0.00    -0.054 A 
ATOM     11  C11 <0> A   1     -15.097   6.383  45.579  0.00  0.00    +0.065 A 
ATOM     12  C12 <0> A   1     -14.674   5.424  44.685  0.00  0.00    -0.017 A 
ATOM     13  C13 <0> A   1     -13.767   5.747  43.688  0.00  0.00    +0.045 A 
ATOM     14  C14 <0> A   1     -13.292   7.037  43.563  0.00  0.00    -0.031 A 
ENDROOT
BRANCH   3  15
ATOM     15  C22 <0> A   1     -16.738   7.673  48.110  0.00  0.00    -0.011 A 
ATOM     16  C23 <0> A   1     -16.209   6.872  49.119  0.00  0.00    +0.054 A 
ATOM     17  C24 <0> A   1     -16.954   5.831  49.634  0.00  0.00    -0.012 A 
ATOM     18  C25 <0> A   1     -18.226   5.581  49.148  0.00  0.00    +0.097 A 
ATOM     19  C26 <0> A   1     -18.758   6.375  48.144  0.00  0.00    -0.015 A 
ATOM     20  C27 <0> A   1     -18.021   7.422  47.627  0.00  0.00    +0.052 A 
ATOM     21  F2  <0> A   1     -18.953   4.560  49.653  0.00  0.00    -0.140 F 
ENDBRANCH   3  15
BRANCH   1  23
ATOM     22  C1  <0> A   1     -16.065  12.966  47.814  0.00  0.00    +0.045 C 
ATOM     23  C2  <0> A   1     -14.775  12.233  47.438  0.00  0.00    +0.228 C 
ATOM     24  C3  <0> A   1     -13.750  12.398  48.561  0.00  0.00    +0.046 C 
ENDBRANCH   1  23
BRANCH   8  25
ATOM     25  C15 <0> A   1     -12.268   9.635  43.293  0.00  0.00    +0.359 C 
BRANCH  25  26
ATOM     26  C16 <0> A   1     -13.021  10.064  42.060  0.00  0.00    -0.151 A 
ATOM     27  C17 <0> A   1     -13.843  11.174  42.103  0.00  0.00    +0.058 A 
ATOM     28  C18 <0> A   1     -14.533  11.568  40.972  0.00  0.00    -0.003 A 
ATOM     29  C19 <0> A   1     -14.402  10.851  39.796  0.00  0.00    +0.051 A 
ATOM     30  C20 <0> A   1     -13.580   9.742  39.751  0.00  0.00    -0.025 A 
ATOM     31  C21 <0> A   1     -12.883   9.350  40.882  0.00  0.00    +0.123 A 
ATOM     32  F1  <0> A   1     -12.076   8.268  40.838  0.00  0.00    -0.116 F 
ENDBRANCH  25  26
ENDBRANCH   8  25
BRANCH   2  33
ATOM     33  C28 <0> A   1     -16.693  10.603  49.187  0.00  0.00    +0.121 C 
BRANCH  33  34
ATOM     34  C29 <0> A   1     -15.954  10.267  50.483  0.00  0.00    -0.006 C 
BRANCH  34  35
ATOM     35  C30 <0> A   1     -16.921   9.599  51.463  0.00  0.00    +0.214 C 
BRANCH  35  36
ATOM     36  O5  <0> A   1     -17.030  10.398  52.644  0.00  0.00    -0.542 OA
ATOM     37  H33 <0> A   1     -16.232  10.401  53.190  0.00  0.00    +0.364 HD
ENDBRANCH  35  36
BRANCH  35  38
ATOM     38  C31 <0> A   1     -18.298   9.466  50.809  0.00  0.00    -0.051 C 
BRANCH  38  39
ATOM     39  C32 <0> A   1     -19.293   8.901  51.826  0.00  0.00    +0.231 C 
BRANCH  39  40
ATOM     40  O4  <0> A   1     -20.025   9.975  52.421  0.00  0.00    -0.528 OA
ATOM     41  H32 <0> A   1     -20.762  10.294  51.882  0.00  0.00    +0.349 HD
ENDBRANCH  39  40
BRANCH  39  42
ATOM     42  C33 <0> A   1     -20.262   7.953  51.118  0.00  0.00    -0.103 C 
BRANCH  42  43
ATOM     43  C34 <0> A   1     -21.619   8.602  51.023  0.00  0.00    +0.491 C 
ATOM     44  O2  <0> A   1     -21.907   9.274  50.049  0.00  0.00    -0.681 OA
ATOM     45  O3  <0> A   1     -22.430   8.452  51.921  0.00  0.00    -0.713 OA
ENDBRANCH  42  43
ENDBRANCH  39  42
ENDBRANCH  38  39
ENDBRANCH  35  38
ENDBRANCH  34  35
ENDBRANCH  33  34
ENDBRANCH   2  33
TORSDOF 13
ENDMDL
MODEL 7
REMARK VINA RESULT:      -7.6      2.276      4.323
REMARK  Name = CHEMBL389442
REMARK  15 active torsions:
REMARK  status: ('A' for Active; 'I' for Inactive)
REMARK    1  A    between atoms: C1_1  and  C2_2
REMARK    2  A    between atoms: C2_2  and  C3_3
REMARK    3  A    between atoms: C2_2  and  N1_4
REMARK    4  A    between atoms: C4_5  and  C28_33
REMARK    5  A    between atoms: C5_6  and  C22_26
REMARK    6  A    between atoms: N2_11  and  C15_18
REMARK    7  A    between atoms: C15_18  and  C16_19
REMARK    8  A    between atoms: C28_33  and  C29_34
REMARK    9  A    between atoms: C29_34  and  C30_35
REMARK   10  A    between atoms: C30_35  and  C31_37
REMARK   11  A    between atoms: C30_35  and  O5_45
REMARK   12  A    between atoms: C31_37  and  C32_38
REMARK   13  A    between atoms: C32_38  and  C33_40
REMARK   14  A    between atoms: C32_38  and  O4_44
REMARK   15  A    between atoms: C33_40  and  C34_41
REMARK                            x       y       z     vdW  Elec       q    Type
REMARK                         _______ _______ _______ _____ _____    ______ ____
ROOT
ATOM      1  N1  <0> A   1     -14.924   9.881  47.563  0.00  0.00    -0.391 N 
ATOM      2  C4  <0> A   1     -15.997   9.363  48.211  0.00  0.00    +0.107 C 
ATOM      3  C5  <0> A   1     -16.317   8.155  47.666  0.00  0.00    -0.131 C 
ATOM      4  C6  <0> A   1     -15.356   7.915  46.595  0.00  0.00    -0.046 C 
ATOM      5  C7  <0> A   1     -14.512   9.026  46.569  0.00  0.00    -0.043 C 
ATOM      6  C8  <0> A   1     -13.470   9.078  45.615  0.00  0.00    +0.575 C 
ATOM      7  O1  <0> A   1     -12.730  10.047  45.595  0.00  0.00    -0.515 OA
ATOM      8  N2  <0> A   1     -13.275   8.085  44.731  0.00  0.00    -0.516 N 
ATOM      9  C9  <0> A   1     -14.081   6.961  44.705  0.00  0.00    +0.167 A 
ATOM     10  C10 <0> A   1     -15.132   6.833  45.628  0.00  0.00    -0.054 A 
ATOM     11  C11 <0> A   1     -15.946   5.701  45.602  0.00  0.00    +0.065 A 
ATOM     12  C12 <0> A   1     -15.704   4.706  44.680  0.00  0.00    -0.017 A 
ATOM     13  C13 <0> A   1     -14.657   4.825  43.779  0.00  0.00    +0.045 A 
ATOM     14  C14 <0> A   1     -13.856   5.949  43.779  0.00  0.00    -0.031 A 
ENDROOT
BRANCH   3  15
ATOM     15  C22 <0> A   1     -17.423   7.259  48.082  0.00  0.00    -0.011 A 
ATOM     16  C23 <0> A   1     -18.694   7.418  47.535  0.00  0.00    +0.054 A 
ATOM     17  C24 <0> A   1     -19.721   6.582  47.926  0.00  0.00    -0.012 A 
ATOM     18  C25 <0> A   1     -19.489   5.587  48.860  0.00  0.00    +0.097 A 
ATOM     19  C26 <0> A   1     -18.226   5.424  49.408  0.00  0.00    -0.015 A 
ATOM     20  C27 <0> A   1     -17.192   6.252  49.019  0.00  0.00    +0.052 A 
ATOM     21  F2  <0> A   1     -20.497   4.771  49.241  0.00  0.00    -0.140 F 
ENDBRANCH   3  15
BRANCH   1  23
ATOM     22  C1  <0> A   1     -15.375  12.255  47.943  0.00  0.00    +0.045 C 
ATOM     23  C2  <0> A   1     -14.299  11.169  47.875  0.00  0.00    +0.228 C 
ATOM     24  C3  <0> A   1     -13.584  11.075  49.224  0.00  0.00    +0.046 C 
ENDBRANCH   1  23
BRANCH   8  25
ATOM     25  C15 <0> A   1     -12.177   8.197  43.767  0.00  0.00    +0.359 C 
BRANCH  25  26
ATOM     26  C16 <0> A   1     -12.695   8.791  42.483  0.00  0.00    -0.151 A 
ATOM     27  C17 <0> A   1     -13.376   9.994  42.502  0.00  0.00    +0.058 A 
ATOM     28  C18 <0> A   1     -13.851  10.539  41.324  0.00  0.00    -0.003 A 
ATOM     29  C19 <0> A   1     -13.646   9.882  40.124  0.00  0.00    +0.051 A 
ATOM     30  C20 <0> A   1     -12.966   8.680  40.103  0.00  0.00    -0.025 A 
ATOM     31  C21 <0> A   1     -12.484   8.135  41.282  0.00  0.00    +0.123 A 
ATOM     32  F1  <0> A   1     -11.815   6.963  41.260  0.00  0.00    -0.116 F 
ENDBRANCH  25  26
ENDBRANCH   8  25
BRANCH   2  33
ATOM     33  C28 <0> A   1     -16.724  10.021  49.356  0.00  0.00    +0.121 C 
BRANCH  33  34
ATOM     34  C29 <0> A   1     -16.378   9.301  50.661  0.00  0.00    -0.006 C 
BRANCH  34  35
ATOM     35  C30 <0> A   1     -17.658   9.058  51.464  0.00  0.00    +0.214 C 
BRANCH  35  36
ATOM     36  O5  <0> A   1     -17.600   9.795  52.687  0.00  0.00    -0.542 OA
ATOM     37  H33 <0> A   1     -18.360  10.374  52.833  0.00  0.00    +0.364 HD
ENDBRANCH  35  36
BRANCH  35  38
ATOM     38  C31 <0> A   1     -18.867   9.521  50.648  0.00  0.00    -0.051 C 
BRANCH  38  39
ATOM     39  C32 <0> A   1     -20.151   9.229  51.428  0.00  0.00    +0.231 C 
BRANCH  39  40
ATOM     40  O4  <0> A   1     -20.462  10.345  52.265  0.00  0.00    -0.528 OA
ATOM     41  H32 <0> A   1     -20.483  11.192  51.800  0.00  0.00    +0.349 HD
ENDBRANCH  39  40
BRANCH  39  42
ATOM     42  C33 <0> A   1     -21.300   8.990  50.447  0.00  0.00    -0.103 C 
BRANCH  42  43
ATOM     43  C34 <0> A   1     -22.424   9.948  50.749  0.00  0.00    +0.491 C 
ATOM     44  O2  <0> A   1     -22.441  11.051  50.232  0.00  0.00    -0.681 OA
ATOM     45  O3  <0> A   1     -23.318   9.619  51.510  0.00  0.00    -0.713 OA
ENDBRANCH  42  43
ENDBRANCH  39  42
ENDBRANCH  38  39
ENDBRANCH  35  38
ENDBRANCH  34  35
ENDBRANCH  33  34
ENDBRANCH   2  33
TORSDOF 13
ENDMDL
MODEL 8
REMARK VINA RESULT:      -7.4     14.538     19.620
REMARK  Name = CHEMBL389442
REMARK  15 active torsions:
REMARK  status: ('A' for Active; 'I' for Inactive)
REMARK    1  A    between atoms: C1_1  and  C2_2
REMARK    2  A    between atoms: C2_2  and  C3_3
REMARK    3  A    between atoms: C2_2  and  N1_4
REMARK    4  A    between atoms: C4_5  and  C28_33
REMARK    5  A    between atoms: C5_6  and  C22_26
REMARK    6  A    between atoms: N2_11  and  C15_18
REMARK    7  A    between atoms: C15_18  and  C16_19
REMARK    8  A    between atoms: C28_33  and  C29_34
REMARK    9  A    between atoms: C29_34  and  C30_35
REMARK   10  A    between atoms: C30_35  and  C31_37
REMARK   11  A    between atoms: C30_35  and  O5_45
REMARK   12  A    between atoms: C31_37  and  C32_38
REMARK   13  A    between atoms: C32_38  and  C33_40
REMARK   14  A    between atoms: C32_38  and  O4_44
REMARK   15  A    between atoms: C33_40  and  C34_41
REMARK                            x       y       z     vdW  Elec       q    Type
REMARK                         _______ _______ _______ _____ _____    ______ ____
ROOT
ATOM      1  N1  <0> A   1     -28.232  -4.725  52.414  0.00  0.00    -0.391 N 
ATOM      2  C4  <0> A   1     -27.657  -5.894  52.038  0.00  0.00    +0.107 C 
ATOM      3  C5  <0> A   1     -26.389  -5.655  51.598  0.00  0.00    -0.131 C 
ATOM      4  C6  <0> A   1     -26.172  -4.217  51.718  0.00  0.00    -0.046 C 
ATOM      5  C7  <0> A   1     -27.356  -3.683  52.227  0.00  0.00    -0.043 C 
ATOM      6  C8  <0> A   1     -27.446  -2.289  52.447  0.00  0.00    +0.575 C 
ATOM      7  O1  <0> A   1     -28.479  -1.823  52.896  0.00  0.00    -0.515 OA
ATOM      8  N2  <0> A   1     -26.418  -1.467  52.175  0.00  0.00    -0.516 N 
ATOM      9  C9  <0> A   1     -25.221  -1.936  51.665  0.00  0.00    +0.167 A 
ATOM     10  C10 <0> A   1     -25.053  -3.311  51.427  0.00  0.00    -0.054 A 
ATOM     11  C11 <0> A   1     -23.848  -3.786  50.912  0.00  0.00    +0.065 A 
ATOM     12  C12 <0> A   1     -22.821  -2.904  50.653  0.00  0.00    -0.017 A 
ATOM     13  C13 <0> A   1     -22.981  -1.549  50.902  0.00  0.00    +0.045 A 
ATOM     14  C14 <0> A   1     -24.175  -1.063  51.392  0.00  0.00    -0.031 A 
ENDROOT
BRANCH   3  15
ATOM     15  C22 <0> A   1     -25.419  -6.659  51.098  0.00  0.00    -0.011 A 
ATOM     16  C23 <0> A   1     -25.290  -6.886  49.730  0.00  0.00    +0.054 A 
ATOM     17  C24 <0> A   1     -24.387  -7.821  49.269  0.00  0.00    -0.012 A 
ATOM     18  C25 <0> A   1     -23.609  -8.536  50.165  0.00  0.00    +0.097 A 
ATOM     19  C26 <0> A   1     -23.733  -8.315  51.527  0.00  0.00    -0.015 A 
ATOM     20  C27 <0> A   1     -24.631  -7.377  51.996  0.00  0.00    +0.052 A 
ATOM     21  F2  <0> A   1     -22.726  -9.452  49.710  0.00  0.00    -0.140 F 
ENDBRANCH   3  15
BRANCH   1  23
ATOM     22  C1  <0> A   1     -30.601  -4.825  51.810  0.00  0.00    +0.045 C 
ATOM     23  C2  <0> A   1     -29.594  -4.593  52.940  0.00  0.00    +0.228 C 
ATOM     24  C3  <0> A   1     -29.818  -5.629  54.043  0.00  0.00    +0.046 C 
ENDBRANCH   1  23
BRANCH   8  25
ATOM     25  C15 <0> A   1     -26.571  -0.031  52.425  0.00  0.00    +0.359 C 
BRANCH  25  26
ATOM     26  C16 <0> A   1     -26.430   0.240  53.901  0.00  0.00    -0.151 A 
ATOM     27  C17 <0> A   1     -25.295  -0.168  54.574  0.00  0.00    +0.058 A 
ATOM     28  C18 <0> A   1     -25.166   0.080  55.927  0.00  0.00    -0.003 A 
ATOM     29  C19 <0> A   1     -26.173   0.738  56.610  0.00  0.00    +0.051 A 
ATOM     30  C20 <0> A   1     -27.309   1.148  55.939  0.00  0.00    -0.025 A 
ATOM     31  C21 <0> A   1     -27.437   0.905  54.581  0.00  0.00    +0.123 A 
ATOM     32  F1  <0> A   1     -28.544   1.309  53.923  0.00  0.00    -0.116 F 
ENDBRANCH  25  26
ENDBRANCH   8  25
BRANCH   2  33
ATOM     33  C28 <0> A   1     -28.318  -7.248  52.096  0.00  0.00    +0.121 C 
BRANCH  33  34
ATOM     34  C29 <0> A   1     -28.703  -7.688  50.682  0.00  0.00    -0.006 C 
BRANCH  34  35
ATOM     35  C30 <0> A   1     -29.146  -9.153  50.707  0.00  0.00    +0.214 C 
BRANCH  35  36
ATOM     36  O5  <0> A   1     -27.993  -9.998  50.739  0.00  0.00    -0.542 OA
ATOM     37  H33 <0> A   1     -27.289  -9.724  50.135  0.00  0.00    +0.364 HD
ENDBRANCH  35  36
BRANCH  35  38
ATOM     38  C31 <0> A   1     -29.997  -9.406  51.953  0.00  0.00    -0.051 C 
BRANCH  38  39
ATOM     39  C32 <0> A   1     -30.820 -10.683  51.758  0.00  0.00    +0.231 C 
BRANCH  39  40
ATOM     40  O4  <0> A   1     -30.492 -11.271  50.497  0.00  0.00    -0.528 OA
ATOM     41  H32 <0> A   1     -31.062 -12.012  50.249  0.00  0.00    +0.349 HD
ENDBRANCH  39  40
BRANCH  39  42
ATOM     42  C33 <0> A   1     -30.501 -11.671  52.881  0.00  0.00    -0.103 C 
BRANCH  42  43
ATOM     43  C34 <0> A   1     -29.654 -12.793  52.335  0.00  0.00    +0.491 C 
ATOM     44  O2  <0> A   1     -28.466 -12.615  52.130  0.00  0.00    -0.681 OA
ATOM     45  O3  <0> A   1     -30.157 -13.878  52.101  0.00  0.00    -0.713 OA
ENDBRANCH  42  43
ENDBRANCH  39  42
ENDBRANCH  38  39
ENDBRANCH  35  38
ENDBRANCH  34  35
ENDBRANCH  33  34
ENDBRANCH   2  33
TORSDOF 13
ENDMDL
MODEL 9
REMARK VINA RESULT:      -7.3      2.789      8.867
REMARK  Name = CHEMBL389442
REMARK  15 active torsions:
REMARK  status: ('A' for Active; 'I' for Inactive)
REMARK    1  A    between atoms: C1_1  and  C2_2
REMARK    2  A    between atoms: C2_2  and  C3_3
REMARK    3  A    between atoms: C2_2  and  N1_4
REMARK    4  A    between atoms: C4_5  and  C28_33
REMARK    5  A    between atoms: C5_6  and  C22_26
REMARK    6  A    between atoms: N2_11  and  C15_18
REMARK    7  A    between atoms: C15_18  and  C16_19
REMARK    8  A    between atoms: C28_33  and  C29_34
REMARK    9  A    between atoms: C29_34  and  C30_35
REMARK   10  A    between atoms: C30_35  and  C31_37
REMARK   11  A    between atoms: C30_35  and  O5_45
REMARK   12  A    between atoms: C31_37  and  C32_38
REMARK   13  A    between atoms: C32_38  and  C33_40
REMARK   14  A    between atoms: C32_38  and  O4_44
REMARK   15  A    between atoms: C33_40  and  C34_41
REMARK                            x       y       z     vdW  Elec       q    Type
REMARK                         _______ _______ _______ _____ _____    ______ ____
ROOT
ATOM      1  N1  <0> A   1     -15.698   6.416  46.329  0.00  0.00    -0.391 N 
ATOM      2  C4  <0> A   1     -14.561   7.146  46.222  0.00  0.00    +0.107 C 
ATOM      3  C5  <0> A   1     -14.546   8.107  47.189  0.00  0.00    -0.131 C 
ATOM      4  C6  <0> A   1     -15.780   7.948  47.951  0.00  0.00    -0.046 C 
ATOM      5  C7  <0> A   1     -16.466   6.882  47.370  0.00  0.00    -0.043 C 
ATOM      6  C8  <0> A   1     -17.717   6.495  47.901  0.00  0.00    +0.575 C 
ATOM      7  O1  <0> A   1     -18.316   5.560  47.395  0.00  0.00    -0.515 OA
ATOM      8  N2  <0> A   1     -18.263   7.131  48.952  0.00  0.00    -0.516 N 
ATOM      9  C9  <0> A   1     -17.633   8.197  49.568  0.00  0.00    +0.167 A 
ATOM     10  C10 <0> A   1     -16.381   8.635  49.102  0.00  0.00    -0.054 A 
ATOM     11  C11 <0> A   1     -15.746   9.710  49.721  0.00  0.00    +0.065 A 
ATOM     12  C12 <0> A   1     -16.342  10.329  50.798  0.00  0.00    -0.017 A 
ATOM     13  C13 <0> A   1     -17.569   9.887  51.269  0.00  0.00    +0.045 A 
ATOM     14  C14 <0> A   1     -18.220   8.838  50.653  0.00  0.00    -0.031 A 
ENDROOT
BRANCH   3  15
ATOM     15  C22 <0> A   1     -13.483   9.115  47.422  0.00  0.00    -0.011 A 
ATOM     16  C23 <0> A   1     -13.565  10.369  46.821  0.00  0.00    +0.054 A 
ATOM     17  C24 <0> A   1     -12.574  11.303  47.040  0.00  0.00    -0.012 A 
ATOM     18  C25 <0> A   1     -11.497  10.996  47.856  0.00  0.00    +0.097 A 
ATOM     19  C26 <0> A   1     -11.411   9.750  48.456  0.00  0.00    -0.015 A 
ATOM     20  C27 <0> A   1     -12.401   8.811  48.247  0.00  0.00    +0.052 A 
ATOM     21  F2  <0> A   1     -10.528  11.913  48.067  0.00  0.00    -0.140 F 
ENDBRANCH   3  15
BRANCH   1  23
ATOM     22  C1  <0> A   1     -16.386   5.822  44.058  0.00  0.00    +0.045 C 
ATOM     23  C2  <0> A   1     -16.060   5.295  45.457  0.00  0.00    +0.228 C 
ATOM     24  C3  <0> A   1     -14.886   4.317  45.371  0.00  0.00    +0.046 C 
ENDBRANCH   1  23
BRANCH   8  25
ATOM     25  C15 <0> A   1     -19.563   6.683  49.458  0.00  0.00    +0.359 C 
BRANCH  25  26
ATOM     26  C16 <0> A   1     -19.404   5.348  50.139  0.00  0.00    -0.151 A 
ATOM     27  C17 <0> A   1     -18.410   5.166  51.082  0.00  0.00    +0.058 A 
ATOM     28  C18 <0> A   1     -18.264   3.941  51.705  0.00  0.00    -0.003 A 
ATOM     29  C19 <0> A   1     -19.114   2.896  51.387  0.00  0.00    +0.051 A 
ATOM     30  C20 <0> A   1     -20.108   3.077  50.446  0.00  0.00    -0.025 A 
ATOM     31  C21 <0> A   1     -20.259   4.305  49.824  0.00  0.00    +0.123 A 
ATOM     32  F1  <0> A   1     -21.233   4.483  48.907  0.00  0.00    -0.116 F 
ENDBRANCH  25  26
ENDBRANCH   8  25
BRANCH   2  33
ATOM     33  C28 <0> A   1     -13.480   6.929  45.194  0.00  0.00    +0.121 C 
BRANCH  33  34
ATOM     34  C29 <0> A   1     -13.580   8.009  44.114  0.00  0.00    -0.006 C 
BRANCH  34  35
ATOM     35  C30 <0> A   1     -12.175   8.476  43.729  0.00  0.00    +0.214 C 
BRANCH  35  36
ATOM     36  O5  <0> A   1     -11.223   7.472  44.092  0.00  0.00    -0.542 OA
ATOM     37  H33 <0> A   1     -10.479   7.398  43.479  0.00  0.00    +0.364 HD
ENDBRANCH  35  36
BRANCH  35  38
ATOM     38  C31 <0> A   1     -12.113   8.714  42.219  0.00  0.00    -0.051 C 
BRANCH  38  39
ATOM     39  C32 <0> A   1     -13.066   9.851  41.842  0.00  0.00    +0.231 C 
BRANCH  39  40
ATOM     40  O4  <0> A   1     -12.452  11.106  42.143  0.00  0.00    -0.528 OA
ATOM     41  H32 <0> A   1     -12.954  11.873  41.836  0.00  0.00    +0.349 HD
ENDBRANCH  39  40
BRANCH  39  42
ATOM     42  C33 <0> A   1     -13.378   9.780  40.346  0.00  0.00    -0.103 C 
BRANCH  42  43
ATOM     43  C34 <0> A   1     -13.370  11.172  39.767  0.00  0.00    +0.491 C 
ATOM     44  O2  <0> A   1     -14.394  11.832  39.752  0.00  0.00    -0.681 OA
ATOM     45  O3  <0> A   1     -12.339  11.637  39.313  0.00  0.00    -0.713 OA
ENDBRANCH  42  43
ENDBRANCH  39  42
ENDBRANCH  38  39
ENDBRANCH  35  38
ENDBRANCH  34  35
ENDBRANCH  33  34
ENDBRANCH   2  33
TORSDOF 13
ENDMDL
MODEL 10
REMARK VINA RESULT:      -7.3      4.138      6.573
REMARK  Name = CHEMBL389442
REMARK  15 active torsions:
REMARK  status: ('A' for Active; 'I' for Inactive)
REMARK    1  A    between atoms: C1_1  and  C2_2
REMARK    2  A    between atoms: C2_2  and  C3_3
REMARK    3  A    between atoms: C2_2  and  N1_4
REMARK    4  A    between atoms: C4_5  and  C28_33
REMARK    5  A    between atoms: C5_6  and  C22_26
REMARK    6  A    between atoms: N2_11  and  C15_18
REMARK    7  A    between atoms: C15_18  and  C16_19
REMARK    8  A    between atoms: C28_33  and  C29_34
REMARK    9  A    between atoms: C29_34  and  C30_35
REMARK   10  A    between atoms: C30_35  and  C31_37
REMARK   11  A    between atoms: C30_35  and  O5_45
REMARK   12  A    between atoms: C31_37  and  C32_38
REMARK   13  A    between atoms: C32_38  and  C33_40
REMARK   14  A    between atoms: C32_38  and  O4_44
REMARK   15  A    between atoms: C33_40  and  C34_41
REMARK                            x       y       z     vdW  Elec       q    Type
REMARK                         _______ _______ _______ _____ _____    ______ ____
ROOT
ATOM      1  N1  <0> A   1     -12.976  10.544  47.349  0.00  0.00    -0.391 N 
ATOM      2  C4  <0> A   1     -13.817  10.102  48.316  0.00  0.00    +0.107 C 
ATOM      3  C5  <0> A   1     -14.502   9.015  47.859  0.00  0.00    -0.131 C 
ATOM      4  C6  <0> A   1     -14.037   8.774  46.497  0.00  0.00    -0.046 C 
ATOM      5  C7  <0> A   1     -13.089   9.761  46.226  0.00  0.00    -0.043 C 
ATOM      6  C8  <0> A   1     -12.461   9.783  44.960  0.00  0.00    +0.575 C 
ATOM      7  O1  <0> A   1     -11.629  10.643  44.724  0.00  0.00    -0.515 OA
ATOM      8  N2  <0> A   1     -12.757   8.879  44.011  0.00  0.00    -0.516 N 
ATOM      9  C9  <0> A   1     -13.692   7.881  44.219  0.00  0.00    +0.167 A 
ATOM     10  C10 <0> A   1     -14.352   7.788  45.456  0.00  0.00    -0.054 A 
ATOM     11  C11 <0> A   1     -15.295   6.782  45.667  0.00  0.00    +0.065 A 
ATOM     12  C12 <0> A   1     -15.563   5.875  44.665  0.00  0.00    -0.017 A 
ATOM     13  C13 <0> A   1     -14.899   5.957  43.450  0.00  0.00    +0.045 A 
ATOM     14  C14 <0> A   1     -13.979   6.959  43.220  0.00  0.00    -0.031 A 
ENDROOT
BRANCH   3  15
ATOM     15  C22 <0> A   1     -15.519   8.231  48.602  0.00  0.00    -0.011 A 
ATOM     16  C23 <0> A   1     -15.134   7.127  49.359  0.00  0.00    +0.054 A 
ATOM     17  C24 <0> A   1     -16.083   6.400  50.048  0.00  0.00    -0.012 A 
ATOM     18  C25 <0> A   1     -17.417   6.766  49.987  0.00  0.00    +0.097 A 
ATOM     19  C26 <0> A   1     -17.806   7.863  49.235  0.00  0.00    -0.015 A 
ATOM     20  C27 <0> A   1     -16.862   8.599  48.547  0.00  0.00    +0.052 A 
ATOM     21  F2  <0> A   1     -18.345   6.052  50.662  0.00  0.00    -0.140 F 
ENDBRANCH   3  15
BRANCH   1  23
ATOM     22  C1  <0> A   1     -12.780  12.799  48.279  0.00  0.00    +0.045 C 
ATOM     23  C2  <0> A   1     -12.079  11.696  47.481  0.00  0.00    +0.228 C 
ATOM     24  C3  <0> A   1     -10.806  11.269  48.214  0.00  0.00    +0.046 C 
ENDBRANCH   1  23
BRANCH   8  25
ATOM     25  C15 <0> A   1     -12.072   8.954  42.718  0.00  0.00    +0.359 C 
BRANCH  25  26
ATOM     26  C16 <0> A   1     -12.937   9.699  41.733  0.00  0.00    -0.151 A 
ATOM     27  C17 <0> A   1     -13.634  10.822  42.136  0.00  0.00    +0.058 A 
ATOM     28  C18 <0> A   1     -14.427  11.504  41.233  0.00  0.00    -0.003 A 
ATOM     29  C19 <0> A   1     -14.523  11.065  39.925  0.00  0.00    +0.051 A 
ATOM     30  C20 <0> A   1     -13.826   9.943  39.520  0.00  0.00    -0.025 A 
ATOM     31  C21 <0> A   1     -13.027   9.261  40.423  0.00  0.00    +0.123 A 
ATOM     32  F1  <0> A   1     -12.341   8.168  40.026  0.00  0.00    -0.116 F 
ENDBRANCH  25  26
ENDBRANCH   8  25
BRANCH   2  33
ATOM     33  C28 <0> A   1     -13.971  10.716  49.684  0.00  0.00    +0.121 C 
BRANCH  33  34
ATOM     34  C29 <0> A   1     -13.097   9.958  50.685  0.00  0.00    -0.006 C 
BRANCH  34  35
ATOM     35  C30 <0> A   1     -12.334  10.959  51.555  0.00  0.00    +0.214 C 
BRANCH  35  36
ATOM     36  O5  <0> A   1     -12.965  11.056  52.834  0.00  0.00    -0.542 OA
ATOM     37  H33 <0> A   1     -13.642  11.745  52.886  0.00  0.00    +0.364 HD
ENDBRANCH  35  36
BRANCH  35  38
ATOM     38  C31 <0> A   1     -10.891  10.482  51.735  0.00  0.00    -0.051 C 
BRANCH  38  39
ATOM     39  C32 <0> A   1      -9.961  11.694  51.826  0.00  0.00    +0.231 C 
BRANCH  39  40
ATOM     40  O4  <0> A   1     -10.717  12.891  51.626  0.00  0.00    -0.528 OA
ATOM     41  H32 <0> A   1     -10.176  13.685  51.523  0.00  0.00    +0.349 HD
ENDBRANCH  39  40
BRANCH  39  42
ATOM     42  C33 <0> A   1      -9.305  11.730  53.208  0.00  0.00    -0.103 C 
BRANCH  42  43
ATOM     43  C34 <0> A   1      -9.962  12.796  54.047  0.00  0.00    +0.491 C 
ATOM     44  O2  <0> A   1      -9.427  13.882  54.182  0.00  0.00    -0.681 OA
ATOM     45  O3  <0> A   1     -11.030  12.571  54.591  0.00  0.00    -0.713 OA
ENDBRANCH  42  43
ENDBRANCH  39  42
ENDBRANCH  38  39
ENDBRANCH  35  38
ENDBRANCH  34  35
ENDBRANCH  33  34
ENDBRANCH   2  33
TORSDOF 13
ENDMDL
