REMARK VINA RESULT:      -8.7     13.865     18.107
REMARK  Name = CHEMBL332812
REMARK  11 active torsions:
REMARK  status: ('A' for Active; 'I' for Inactive)
REMARK    1  A    between atoms: C6_6  and  C11_11
REMARK    2  A    between atoms: C11_11  and  C12_12
REMARK    3  A    between atoms: N2_19  and  C26_34
REMARK    4  A    between atoms: C18_20  and  C19_21
REMARK    5  A    between atoms: C20_22  and  C21_23
REMARK    6  A    between atoms: C21_23  and  C22_25
REMARK    7  A    between atoms: C21_23  and  O4_33
REMARK    8  A    between atoms: C22_25  and  C23_26
REMARK    9  A    between atoms: C23_26  and  C24_28
REMARK   10  A    between atoms: C23_26  and  O3_32
REMARK   11  A    between atoms: C24_28  and  C25_29
REMARK                            x       y       z     vdW  Elec       q    Type
REMARK                         _______ _______ _______ _____ _____    ______ ____
ROOT
ATOM      1  C12 <0> A   1     -25.506  -6.309  51.094  0.00  0.00    +0.092 C 
ATOM      2  C13 <0> A   1     -26.993  -6.516  50.789  0.00  0.00    +0.030 C 
ATOM      3  C14 <0> A   1     -27.836  -6.017  51.965  0.00  0.00    +0.016 C 
ATOM      4  C15 <0> A   1     -27.798  -4.485  52.016  0.00  0.00    +0.104 C 
ATOM      5  C16 <0> A   1     -26.355  -4.048  51.952  0.00  0.00    -0.211 C 
ATOM      6  C17 <0> A   1     -25.307  -4.878  51.533  0.00  0.00    +0.089 C 
ATOM      7  N1  <0> A   1     -24.192  -4.205  51.596  0.00  0.00    -0.263 NA
ATOM      8  N2  <0> A   1     -24.472  -2.910  52.057  0.00  0.00    -0.330 N 
ATOM      9  C18 <0> A   1     -25.822  -2.826  52.274  0.00  0.00    +0.124 C 
ENDROOT
BRANCH   8  10
ATOM     10  C26 <0> A   1     -23.538  -1.886  52.259  0.00  0.00    +0.149 A 
ATOM     11  C27 <0> A   1     -23.307  -0.948  51.260  0.00  0.00    +0.048 A 
ATOM     12  C28 <0> A   1     -22.388   0.061  51.461  0.00  0.00    +0.017 A 
ATOM     13  C29 <0> A   1     -21.694   0.139  52.658  0.00  0.00    +0.097 A 
ATOM     14  C30 <0> A   1     -21.922  -0.795  53.654  0.00  0.00    +0.007 A 
ATOM     15  C31 <0> A   1     -22.845  -1.803  53.460  0.00  0.00    +0.056 A 
ATOM     16  F1  <0> A   1     -20.793   1.127  52.852  0.00  0.00    -0.135 F 
ENDBRANCH   8  10
BRANCH   9  17
ATOM     17  C19 <0> A   1     -26.560  -1.649  52.760  0.00  0.00    +0.027 C 
ATOM     18  C20 <0> A   1     -26.930  -0.698  51.909  0.00  0.00    -0.028 C 
BRANCH  18  19
ATOM     19  C21 <0> A   1     -27.685   0.507  52.406  0.00  0.00    +0.254 C 
BRANCH  19  20
ATOM     20  O4  <0> A   1     -27.050   1.697  51.934  0.00  0.00    -0.536 OA
ATOM     21  H26 <0> A   1     -27.589   2.210  51.315  0.00  0.00    +0.368 HD
ENDBRANCH  19  20
BRANCH  19  22
ATOM     22  C22 <0> A   1     -29.124   0.457  51.888  0.00  0.00    -0.040 C 
BRANCH  22  23
ATOM     23  C23 <0> A   1     -30.040   1.218  52.849  0.00  0.00    +0.232 C 
BRANCH  23  24
ATOM     24  O3  <0> A   1     -29.331   1.502  54.057  0.00  0.00    -0.528 OA
ATOM     25  H25 <0> A   1     -28.387   1.298  54.018  0.00  0.00    +0.351 HD
ENDBRANCH  23  24
BRANCH  23  26
ATOM     26  C24 <0> A   1     -30.484   2.529  52.198  0.00  0.00    -0.102 C 
BRANCH  26  27
ATOM     27  C25 <0> A   1     -29.776   3.684  52.861  0.00  0.00    +0.491 C 
ATOM     28  O1  <0> A   1     -30.287   4.247  53.813  0.00  0.00    -0.681 OA
ATOM     29  O2  <0> A   1     -28.692   4.054  52.443  0.00  0.00    -0.713 OA
ENDBRANCH  26  27
ENDBRANCH  23  26
ENDBRANCH  22  23
ENDBRANCH  19  22
ENDBRANCH  18  19
ENDBRANCH   9  17
BRANCH   1  30
ATOM     30  C11 <0> A   1     -24.678  -6.581  49.835  0.00  0.00    +0.081 C 
BRANCH  30  36
ATOM     31  C1  <0> A   1     -24.396 -13.033  49.890  0.00  0.00    -0.002 A 
ATOM     32  C2  <0> A   1     -24.362 -12.559  51.200  0.00  0.00    -0.004 A 
ATOM     33  C3  <0> A   1     -24.409 -11.226  51.464  0.00  0.00    +0.017 A 
ATOM     34  C4  <0> A   1     -24.493 -10.308  50.401  0.00  0.00    -0.055 A 
ATOM     35  C5  <0> A   1     -24.543  -8.924  50.635  0.00  0.00    +0.015 A 
ATOM     36  C6  <0> A   1     -24.623  -8.065  49.581  0.00  0.00    -0.073 A 
ATOM     37  C7  <0> A   1     -24.657  -8.539  48.271  0.00  0.00    +0.066 A 
ATOM     38  C8  <0> A   1     -24.610  -9.874  48.007  0.00  0.00    +0.001 A 
ATOM     39  C9  <0> A   1     -24.526 -10.790  49.069  0.00  0.00    -0.047 A 
ATOM     40  C10 <0> A   1     -24.476 -12.175  48.836  0.00  0.00    +0.015 A 
ENDBRANCH  30  36
ENDBRANCH   1  30
TORSDOF 11
