REMARK VINA RESULT:      -7.4      2.468      3.030
REMARK  Name = CHEMBL333760
REMARK  13 active torsions:
REMARK  status: ('A' for Active; 'I' for Inactive)
REMARK    1  A    between atoms: C1_1  and  C2_2
REMARK    2  A    between atoms: C2_2  and  C3_3
REMARK    3  A    between atoms: C2_2  and  C4_4
REMARK    4  A    between atoms: C5_6  and  C20_29
REMARK    5  A    between atoms: C6_7  and  C14_22
REMARK    6  A    between atoms: N2_8  and  C7_9
REMARK    7  A    between atoms: C8_10  and  C9_11
REMARK    8  A    between atoms: C9_11  and  C10_13
REMARK    9  A    between atoms: C9_11  and  O4_21
REMARK   10  A    between atoms: C10_13  and  C11_14
REMARK   11  A    between atoms: C11_14  and  C12_16
REMARK   12  A    between atoms: C11_14  and  O3_20
REMARK   13  A    between atoms: C12_16  and  C13_17
REMARK                            x       y       z     vdW  Elec       q    Type
REMARK                         _______ _______ _______ _____ _____    ______ ____
ROOT
ATOM      1  C4  <0> A   1     -14.822   6.583  45.747  0.00  0.00    +0.236 C 
ATOM      2  N1  <0> A   1     -15.816   6.284  46.535  0.00  0.00    -0.465 NA
ATOM      3  C5  <0> A   1     -16.217   7.385  47.197  0.00  0.00    +0.059 C 
ATOM      4  C6  <0> A   1     -15.414   8.434  46.787  0.00  0.00    +0.030 C 
ATOM      5  N2  <0> A   1     -14.530   7.905  45.871  0.00  0.00    -0.400 N 
ENDROOT
BRANCH   4   6
ATOM      6  C14 <0> A   1     -15.485   9.836  47.242  0.00  0.00    -0.032 A 
ATOM      7  C15 <0> A   1     -16.452  10.696  46.715  0.00  0.00    +0.060 A 
ATOM      8  C16 <0> A   1     -16.514  12.005  47.144  0.00  0.00    -0.007 A 
ATOM      9  C17 <0> A   1     -15.617  12.468  48.095  0.00  0.00    +0.108 A 
ATOM     10  C18 <0> A   1     -14.655  11.621  48.619  0.00  0.00    -0.010 A 
ATOM     11  C19 <0> A   1     -14.588  10.307  48.204  0.00  0.00    +0.072 A 
ATOM     12  F1  <0> A   1     -15.681  13.752  48.510  0.00  0.00    -0.136 F 
ENDBRANCH   4   6
BRANCH   3  13
ATOM     13  C20 <0> A   1     -17.320   7.461  48.184  0.00  0.00    -0.009 A 
ATOM     14  C21 <0> A   1     -18.591   6.994  47.849  0.00  0.00    +0.057 A 
ATOM     15  C22 <0> A   1     -19.614   7.066  48.772  0.00  0.00    -0.015 A 
ATOM     16  C23 <0> A   1     -19.381   7.601  50.028  0.00  0.00    +0.097 A 
ATOM     17  C24 <0> A   1     -18.120   8.067  50.364  0.00  0.00    -0.017 A 
ATOM     18  C25 <0> A   1     -17.089   7.993  49.452  0.00  0.00    +0.073 A 
ATOM     19  F2  <0> A   1     -20.386   7.670  50.927  0.00  0.00    -0.141 F 
ENDBRANCH   3  13
BRANCH   1  21
ATOM     20  C1  <0> A   1     -14.186   4.205  45.440  0.00  0.00    +0.048 C 
ATOM     21  C2  <0> A   1     -14.102   5.613  44.845  0.00  0.00    +0.077 C 
ATOM     22  C3  <0> A   1     -14.756   5.623  43.462  0.00  0.00    +0.048 C 
ENDBRANCH   1  21
BRANCH   5  23
ATOM     23  C7  <0> A   1     -13.526   8.598  45.194  0.00  0.00    +0.181 C 
ATOM     24  C8  <0> A   1     -13.831   9.359  44.162  0.00  0.00    -0.029 C 
BRANCH  24  25
ATOM     25  C9  <0> A   1     -12.747  10.108  43.432  0.00  0.00    +0.265 C 
BRANCH  25  26
ATOM     26  O4  <0> A   1     -11.643  10.328  44.313  0.00  0.00    -0.536 OA
ATOM     27  H17 <0> A   1     -11.513  11.254  44.557  0.00  0.00    +0.367 HD
ENDBRANCH  25  26
BRANCH  25  28
ATOM     28  C10 <0> A   1     -12.281   9.286  42.227  0.00  0.00    -0.037 C 
BRANCH  28  29
ATOM     29  C11 <0> A   1     -12.253  10.175  40.983  0.00  0.00    +0.233 C 
BRANCH  29  30
ATOM     30  O3  <0> A   1     -12.489   9.376  39.821  0.00  0.00    -0.527 OA
ATOM     31  H16 <0> A   1     -13.331   8.900  39.836  0.00  0.00    +0.351 HD
ENDBRANCH  29  30
BRANCH  29  32
ATOM     32  C12 <0> A   1     -13.343  11.244  41.096  0.00  0.00    -0.101 C 
BRANCH  32  33
ATOM     33  C13 <0> A   1     -14.008  11.428  39.757  0.00  0.00    +0.491 C 
ATOM     34  O1  <0> A   1     -13.394  11.943  38.837  0.00  0.00    -0.681 OA
ATOM     35  O2  <0> A   1     -15.159  11.061  39.592  0.00  0.00    -0.712 OA
ENDBRANCH  32  33
ENDBRANCH  29  32
ENDBRANCH  28  29
ENDBRANCH  25  28
ENDBRANCH  24  25
ENDBRANCH   5  23
TORSDOF 11
