REMARK VINA RESULT:      -6.5     16.790     19.881
REMARK  Name = CHEMBL330995
REMARK  12 active torsions:
REMARK  status: ('A' for Active; 'I' for Inactive)
REMARK    1  A    between atoms: C3_3  and  C5_6
REMARK    2  A    between atoms: C6_7  and  C16_28
REMARK    3  A    between atoms: N1_8  and  C9_15
REMARK    4  A    between atoms: C7_9  and  C8_11
REMARK    5  A    between atoms: C9_15  and  C10_16
REMARK    6  A    between atoms: C10_16  and  C11_17
REMARK    7  A    between atoms: C11_17  and  C12_19
REMARK    8  A    between atoms: C11_17  and  O4_27
REMARK    9  A    between atoms: C12_19  and  C13_20
REMARK   10  A    between atoms: C13_20  and  C14_22
REMARK   11  A    between atoms: C13_20  and  O3_26
REMARK   12  A    between atoms: C14_22  and  C15_23
REMARK                            x       y       z     vdW  Elec       q    Type
REMARK                         _______ _______ _______ _____ _____    ______ ____
ROOT
ATOM      1  C5  <0> A   1     -27.417  -2.587  50.982  0.00  0.00    +0.099 C 
ATOM      2  C6  <0> A   1     -26.220  -3.184  51.345  0.00  0.00    +0.082 C 
ATOM      3  N1  <0> A   1     -26.439  -4.542  51.297  0.00  0.00    -0.412 N 
ATOM      4  C7  <0> A   1     -27.728  -4.730  50.918  0.00  0.00    +0.118 C 
ATOM      5  N2  <0> A   1     -28.302  -3.573  50.739  0.00  0.00    -0.410 NA
ENDROOT
BRANCH   2   6
ATOM      6  C16 <0> A   1     -24.963  -2.501  51.708  0.00  0.00    -0.047 A 
ATOM      7  C17 <0> A   1     -23.962  -2.318  50.752  0.00  0.00    +0.065 A 
ATOM      8  C18 <0> A   1     -22.791  -1.677  51.098  0.00  0.00    -0.005 A 
ATOM      9  C19 <0> A   1     -22.606  -1.217  52.392  0.00  0.00    +0.118 A 
ATOM     10  C20 <0> A   1     -23.595  -1.396  53.346  0.00  0.00    -0.003 A 
ATOM     11  C21 <0> A   1     -24.773  -2.028  53.010  0.00  0.00    +0.087 A 
ATOM     12  F4  <0> A   1     -21.455  -0.591  52.725  0.00  0.00    -0.134 F 
ENDBRANCH   2   6
BRANCH   1  15
ATOM     13  C1  <0> A   1     -27.480   1.110  50.177  0.00  0.00    -0.018 C 
ATOM     14  C2  <0> A   1     -27.066  -0.202  50.092  0.00  0.00    +0.007 C 
ATOM     15  C3  <0> A   1     -27.676  -1.137  50.887  0.00  0.00    -0.072 C 
ATOM     16  S1  <0> A   1     -28.863  -0.145  51.777  0.00  0.00    +0.074 S 
ATOM     17  C4  <0> A   1     -28.474   1.435  51.041  0.00  0.00    +0.009 C 
ENDBRANCH   1  15
BRANCH   4  18
ATOM     18  C8  <0> A   1     -28.396  -6.069  50.737  0.00  0.00    +0.566 C 
ATOM     19  F1  <0> A   1     -28.074  -6.900  51.815  0.00  0.00    -0.149 F 
ATOM     20  F2  <0> A   1     -29.783  -5.894  50.682  0.00  0.00    -0.164 F 
ATOM     21  F3  <0> A   1     -27.952  -6.655  49.547  0.00  0.00    -0.163 F 
ENDBRANCH   4  18
BRANCH   3  22
ATOM     22  C9  <0> A   1     -25.462  -5.591  51.601  0.00  0.00    +0.308 C 
BRANCH  22  23
ATOM     23  C10 <0> A   1     -24.659  -5.920  50.341  0.00  0.00    -0.008 C 
BRANCH  23  24
ATOM     24  C11 <0> A   1     -24.941  -7.362  49.918  0.00  0.00    +0.221 C 
BRANCH  24  25
ATOM     25  O4  <0> A   1     -24.851  -7.468  48.496  0.00  0.00    -0.540 OA
ATOM     26  H15 <0> A   1     -25.632  -7.142  48.027  0.00  0.00    +0.369 HD
ENDBRANCH  24  25
BRANCH  24  27
ATOM     27  C12 <0> A   1     -23.914  -8.293  50.565  0.00  0.00    -0.046 C 
BRANCH  27  28
ATOM     28  C13 <0> A   1     -24.486  -9.710  50.641  0.00  0.00    +0.232 C 
BRANCH  28  29
ATOM     29  O3  <0> A   1     -25.858  -9.692  50.243  0.00  0.00    -0.528 OA
ATOM     30  H14 <0> A   1     -26.472  -9.972  50.936  0.00  0.00    +0.351 HD
ENDBRANCH  28  29
BRANCH  28  31
ATOM     31  C14 <0> A   1     -23.696 -10.629  49.707  0.00  0.00    -0.102 C 
BRANCH  31  32
ATOM     32  C15 <0> A   1     -24.574 -11.049  48.555  0.00  0.00    +0.491 C 
ATOM     33  O1  <0> A   1     -25.135 -12.131  48.580  0.00  0.00    -0.681 OA
ATOM     34  O2  <0> A   1     -24.721 -10.307  47.599  0.00  0.00    -0.712 OA
ENDBRANCH  31  32
ENDBRANCH  28  31
ENDBRANCH  27  28
ENDBRANCH  24  27
ENDBRANCH  23  24
ENDBRANCH  22  23
ENDBRANCH   3  22
TORSDOF 12
