REMARK VINA RESULT:      -7.0     16.933     20.301
REMARK  Name = CHEMBL342975
REMARK  15 active torsions:
REMARK  status: ('A' for Active; 'I' for Inactive)
REMARK    1  A    between atoms: C1_1  and  C2_2
REMARK    2  A    between atoms: C5_5  and  C8_8
REMARK    3  A    between atoms: C11_11  and  C26_33
REMARK    4  A    between atoms: C12_12  and  O1_21
REMARK    5  A    between atoms: C13_13  and  C14_14
REMARK    6  A    between atoms: O1_21  and  C20_22
REMARK    7  A    between atoms: C20_22  and  C21_23
REMARK    8  A    between atoms: C21_23  and  C22_24
REMARK    9  A    between atoms: C21_23  and  O5_32
REMARK   10  A    between atoms: C22_24  and  C23_25
REMARK   11  A    between atoms: C23_25  and  C24_27
REMARK   12  A    between atoms: C23_25  and  O4_31
REMARK   13  A    between atoms: C24_27  and  C25_28
REMARK   14  A    between atoms: C26_33  and  C27_34
REMARK   15  A    between atoms: C26_33  and  C28_35
REMARK                            x       y       z     vdW  Elec       q    Type
REMARK                         _______ _______ _______ _____ _____    ______ ____
ROOT
ATOM      1  C8  <0> A   1     -27.694  -3.040  50.764  0.00  0.00    -0.027 A 
ATOM      2  C9  <0> A   1     -28.839  -3.726  50.367  0.00  0.00    +0.016 A 
ATOM      3  C10 <0> A   1     -28.822  -5.103  50.273  0.00  0.00    +0.029 A 
ATOM      4  C11 <0> A   1     -27.672  -5.812  50.571  0.00  0.00    -0.086 A 
ATOM      5  C12 <0> A   1     -26.523  -5.147  50.967  0.00  0.00    +0.116 A 
ATOM      6  C13 <0> A   1     -26.524  -3.754  51.062  0.00  0.00    -0.056 A 
ENDROOT
BRANCH   1  11
ATOM      7  C1  <0> A   1     -27.757   2.705  51.157  0.00  0.00    +0.086 C 
ATOM      8  C2  <0> A   1     -27.740   1.202  51.054  0.00  0.00    -0.083 A 
ATOM      9  C3  <0> A   1     -28.419   0.440  51.988  0.00  0.00    +0.001 A 
ATOM     10  C4  <0> A   1     -28.408  -0.938  51.899  0.00  0.00    +0.020 A 
ATOM     11  C5  <0> A   1     -27.710  -1.560  50.865  0.00  0.00    -0.048 A 
ATOM     12  C6  <0> A   1     -27.028  -0.787  49.927  0.00  0.00    +0.031 A 
ATOM     13  C7  <0> A   1     -27.051   0.589  50.023  0.00  0.00    +0.003 A 
ENDBRANCH   1  11
BRANCH   6  14
ATOM     14  C14 <0> A   1     -25.297  -3.034  51.480  0.00  0.00    -0.049 A 
ATOM     15  C15 <0> A   1     -25.222  -2.457  52.748  0.00  0.00    +0.069 A 
ATOM     16  C16 <0> A   1     -24.079  -1.788  53.132  0.00  0.00    -0.014 A 
ATOM     17  C17 <0> A   1     -23.005  -1.689  52.260  0.00  0.00    +0.104 A 
ATOM     18  C18 <0> A   1     -23.075  -2.262  51.000  0.00  0.00    -0.017 A 
ATOM     19  C19 <0> A   1     -24.212  -2.937  50.610  0.00  0.00    +0.055 A 
ATOM     20  F1  <0> A   1     -21.887  -1.034  52.641  0.00  0.00    -0.139 F 
ENDBRANCH   6  14
BRANCH   4  21
ATOM     21  C26 <0> A   1     -27.671  -7.315  50.464  0.00  0.00    +0.031 C 
ATOM     22  C27 <0> A   1     -28.596  -7.905  51.530  0.00  0.00    +0.029 C 
ATOM     23  C28 <0> A   1     -28.162  -7.730  49.076  0.00  0.00    +0.024 C 
ENDBRANCH   4  21
BRANCH   5  24
ATOM     24  O1  <0> A   1     -25.398  -5.849  51.259  0.00  0.00    -0.314 OA
BRANCH  24  25
ATOM     25  C20 <0> A   1     -24.693  -6.431  50.160  0.00  0.00    +0.150 C 
BRANCH  25  26
ATOM     26  C21 <0> A   1     -24.051  -7.747  50.604  0.00  0.00    +0.225 C 
BRANCH  26  27
ATOM     27  O5  <0> A   1     -24.688  -8.208  51.797  0.00  0.00    -0.531 OA
ATOM     28  H23 <0> A   1     -24.510  -7.663  52.575  0.00  0.00    +0.363 HD
ENDBRANCH  26  27
BRANCH  26  29
ATOM     29  C22 <0> A   1     -24.217  -8.793  49.501  0.00  0.00    -0.043 C 
BRANCH  29  30
ATOM     30  C23 <0> A   1     -24.464 -10.165  50.131  0.00  0.00    +0.235 C 
BRANCH  30  31
ATOM     31  O4  <0> A   1     -25.868 -10.432  50.155  0.00  0.00    -0.526 OA
ATOM     32  H22 <0> A   1     -26.369  -9.963  49.474  0.00  0.00    +0.350 HD
ENDBRANCH  30  31
BRANCH  30  33
ATOM     33  C24 <0> A   1     -23.753 -11.240  49.308  0.00  0.00    -0.101 C 
BRANCH  33  34
ATOM     34  C25 <0> A   1     -24.748 -12.292  48.889  0.00  0.00    +0.491 C 
ATOM     35  O2  <0> A   1     -24.995 -13.227  49.632  0.00  0.00    -0.680 OA
ATOM     36  O3  <0> A   1     -25.307 -12.207  47.809  0.00  0.00    -0.713 OA
ENDBRANCH  33  34
ENDBRANCH  30  33
ENDBRANCH  29  30
ENDBRANCH  26  29
ENDBRANCH  25  26
ENDBRANCH  24  25
ENDBRANCH   5  24
TORSDOF 12
