REMARK VINA RESULT:      -7.4      3.087      5.372
REMARK  Name = CHEMBL253054
REMARK  16 active torsions:
REMARK  status: ('A' for Active; 'I' for Inactive)
REMARK    1  A    between atoms: C1_1  and  C2_2
REMARK    2  A    between atoms: C2_2  and  C3_3
REMARK    3  A    between atoms: C2_2  and  C4_4
REMARK    4  A    between atoms: C5_5  and  S1_35
REMARK    5  A    between atoms: C6_6  and  C21_29
REMARK    6  A    between atoms: C7_7  and  C15_22
REMARK    7  A    between atoms: N1_8  and  C8_9
REMARK    8  A    between atoms: C8_9  and  C9_10
REMARK    9  A    between atoms: C9_10  and  C10_11
REMARK   10  A    between atoms: C10_11  and  C11_13
REMARK   11  A    between atoms: C10_11  and  O4_21
REMARK   12  A    between atoms: C11_13  and  C12_14
REMARK   13  A    between atoms: C12_14  and  C13_16
REMARK   14  A    between atoms: C12_14  and  O3_20
REMARK   15  A    between atoms: C13_16  and  C14_17
REMARK   16  A    between atoms: S1_35  and  N2_38
REMARK                            x       y       z     vdW  Elec       q    Type
REMARK                         _______ _______ _______ _____ _____    ______ ____
ROOT
ATOM      1  C4  <0> A   1     -12.840   9.914  46.810  0.00  0.00    +0.173 C 
ATOM      2  C5  <0> A   1     -13.660   9.895  47.879  0.00  0.00    -0.737 C 
ATOM      3  C6  <0> A   1     -14.451   8.724  47.793  0.00  0.00    -0.022 C 
ATOM      4  C7  <0> A   1     -14.063   8.063  46.638  0.00  0.00    +0.059 C 
ATOM      5  N1  <0> A   1     -13.080   8.810  46.046  0.00  0.00    -0.412 N 
ENDROOT
BRANCH   4   6
ATOM      6  C15 <0> A   1     -14.615   6.789  46.136  0.00  0.00    -0.027 A 
ATOM      7  C16 <0> A   1     -15.886   6.755  45.559  0.00  0.00    +0.045 A 
ATOM      8  C17 <0> A   1     -16.396   5.561  45.091  0.00  0.00    -0.008 A 
ATOM      9  C18 <0> A   1     -15.649   4.399  45.193  0.00  0.00    +0.105 A 
ATOM     10  C19 <0> A   1     -14.386   4.427  45.763  0.00  0.00    -0.008 A 
ATOM     11  C20 <0> A   1     -13.863   5.614  46.229  0.00  0.00    +0.074 A 
ATOM     12  F1  <0> A   1     -16.154   3.233  44.733  0.00  0.00    -0.137 F 
ENDBRANCH   4   6
BRANCH   3  13
ATOM     13  C21 <0> A   1     -15.492   8.288  48.752  0.00  0.00    -0.034 A 
ATOM     14  C22 <0> A   1     -16.789   8.791  48.653  0.00  0.00    +0.061 A 
ATOM     15  C23 <0> A   1     -17.755   8.382  49.549  0.00  0.00    -0.000 A 
ATOM     16  C24 <0> A   1     -17.439   7.475  50.545  0.00  0.00    +0.003 A 
ATOM     17  C25 <0> A   1     -16.154   6.973  50.648  0.00  0.00    -0.009 A 
ATOM     18  C26 <0> A   1     -15.181   7.370  49.754  0.00  0.00    +0.017 A 
ENDBRANCH   3  13
BRANCH   1  20
ATOM     19  C1  <0> A   1     -10.519  10.338  46.045  0.00  0.00    +0.040 C 
ATOM     20  C2  <0> A   1     -11.827  10.987  46.505  0.00  0.00    +0.059 C 
ATOM     21  C3  <0> A   1     -12.363  11.895  45.395  0.00  0.00    +0.039 C 
ENDBRANCH   1  20
BRANCH   2  22
ATOM     22  S1  <0> A   1     -13.735  11.108  49.154  0.00  0.00    +2.731 S 
ATOM     23  O5  <0> A   1     -14.143  12.321  48.537  0.00  0.00    -0.945 OA
ATOM     24  O6  <0> A   1     -14.452  10.521  50.230  0.00  0.00    -0.960 OA
BRANCH  22  25
ATOM     25  N2  <0> A   1     -12.187  11.349  49.692  0.00  0.00    -1.039 NA
ATOM     26  C27 <0> A   1     -11.277  12.497  49.821  0.00  0.00    +0.286 C 
ATOM     27  C28 <0> A   1     -10.105  11.514  49.688  0.00  0.00    +0.030 C 
ATOM     28  C29 <0> A   1     -11.120  10.509  50.259  0.00  0.00    +0.290 C 
ENDBRANCH  22  25
ENDBRANCH   2  22
BRANCH   5  29
ATOM     29  C8  <0> A   1     -12.392   8.475  44.795  0.00  0.00    +0.294 C 
BRANCH  29  30
ATOM     30  C9  <0> A   1     -13.377   8.574  43.629  0.00  0.00    -0.015 C 
BRANCH  30  31
ATOM     31  C10 <0> A   1     -13.061   7.486  42.601  0.00  0.00    +0.218 C 
BRANCH  31  32
ATOM     32  O4  <0> A   1     -14.256   6.767  42.286  0.00  0.00    -0.540 OA
ATOM     33  H19 <0> A   1     -14.308   5.892  42.697  0.00  0.00    +0.366 HD
ENDBRANCH  31  32
BRANCH  31  34
ATOM     34  C11 <0> A   1     -12.504   8.130  41.330  0.00  0.00    -0.047 C 
BRANCH  34  35
ATOM     35  C12 <0> A   1     -12.954   9.589  41.259  0.00  0.00    +0.232 C 
BRANCH  35  36
ATOM     36  O3  <0> A   1     -11.806  10.439  41.196  0.00  0.00    -0.528 OA
ATOM     37  H18 <0> A   1     -11.035  10.029  40.782  0.00  0.00    +0.350 HD
ENDBRANCH  35  36
BRANCH  35  38
ATOM     38  C13 <0> A   1     -13.811   9.799  40.009  0.00  0.00    -0.102 C 
BRANCH  38  39
ATOM     39  C14 <0> A   1     -13.944  11.274  39.731  0.00  0.00    +0.491 C 
ATOM     40  O1  <0> A   1     -14.635  11.971  40.455  0.00  0.00    -0.681 OA
ATOM     41  O2  <0> A   1     -13.362  11.770  38.781  0.00  0.00    -0.712 OA
ENDBRANCH  38  39
ENDBRANCH  35  38
ENDBRANCH  34  35
ENDBRANCH  31  34
ENDBRANCH  30  31
ENDBRANCH  29  30
ENDBRANCH   5  29
TORSDOF 14
