REMARK VINA RESULT:      -7.3      2.029      4.642
REMARK  Name = CHEMBL443275
REMARK  14 active torsions:
REMARK  status: ('A' for Active; 'I' for Inactive)
REMARK    1  A    between atoms: C1_1  and  C2_2
REMARK    2  A    between atoms: C4_4  and  C27_34
REMARK    3  A    between atoms: C5_5  and  O1_22
REMARK    4  A    between atoms: C6_6  and  C8_8
REMARK    5  A    between atoms: C8_8  and  C9_9
REMARK    6  A    between atoms: C8_8  and  C15_16
REMARK    7  A    between atoms: O1_22  and  C21_23
REMARK    8  A    between atoms: C21_23  and  C22_24
REMARK    9  A    between atoms: C22_24  and  C23_25
REMARK   10  A    between atoms: C22_24  and  O5_33
REMARK   11  A    between atoms: C23_25  and  C24_26
REMARK   12  A    between atoms: C24_26  and  C25_28
REMARK   13  A    between atoms: C24_26  and  O4_32
REMARK   14  A    between atoms: C25_28  and  C26_29
REMARK                            x       y       z     vdW  Elec       q    Type
REMARK                         _______ _______ _______ _____ _____    ______ ____
ROOT
ATOM      1  C1  <0> A   1     -10.784   5.882  49.280  0.00  0.00    +0.087 C 
ATOM      2  C2  <0> A   1     -11.017   6.610  47.981  0.00  0.00    -0.088 A 
ATOM      3  C3  <0> A   1     -10.006   6.683  47.040  0.00  0.00    +0.009 A 
ATOM      4  C4  <0> A   1     -10.216   7.349  45.849  0.00  0.00    -0.097 A 
ATOM      5  C5  <0> A   1     -11.443   7.946  45.596  0.00  0.00    +0.097 A 
ATOM      6  C6  <0> A   1     -12.456   7.872  46.543  0.00  0.00    -0.075 A 
ATOM      7  C7  <0> A   1     -12.242   7.199  47.731  0.00  0.00    +0.013 A 
ATOM      8  C27 <0> A   1      -9.115   7.429  44.824  0.00  0.00    +0.096 C 
ENDROOT
BRANCH   6   9
ATOM      9  C8  <0> A   1     -13.790   8.520  46.273  0.00  0.00    +0.091 C 
BRANCH   9  10
ATOM     10  C9  <0> A   1     -13.788   9.922  46.822  0.00  0.00    -0.071 A 
ATOM     11  C10 <0> A   1     -13.977  10.997  45.974  0.00  0.00    +0.042 A 
ATOM     12  C11 <0> A   1     -13.976  12.284  46.477  0.00  0.00    -0.021 A 
ATOM     13  C12 <0> A   1     -13.786  12.497  47.832  0.00  0.00    +0.091 A 
ATOM     14  C13 <0> A   1     -13.596  11.420  48.681  0.00  0.00    -0.014 A 
ATOM     15  C14 <0> A   1     -13.603  10.134  48.176  0.00  0.00    +0.056 A 
ATOM     16  F1  <0> A   1     -13.785  13.756  48.324  0.00  0.00    -0.143 F 
ENDBRANCH   9  10
BRANCH   9  17
ATOM     17  C15 <0> A   1     -14.897   7.708  46.949  0.00  0.00    +0.000 C 
ATOM     18  C16 <0> A   1     -15.232   6.487  46.090  0.00  0.00    +0.010 C 
ATOM     19  C17 <0> A   1     -16.338   5.676  46.765  0.00  0.00    +0.003 C 
ATOM     20  C18 <0> A   1     -17.587   6.547  46.922  0.00  0.00    +0.001 C 
ATOM     21  C19 <0> A   1     -17.252   7.769  47.781  0.00  0.00    +0.003 C 
ATOM     22  C20 <0> A   1     -16.144   8.580  47.105  0.00  0.00    +0.013 C 
ENDBRANCH   9  17
ENDBRANCH   6   9
BRANCH   5  23
ATOM     23  O1  <0> A   1     -11.653   8.603  44.426  0.00  0.00    -0.318 OA
BRANCH  23  24
ATOM     24  C21 <0> A   1     -12.474   7.952  43.455  0.00  0.00    +0.147 C 
BRANCH  24  25
ATOM     25  C22 <0> A   1     -11.636   7.616  42.220  0.00  0.00    +0.224 C 
BRANCH  25  26
ATOM     26  O5  <0> A   1     -11.362   6.213  42.198  0.00  0.00    -0.531 OA
ATOM     27  H31 <0> A   1     -11.310   5.837  41.308  0.00  0.00    +0.363 HD
ENDBRANCH  25  26
BRANCH  25  28
ATOM     28  C23 <0> A   1     -12.407   8.005  40.958  0.00  0.00    -0.043 C 
BRANCH  28  29
ATOM     29  C24 <0> A   1     -12.908   9.444  41.088  0.00  0.00    +0.234 C 
BRANCH  29  30
ATOM     30  O4  <0> A   1     -11.792  10.335  41.134  0.00  0.00    -0.527 OA
ATOM     31  H30 <0> A   1     -12.035  11.264  41.255  0.00  0.00    +0.350 HD
ENDBRANCH  29  30
BRANCH  29  32
ATOM     32  C25 <0> A   1     -13.788   9.790  39.887  0.00  0.00    -0.101 C 
BRANCH  32  33
ATOM     33  C26 <0> A   1     -13.749  11.277  39.645  0.00  0.00    +0.491 C 
ATOM     34  O2  <0> A   1     -14.497  12.014  40.265  0.00  0.00    -0.680 OA
ATOM     35  O3  <0> A   1     -12.972  11.743  38.830  0.00  0.00    -0.713 OA
ENDBRANCH  32  33
ENDBRANCH  29  32
ENDBRANCH  28  29
ENDBRANCH  25  28
ENDBRANCH  24  25
ENDBRANCH  23  24
ENDBRANCH   5  23
TORSDOF 12
