REMARK VINA RESULT:      -7.5     27.010     29.678
REMARK  Name = CHEMBL155642
REMARK  11 active torsions:
REMARK  status: ('A' for Active; 'I' for Inactive)
REMARK    1  A    between atoms: C1_1  and  C2_2
REMARK    2  A    between atoms: C2_2  and  C3_3
REMARK    3  A    between atoms: C2_2  and  C4_4
REMARK    4  A    between atoms: C5_5  and  C19_21
REMARK    5  A    between atoms: C6_6  and  C13_14
REMARK    6  A    between atoms: C8_8  and  C9_10
REMARK    7  A    between atoms: C9_10  and  C10_11
REMARK    8  A    between atoms: C9_10  and  C11_12
REMARK    9  A    between atoms: C9_10  and  C12_13
REMARK   10  A    between atoms: C20_22  and  C21_23
REMARK   11  A    between atoms: C23_25  and  O3_31
REMARK                            x       y       z     vdW  Elec       q    Type
REMARK                         _______ _______ _______ _____ _____    ______ ____
ROOT
ATOM      1  C4  <0> A   1      -3.000  10.702  53.273  0.00  0.00    +0.160 A 
ATOM      2  C5  <0> A   1      -1.972  10.044  52.598  0.00  0.00    -0.104 A 
ATOM      3  C6  <0> A   1      -0.671  10.084  53.140  0.00  0.00    +0.010 A 
ATOM      4  C7  <0> A   1      -0.479  10.785  54.334  0.00  0.00    -0.024 A 
ATOM      5  C8  <0> A   1      -1.557  11.405  54.931  0.00  0.00    +0.151 A 
ATOM      6  N1  <0> A   1      -2.761  11.352  54.392  0.00  0.00    -0.468 NA
ENDROOT
BRANCH   3   7
ATOM      7  C13 <0> A   1       0.457   9.403  52.465  0.00  0.00    -0.064 A 
ATOM      8  C14 <0> A   1       0.790   8.093  52.809  0.00  0.00    +0.074 A 
ATOM      9  C15 <0> A   1       1.842   7.463  52.177  0.00  0.00    -0.013 A 
ATOM     10  C16 <0> A   1       2.568   8.130  51.203  0.00  0.00    +0.108 A 
ATOM     11  C17 <0> A   1       2.241   9.431  50.858  0.00  0.00    -0.014 A 
ATOM     12  C18 <0> A   1       1.187  10.068  51.480  0.00  0.00    +0.060 A 
ATOM     13  F1  <0> A   1       3.598   7.509  50.588  0.00  0.00    -0.137 F 
ENDBRANCH   3   7
BRANCH   5  14
ATOM     14  C9  <0> A   1      -1.355  12.163  56.218  0.00  0.00    -0.019 C 
ATOM     15  C10 <0> A   1      -1.156  11.172  57.367  0.00  0.00    +0.041 C 
ATOM     16  C11 <0> A   1      -0.119  13.056  56.095  0.00  0.00    +0.046 C 
ATOM     17  C12 <0> A   1      -2.585  13.029  56.499  0.00  0.00    +0.039 C 
ENDBRANCH   5  14
BRANCH   1  19
ATOM     18  C1  <0> A   1      -5.186   9.533  53.361  0.00  0.00    +0.037 C 
ATOM     19  C2  <0> A   1      -4.399  10.673  52.711  0.00  0.00    +0.042 C 
ATOM     20  C3  <0> A   1      -5.093  12.005  53.004  0.00  0.00    +0.037 C 
ENDBRANCH   1  19
BRANCH   2  21
ATOM     21  C19 <0> A   1      -2.241   9.320  51.341  0.00  0.00    +0.049 C 
ATOM     22  C20 <0> A   1      -2.612   8.047  51.376  0.00  0.00    -0.014 C 
BRANCH  22  23
ATOM     23  C21 <0> A   1      -2.887   7.307  50.092  0.00  0.00    +0.242 C 
ATOM     24  C22 <0> A   1      -1.722   6.360  49.787  0.00  0.00    +0.050 C 
ATOM     25  C23 <0> A   1      -1.985   5.641  48.461  0.00  0.00    +0.186 C 
ATOM     26  C24 <0> A   1      -2.125   6.687  47.348  0.00  0.00    +0.024 C 
ATOM     27  C25 <0> A   1      -3.146   7.713  47.785  0.00  0.00    +0.498 C 
ATOM     28  O1  <0> A   1      -4.046   8.045  47.051  0.00  0.00    -0.450 OA
ATOM     29  O2  <0> A   1      -3.025   8.245  49.019  0.00  0.00    -0.369 OA
BRANCH  25  30
ATOM     30  O3  <0> A   1      -3.192   4.880  48.560  0.00  0.00    -0.564 OA
ATOM     31  H30 <0> A   1      -3.070   3.997  48.934  0.00  0.00    +0.387 HD
ENDBRANCH  25  30
ENDBRANCH  22  23
ENDBRANCH   2  21
TORSDOF 6
