REMARK VINA RESULT:      -7.9      8.436     13.338
REMARK  Name = CHEMBL1164546
REMARK  16 active torsions:
REMARK  status: ('A' for Active; 'I' for Inactive)
REMARK    1  A    between atoms: C1_1  and  C2_2
REMARK    2  A    between atoms: C2_2  and  C3_4
REMARK    3  A    between atoms: C2_2  and  O8_43
REMARK    4  A    between atoms: C3_4  and  C4_6
REMARK    5  A    between atoms: C3_4  and  N3_17
REMARK    6  A    between atoms: N1_8  and  C5_9
REMARK    7  A    between atoms: C5_9  and  C6_10
REMARK    8  A    between atoms: N2_12  and  C7_13
REMARK    9  A    between atoms: C7_13  and  C8_14
REMARK   10  A    between atoms: C9_18  and  C10_20
REMARK   11  A    between atoms: C14_26  and  C15_28
REMARK   12  A    between atoms: C15_28  and  C16_30
REMARK   13  A    between atoms: C15_28  and  N5_38
REMARK   14  A    between atoms: C16_30  and  C17_31
REMARK   15  A    between atoms: C23_39  and  C24_41
REMARK   16  A    between atoms: C24_41  and  N6_42
REMARK                            x       y       z     vdW  Elec       q    Type
REMARK                         _______ _______ _______ _____ _____    ______ ____
ROOT
ATOM      1  C10 <0> A   1      -2.405   5.086  52.230  0.00  0.00    +0.228 C 
ATOM      2  C11 <0> A   1      -3.486   5.177  53.326  0.00  0.00    +0.059 C 
ATOM      3  C12 <0> A   1      -2.795   6.025  54.426  0.00  0.00    +0.049 C 
ATOM      4  C13 <0> A   1      -1.954   7.011  53.577  0.00  0.00    +0.252 C 
ATOM      5  N4  <0> A   1      -1.480   6.211  52.428  0.00  0.00    -0.598 N 
ATOM      6  C14 <0> A   1      -0.385   6.469  51.686  0.00  0.00    +0.531 C 
ATOM      7  O6  <0> A   1      -0.094   5.738  50.763  0.00  0.00    -0.504 OA
ENDROOT
BRANCH   1   9
ATOM      8  N3  <0> A   1      -2.805   6.253  50.086  0.00  0.00    -0.711 N 
ATOM      9  C9  <0> A   1      -3.045   5.183  50.869  0.00  0.00    +0.510 C 
ATOM     10  O5  <0> A   1      -3.776   4.298  50.478  0.00  0.00    -0.511 OA
ATOM     11  H14 <0> A   1      -2.221   6.962  50.398  0.00  0.00    +0.411 HD
BRANCH   8  12
ATOM     12  C3  <0> A   1      -3.427   6.347  48.762  0.00  0.00    +0.221 C 
BRANCH  12  13
ATOM     13  C4  <0> A   1      -2.584   5.604  47.758  0.00  0.00    +0.521 C 
ATOM     14  O1  <0> A   1      -1.378   5.730  47.766  0.00  0.00    -0.537 OA
ATOM     15  N1  <0> A   1      -3.172   4.798  46.850  0.00  0.00    -0.702 N 
ATOM     16  H8  <0> A   1      -4.137   4.698  46.844  0.00  0.00    +0.412 HD
BRANCH  15  17
ATOM     17  C5  <0> A   1      -2.352   4.076  45.874  0.00  0.00    +0.304 C 
BRANCH  17  18
ATOM     18  C6  <0> A   1      -3.241   3.498  44.803  0.00  0.00    +0.497 C 
ATOM     19  O2  <0> A   1      -2.834   3.399  43.665  0.00  0.00    -0.561 OA
ATOM     20  N2  <0> A   1      -4.490   3.093  45.110  0.00  0.00    -0.688 N 
ATOM     21  H11 <0> A   1      -4.815   3.172  46.020  0.00  0.00    +0.412 HD
BRANCH  20  22
ATOM     22  C7  <0> A   1      -5.354   2.532  44.069  0.00  0.00    +0.187 C 
BRANCH  22  23
ATOM     23  C8  <0> A   1      -5.441   1.037  44.238  0.00  0.00    +0.489 C 
ATOM     24  O3  <0> A   1      -4.421   0.375  44.332  0.00  0.00    -0.690 OA
ATOM     25  O4  <0> A   1      -6.530   0.490  44.281  0.00  0.00    -0.684 OA
ENDBRANCH  22  23
ENDBRANCH  20  22
ENDBRANCH  17  18
ENDBRANCH  15  17
ENDBRANCH  12  13
BRANCH  12  27
ATOM     26  C1  <0> A   1      -2.506   8.641  49.133  0.00  0.00    +0.025 C 
ATOM     27  C2  <0> A   1      -3.532   7.818  48.351  0.00  0.00    +0.208 C 
BRANCH  27  28
ATOM     28  O8  <0> A   1      -3.273   7.940  46.951  0.00  0.00    -0.549 OA
ATOM     29  H32 <0> A   1      -2.571   8.569  46.734  0.00  0.00    +0.371 HD
ENDBRANCH  27  28
ENDBRANCH  12  27
ENDBRANCH   8  12
ENDBRANCH   1   9
BRANCH   6  30
ATOM     30  C15 <0> A   1       0.476   7.663  52.003  0.00  0.00    +0.266 C 
BRANCH  30  31
ATOM     31  N5  <0> A   1      -0.355   8.726  52.576  0.00  0.00    -0.695 N 
ATOM     32  C23 <0> A   1      -0.259   9.984  52.105  0.00  0.00    +0.496 C 
ATOM     33  O7  <0> A   1       0.515  10.238  51.206  0.00  0.00    -0.484 OA
ATOM     34  H27 <0> A   1      -0.974   8.522  53.296  0.00  0.00    +0.414 HD
BRANCH  32  35
ATOM     35  C24 <0> A   1      -1.114  11.076  52.694  0.00  0.00    +0.294 C 
BRANCH  35  36
ATOM     36  N6  <0> A   1      -0.272  11.984  53.485  0.00  0.00    -0.621 N 
ATOM     37  H30 <0> A   1      -0.141  12.847  52.980  0.00  0.00    +0.444 HD
ATOM     38  H31 <0> A   1      -0.720  12.176  54.368  0.00  0.00    +0.445 HD
ATOM     39  H33 <0> A   1       0.625  11.552  53.651  0.00  0.00    +0.441 HD
ENDBRANCH  35  36
ENDBRANCH  32  35
ENDBRANCH  30  31
BRANCH  30  40
ATOM     40  C16 <0> A   1       1.555   7.261  53.012  0.00  0.00    +0.110 C 
BRANCH  40  41
ATOM     41  C17 <0> A   1       2.916   7.447  52.392  0.00  0.00    -0.095 A 
ATOM     42  C18 <0> A   1       4.054   7.190  53.135  0.00  0.00    +0.053 A 
ATOM     43  C19 <0> A   1       5.303   7.360  52.568  0.00  0.00    -0.003 A 
ATOM     44  C20 <0> A   1       5.414   7.788  51.256  0.00  0.00    +0.103 A 
ATOM     45  C21 <0> A   1       4.275   8.045  50.513  0.00  0.00    -0.018 A 
ATOM     46  C22 <0> A   1       3.027   7.869  51.081  0.00  0.00    +0.031 A 
ATOM     47  F1  <0> A   1       6.634   7.955  50.701  0.00  0.00    -0.135 F 
ENDBRANCH  40  41
ENDBRANCH  30  40
ENDBRANCH   6  30
TORSDOF 15
