REMARK VINA RESULT:      -8.7      1.663      2.473
REMARK  Name = CHEMBL352790
REMARK  9 active torsions:
REMARK  status: ('A' for Active; 'I' for Inactive)
REMARK    1  A    between atoms: C1_1  and  C2_2
REMARK    2  A    between atoms: C4_5  and  O4_28
REMARK    3  A    between atoms: C6_8  and  C13_17
REMARK    4  A    between atoms: C7_10  and  C12_16
REMARK    5  A    between atoms: C13_17  and  C14_18
REMARK    6  A    between atoms: C14_18  and  C15_19
REMARK    7  A    between atoms: C17_21  and  O3_27
REMARK    8  A    between atoms: O4_28  and  C20_29
REMARK    9  A    between atoms: C20_29  and  C21_31
REMARK                            x       y       z     vdW  Elec       q    Type
REMARK                         _______ _______ _______ _____ _____    ______ ____
ROOT
ATOM      1  C1  <0> A   1      -0.120   2.726  44.580  0.00  0.00    +0.033 C 
ATOM      2  C2  <0> A   1      -1.509   3.335  44.383  0.00  0.00    +0.026 C 
ATOM      3  C3  <0> A   1      -1.972   4.006  45.684  0.00  0.00    +0.019 C 
ATOM      4  C4  <0> A   1      -3.348   4.624  45.443  0.00  0.00    +0.179 C 
ATOM      5  C5  <0> A   1      -4.363   3.591  45.014  0.00  0.00    +0.043 C 
ATOM      6  C6  <0> A   1      -5.241   3.133  46.180  0.00  0.00    +0.013 C 
ATOM      7  C7  <0> A   1      -6.381   2.276  45.628  0.00  0.00    +0.022 C 
ATOM      8  C8  <0> A   1      -5.875   1.206  44.709  0.00  0.00    -0.032 C 
ATOM      9  C9  <0> A   1      -4.693   1.236  44.118  0.00  0.00    -0.006 C 
ATOM     10  C10 <0> A   1      -3.776   2.373  44.364  0.00  0.00    -0.086 C 
ATOM     11  C11 <0> A   1      -2.500   2.250  44.047  0.00  0.00    -0.021 C 
ATOM     12  C12 <0> A   1      -7.353   3.173  44.859  0.00  0.00    +0.029 C 
ENDROOT
BRANCH   6  13
ATOM     13  C13 <0> A   1      -5.815   4.354  46.901  0.00  0.00    +0.056 C 
BRANCH  13  14
ATOM     14  C14 <0> A   1      -6.211   3.966  48.327  0.00  0.00    +0.039 C 
BRANCH  14  15
ATOM     15  C15 <0> A   1      -7.732   4.044  48.474  0.00  0.00    +0.192 C 
ATOM     16  C16 <0> A   1      -8.279   5.137  47.552  0.00  0.00    +0.039 C 
ATOM     17  C17 <0> A   1      -9.796   5.240  47.733  0.00  0.00    +0.183 C 
ATOM     18  C18 <0> A   1     -10.100   5.579  49.198  0.00  0.00    +0.018 C 
ATOM     19  C19 <0> A   1      -9.373   4.585  50.075  0.00  0.00    +0.495 C 
ATOM     20  O1  <0> A   1      -9.945   4.010  50.971  0.00  0.00    -0.452 OA
ATOM     21  O2  <0> A   1      -8.065   4.359  49.831  0.00  0.00    -0.365 OA
BRANCH  17  22
ATOM     22  O3  <0> A   1     -10.406   3.993  47.392  0.00  0.00    -0.562 OA
ATOM     23  H27 <0> A   1     -10.515   3.855  46.441  0.00  0.00    +0.386 HD
ENDBRANCH  17  22
ENDBRANCH  14  15
ENDBRANCH  13  14
ENDBRANCH   6  13
BRANCH   4  24
ATOM     24  O4  <0> A   1      -3.798   5.242  46.651  0.00  0.00    -0.316 OA
BRANCH  24  25
ATOM     25  C20 <0> A   1      -3.433   6.522  46.855  0.00  0.00    +0.498 C 
ATOM     26  O5  <0> A   1      -3.579   7.343  45.972  0.00  0.00    -0.498 OA
BRANCH  25  27
ATOM     27  C21 <0> A   1      -2.858   6.927  48.153  0.00  0.00    -0.137 A 
ATOM     28  C22 <0> A   1      -2.611   8.277  48.419  0.00  0.00    +0.105 A 
ATOM     29  C23 <0> A   1      -2.074   8.650  49.632  0.00  0.00    -0.014 A 
ATOM     30  C24 <0> A   1      -1.781   7.691  50.589  0.00  0.00    +0.137 A 
ATOM     31  C25 <0> A   1      -2.025   6.350  50.330  0.00  0.00    -0.017 A 
ATOM     32  C26 <0> A   1      -2.566   5.966  49.123  0.00  0.00    +0.124 A 
ATOM     33  F1  <0> A   1      -1.255   8.062  51.776  0.00  0.00    -0.131 F 
ENDBRANCH  25  27
ENDBRANCH  24  25
ENDBRANCH   4  24
TORSDOF 7
