REMARK VINA RESULT:      -7.9      3.431      5.871
REMARK  Name = CHEMBL155642
REMARK  11 active torsions:
REMARK  status: ('A' for Active; 'I' for Inactive)
REMARK    1  A    between atoms: C1_1  and  C2_2
REMARK    2  A    between atoms: C2_2  and  C3_3
REMARK    3  A    between atoms: C2_2  and  C4_4
REMARK    4  A    between atoms: C5_5  and  C19_21
REMARK    5  A    between atoms: C6_6  and  C13_14
REMARK    6  A    between atoms: C8_8  and  C9_10
REMARK    7  A    between atoms: C9_10  and  C10_11
REMARK    8  A    between atoms: C9_10  and  C11_12
REMARK    9  A    between atoms: C9_10  and  C12_13
REMARK   10  A    between atoms: C20_22  and  C21_23
REMARK   11  A    between atoms: C23_25  and  O3_31
REMARK                            x       y       z     vdW  Elec       q    Type
REMARK                         _______ _______ _______ _____ _____    ______ ____
ROOT
ATOM      1  C4  <0> A   1     -25.475  -1.072  51.554  0.00  0.00    +0.160 A 
ATOM      2  C5  <0> A   1     -26.195  -2.122  50.983  0.00  0.00    -0.104 A 
ATOM      3  C6  <0> A   1     -27.585  -1.970  50.801  0.00  0.00    +0.010 A 
ATOM      4  C7  <0> A   1     -28.173  -0.769  51.205  0.00  0.00    -0.024 A 
ATOM      5  C8  <0> A   1     -27.380   0.215  51.760  0.00  0.00    +0.151 A 
ATOM      6  N1  <0> A   1     -26.082   0.037  51.920  0.00  0.00    -0.468 NA
ENDROOT
BRANCH   3   7
ATOM      7  C13 <0> A   1     -28.397  -3.053  50.200  0.00  0.00    -0.064 A 
ATOM      8  C14 <0> A   1     -29.359  -3.713  50.963  0.00  0.00    +0.074 A 
ATOM      9  C15 <0> A   1     -30.113  -4.720  50.398  0.00  0.00    -0.013 A 
ATOM     10  C16 <0> A   1     -29.915  -5.077  49.074  0.00  0.00    +0.108 A 
ATOM     11  C17 <0> A   1     -28.960  -4.425  48.311  0.00  0.00    -0.014 A 
ATOM     12  C18 <0> A   1     -28.205  -3.411  48.865  0.00  0.00    +0.060 A 
ATOM     13  F1  <0> A   1     -30.654  -6.066  48.525  0.00  0.00    -0.137 F 
ENDBRANCH   3   7
BRANCH   5  14
ATOM     14  C9  <0> A   1     -28.009   1.513  52.197  0.00  0.00    -0.019 C 
ATOM     15  C10 <0> A   1     -29.267   1.774  51.368  0.00  0.00    +0.041 C 
ATOM     16  C11 <0> A   1     -28.384   1.424  53.678  0.00  0.00    +0.046 C 
ATOM     17  C12 <0> A   1     -27.014   2.657  51.990  0.00  0.00    +0.039 C 
ENDBRANCH   5  14
BRANCH   1  19
ATOM     18  C1  <0> A   1     -23.294   0.092  51.359  0.00  0.00    +0.037 C 
ATOM     19  C2  <0> A   1     -23.988  -1.212  51.757  0.00  0.00    +0.042 C 
ATOM     20  C3  <0> A   1     -23.702  -1.514  53.230  0.00  0.00    +0.037 C 
ENDBRANCH   1  19
BRANCH   2  21
ATOM     21  C19 <0> A   1     -25.515  -3.367  50.576  0.00  0.00    +0.049 C 
ATOM     22  C20 <0> A   1     -25.501  -4.411  51.394  0.00  0.00    -0.014 C 
BRANCH  22  23
ATOM     23  C21 <0> A   1     -24.806  -5.683  50.979  0.00  0.00    +0.242 C 
ATOM     24  C22 <0> A   1     -25.654  -6.412  49.932  0.00  0.00    +0.050 C 
ATOM     25  C23 <0> A   1     -24.966  -7.724  49.545  0.00  0.00    +0.186 C 
ATOM     26  C24 <0> A   1     -24.808  -8.592  50.800  0.00  0.00    +0.024 C 
ATOM     27  C25 <0> A   1     -24.142  -7.760  51.872  0.00  0.00    +0.498 C 
ATOM     28  O1  <0> A   1     -23.193  -8.184  52.488  0.00  0.00    -0.450 OA
ATOM     29  O2  <0> A   1     -24.636  -6.530  52.121  0.00  0.00    -0.369 OA
BRANCH  25  30
ATOM     30  O3  <0> A   1     -23.679  -7.443  48.989  0.00  0.00    -0.564 OA
ATOM     31  H30 <0> A   1     -23.465  -6.502  48.949  0.00  0.00    +0.387 HD
ENDBRANCH  25  30
ENDBRANCH  22  23
ENDBRANCH   2  21
TORSDOF 6
