REMARK VINA RESULT:      -7.4      1.872      4.206
REMARK  Name = CHEMBL398551
REMARK  19 active torsions:
REMARK  status: ('A' for Active; 'I' for Inactive)
REMARK    1  A    between atoms: C1_1  and  C2_2
REMARK    2  A    between atoms: C4_4  and  C6_8
REMARK    3  A    between atoms: N2_6  and  C5_7
REMARK    4  A    between atoms: C6_8  and  N3_9
REMARK    5  A    between atoms: C7_10  and  C8_12
REMARK    6  A    between atoms: C9_13  and  C28_40
REMARK    7  A    between atoms: C10_14  and  C22_33
REMARK    8  A    between atoms: C11_15  and  C15_20
REMARK    9  A    between atoms: N4_16  and  C12_17
REMARK   10  A    between atoms: C12_17  and  C13_18
REMARK   11  A    between atoms: C12_17  and  C14_19
REMARK   12  A    between atoms: C15_20  and  C16_21
REMARK   13  A    between atoms: C16_21  and  C17_22
REMARK   14  A    between atoms: C17_22  and  C18_24
REMARK   15  A    between atoms: C17_22  and  O5_32
REMARK   16  A    between atoms: C18_24  and  C19_25
REMARK   17  A    between atoms: C19_25  and  C20_27
REMARK   18  A    between atoms: C19_25  and  O4_31
REMARK   19  A    between atoms: C20_27  and  C21_28
REMARK                            x       y       z     vdW  Elec       q    Type
REMARK                         _______ _______ _______ _____ _____    ______ ____
ROOT
ATOM      1  C8  <0> A   1     -15.725   7.989  47.585  0.00  0.00    -0.029 C 
ATOM      2  C9  <0> A   1     -15.089   7.439  46.479  0.00  0.00    -0.059 C 
ATOM      3  C10 <0> A   1     -14.122   8.386  46.053  0.00  0.00    -0.123 C 
ATOM      4  C11 <0> A   1     -14.200   9.456  46.894  0.00  0.00    +0.072 C 
ATOM      5  N4  <0> A   1     -15.166   9.225  47.815  0.00  0.00    -0.403 N 
ENDROOT
BRANCH   3   6
ATOM      6  C22 <0> A   1     -13.197   8.238  44.903  0.00  0.00    -0.009 A 
ATOM      7  C23 <0> A   1     -13.701   8.158  43.606  0.00  0.00    +0.053 A 
ATOM      8  C24 <0> A   1     -12.836   8.021  42.540  0.00  0.00    -0.013 A 
ATOM      9  C25 <0> A   1     -11.468   7.964  42.756  0.00  0.00    +0.094 A 
ATOM     10  C26 <0> A   1     -10.963   8.045  44.044  0.00  0.00    -0.020 A 
ATOM     11  C27 <0> A   1     -11.820   8.187  45.116  0.00  0.00    +0.054 A 
ATOM     12  F1  <0> A   1     -10.626   7.829  41.709  0.00  0.00    -0.142 F 
ENDBRANCH   3   6
BRANCH   2  13
ATOM     13  C28 <0> A   1     -15.367   6.121  45.864  0.00  0.00    -0.009 A 
ATOM     14  C29 <0> A   1     -16.440   5.971  44.986  0.00  0.00    +0.027 A 
ATOM     15  C30 <0> A   1     -16.694   4.741  44.415  0.00  0.00    +0.003 A 
ATOM     16  C31 <0> A   1     -15.887   3.658  44.712  0.00  0.00    -0.003 A 
ATOM     17  C32 <0> A   1     -14.821   3.800  45.581  0.00  0.00    -0.001 A 
ATOM     18  C33 <0> A   1     -14.553   5.026  46.154  0.00  0.00    +0.009 A 
ENDBRANCH   2  13
BRANCH   1  20
ATOM     19  N3  <0> A   1     -18.085   7.666  48.092  0.00  0.00    -0.715 N 
ATOM     20  C7  <0> A   1     -16.799   7.368  48.363  0.00  0.00    +0.605 C 
ATOM     21  O1  <0> A   1     -16.531   6.582  49.251  0.00  0.00    -0.517 OA
ATOM     22  H12 <0> A   1     -18.297   8.344  47.431  0.00  0.00    +0.404 HD
BRANCH  19  23
ATOM     23  C6  <0> A   1     -19.163   6.968  48.797  0.00  0.00    +0.381 C 
BRANCH  23  27
ATOM     24  C1  <0> A   1     -19.724   9.959  52.881  0.00  0.00    +0.146 C 
ATOM     25  C2  <0> A   1     -19.999   9.193  51.613  0.00  0.00    +0.083 C 
ATOM     26  C3  <0> A   1     -19.117   8.416  50.942  0.00  0.00    -0.107 C 
ATOM     27  C4  <0> A   1     -19.771   7.889  49.824  0.00  0.00    +0.055 C 
ATOM     28  N1  <0> A   1     -21.002   8.332  49.824  0.00  0.00    -0.276 NA
ATOM     29  N2  <0> A   1     -21.172   9.153  50.946  0.00  0.00    -0.368 N 
ATOM     30  C5  <0> A   1     -22.404   9.848  51.327  0.00  0.00    +0.354 C 
ENDBRANCH  23  27
ENDBRANCH  19  23
ENDBRANCH   1  20
BRANCH   5  31
ATOM     31  C12 <0> A   1     -15.552  10.145  48.888  0.00  0.00    +0.229 C 
ATOM     32  C13 <0> A   1     -14.296  10.749  49.520  0.00  0.00    +0.042 C 
ATOM     33  C14 <0> A   1     -16.422  11.264  48.312  0.00  0.00    +0.046 C 
ENDBRANCH   5  31
BRANCH   4  34
ATOM     34  C15 <0> A   1     -13.350  10.697  46.809  0.00  0.00    +0.118 C 
BRANCH  34  35
ATOM     35  C16 <0> A   1     -14.098  11.773  46.018  0.00  0.00    -0.009 C 
BRANCH  35  36
ATOM     36  C17 <0> A   1     -13.374  12.029  44.694  0.00  0.00    +0.212 C 
BRANCH  36  37
ATOM     37  O5  <0> A   1     -12.044  11.509  44.771  0.00  0.00    -0.542 OA
ATOM     38  H29 <0> A   1     -11.434  11.895  44.128  0.00  0.00    +0.363 HD
ENDBRANCH  36  37
BRANCH  36  39
ATOM     39  C18 <0> A   1     -14.128  11.336  43.559  0.00  0.00    -0.051 C 
BRANCH  39  40
ATOM     40  C19 <0> A   1     -13.607  11.848  42.214  0.00  0.00    +0.230 C 
BRANCH  40  41
ATOM     41  O4  <0> A   1     -12.345  11.241  41.930  0.00  0.00    -0.528 OA
ATOM     42  H28 <0> A   1     -12.299  10.816  41.063  0.00  0.00    +0.349 HD
ENDBRANCH  40  41
BRANCH  40  43
ATOM     43  C20 <0> A   1     -14.605  11.488  41.111  0.00  0.00    -0.103 C 
BRANCH  43  44
ATOM     44  C21 <0> A   1     -13.855  11.068  39.873  0.00  0.00    +0.490 C 
ATOM     45  O2  <0> A   1     -13.548   9.898  39.714  0.00  0.00    -0.681 OA
ATOM     46  O3  <0> A   1     -13.554  11.897  39.031  0.00  0.00    -0.713 OA
ENDBRANCH  43  44
ENDBRANCH  40  43
ENDBRANCH  39  40
ENDBRANCH  36  39
ENDBRANCH  35  36
ENDBRANCH  34  35
ENDBRANCH   4  34
TORSDOF 15
