REMARK VINA RESULT:      -7.4      1.238      1.661
REMARK  Name = CHEMBL312626
REMARK  9 active torsions:
REMARK  status: ('A' for Active; 'I' for Inactive)
REMARK    1  A    between atoms: C1_1  and  C2_2
REMARK    2  A    between atoms: C4_5  and  O4_29
REMARK    3  A    between atoms: C6_9  and  C13_18
REMARK    4  A    between atoms: C7_11  and  C12_17
REMARK    5  A    between atoms: C13_18  and  C14_19
REMARK    6  A    between atoms: C14_19  and  C15_20
REMARK    7  A    between atoms: C17_22  and  O3_28
REMARK    8  A    between atoms: O4_29  and  C20_30
REMARK    9  A    between atoms: C20_30  and  C21_31
REMARK                            x       y       z     vdW  Elec       q    Type
REMARK                         _______ _______ _______ _____ _____    ______ ____
ROOT
ATOM      1  C1  <0> A   1     -29.197   0.485  51.725  0.00  0.00    +0.028 C 
ATOM      2  C2  <0> A   1     -28.023  -0.138  50.965  0.00  0.00    +0.020 C 
ATOM      3  C3  <0> A   1     -28.173  -1.665  50.936  0.00  0.00    +0.009 C 
ATOM      4  C4  <0> A   1     -27.002  -2.250  50.150  0.00  0.00    +0.153 C 
ATOM      5  C5  <0> A   1     -25.671  -1.879  50.762  0.00  0.00    +0.039 C 
ATOM      6  C6  <0> A   1     -25.104  -3.009  51.625  0.00  0.00    +0.012 C 
ATOM      7  C7  <0> A   1     -23.667  -2.657  52.013  0.00  0.00    +0.017 C 
ATOM      8  C8  <0> A   1     -23.571  -1.270  52.574  0.00  0.00    -0.033 C 
ATOM      9  C9  <0> A   1     -24.479  -0.329  52.385  0.00  0.00    -0.011 C 
ATOM     10  C10 <0> A   1     -25.697  -0.640  51.606  0.00  0.00    -0.085 C 
ATOM     11  C11 <0> A   1     -26.730   0.184  51.669  0.00  0.00    -0.032 C 
ATOM     12  C12 <0> A   1     -22.777  -2.754  50.773  0.00  0.00    +0.028 C 
ENDROOT
BRANCH   6  13
ATOM     13  C13 <0> A   1     -25.118  -4.317  50.831  0.00  0.00    +0.074 C 
BRANCH  13  14
ATOM     14  C14 <0> A   1     -24.885  -5.493  51.782  0.00  0.00    +0.030 C 
BRANCH  14  15
ATOM     15  C15 <0> A   1     -24.383  -6.699  50.988  0.00  0.00    +0.198 C 
ATOM     16  C16 <0> A   1     -25.086  -6.746  49.628  0.00  0.00    +0.034 C 
ATOM     17  C17 <0> A   1     -24.611  -7.979  48.853  0.00  0.00    +0.181 C 
ATOM     18  C18 <0> A   1     -24.944  -9.236  49.667  0.00  0.00    +0.014 C 
ATOM     19  C19 <0> A   1     -24.396  -9.054  51.066  0.00  0.00    +0.497 C 
ATOM     20  O1  <0> A   1     -23.732  -9.916  51.590  0.00  0.00    -0.454 OA
ATOM     21  O2  <0> A   1     -24.670  -7.901  51.711  0.00  0.00    -0.363 OA
BRANCH  17  22
ATOM     22  O3  <0> A   1     -23.199  -7.899  48.646  0.00  0.00    -0.558 OA
ATOM     23  H27 <0> A   1     -22.675  -8.079  49.439  0.00  0.00    +0.384 HD
ENDBRANCH  17  22
ENDBRANCH  14  15
ENDBRANCH  13  14
ENDBRANCH   6  13
BRANCH   4  24
ATOM     24  O4  <0> A   1     -27.121  -3.673  50.127  0.00  0.00    -0.345 OA
BRANCH  24  25
ATOM     25  C20 <0> A   1     -28.470  -4.143  50.084  0.00  0.00    +0.206 C 
BRANCH  25  26
ATOM     26  C21 <0> A   1     -28.487  -5.639  50.256  0.00  0.00    -0.101 A 
ATOM     27  C22 <0> A   1     -28.410  -6.190  51.522  0.00  0.00    +0.070 A 
ATOM     28  C23 <0> A   1     -28.427  -7.563  51.682  0.00  0.00    -0.015 A 
ATOM     29  C24 <0> A   1     -28.520  -8.387  50.573  0.00  0.00    +0.108 A 
ATOM     30  C25 <0> A   1     -28.598  -7.835  49.306  0.00  0.00    -0.025 A 
ATOM     31  C26 <0> A   1     -28.586  -6.462  49.149  0.00  0.00    +0.059 A 
ATOM     32  F1  <0> A   1     -28.537  -9.729  50.728  0.00  0.00    -0.140 F 
ENDBRANCH  25  26
ENDBRANCH  24  25
ENDBRANCH   4  24
TORSDOF 7
