REMARK VINA RESULT:      -7.8     10.031     12.007
REMARK  Name = CHEMBL346446
REMARK  10 active torsions:
REMARK  status: ('A' for Active; 'I' for Inactive)
REMARK    1  A    between atoms: C1_1  and  C2_2
REMARK    2  A    between atoms: C2_2  and  C3_3
REMARK    3  A    between atoms: C2_2  and  C4_4
REMARK    4  A    between atoms: C5_5  and  C17_20
REMARK    5  A    between atoms: C6_6  and  C11_13
REMARK    6  A    between atoms: C7_8  and  C8_10
REMARK    7  A    between atoms: C8_10  and  C9_11
REMARK    8  A    between atoms: C8_10  and  C10_12
REMARK    9  A    between atoms: C18_21  and  C19_22
REMARK   10  A    between atoms: C21_24  and  O3_30
REMARK                            x       y       z     vdW  Elec       q    Type
REMARK                         _______ _______ _______ _____ _____    ______ ____
ROOT
ATOM      1  C4  <0> A   1     -15.153   6.444  46.051  0.00  0.00    +0.204 A 
ATOM      2  C5  <0> A   1     -14.456   7.649  45.935  0.00  0.00    -0.160 A 
ATOM      3  C6  <0> A   1     -14.592   8.595  46.972  0.00  0.00    +0.230 A 
ATOM      4  N1  <0> A   1     -15.373   8.299  48.008  0.00  0.00    -0.505 NA
ATOM      5  C7  <0> A   1     -16.008   7.148  48.068  0.00  0.00    +0.334 A 
ATOM      6  N2  <0> A   1     -15.910   6.240  47.115  0.00  0.00    -0.511 NA
ENDROOT
BRANCH   3   7
ATOM      7  C11 <0> A   1     -13.879   9.892  46.908  0.00  0.00    -0.072 A 
ATOM      8  C12 <0> A   1     -14.508  11.010  46.362  0.00  0.00    +0.086 A 
ATOM      9  C13 <0> A   1     -13.840  12.215  46.304  0.00  0.00    -0.018 A 
ATOM     10  C14 <0> A   1     -12.545  12.316  46.789  0.00  0.00    +0.120 A 
ATOM     11  C15 <0> A   1     -11.916  11.207  47.332  0.00  0.00    -0.019 A 
ATOM     12  C16 <0> A   1     -12.577   9.999  47.400  0.00  0.00    +0.096 A 
ATOM     13  F1  <0> A   1     -11.894  13.498  46.730  0.00  0.00    -0.135 F 
ENDBRANCH   3   7
BRANCH   1  15
ATOM     14  C1  <0> A   1     -14.465   4.110  45.571  0.00  0.00    +0.044 C 
ATOM     15  C2  <0> A   1     -15.047   5.393  44.975  0.00  0.00    +0.045 C 
ATOM     16  C3  <0> A   1     -16.438   5.105  44.405  0.00  0.00    +0.045 C 
ENDBRANCH   1  15
BRANCH   5  17
ATOM     17  C8  <0> A   1     -16.881   6.859  49.261  0.00  0.00    +0.070 C 
ATOM     18  C9  <0> A   1     -17.790   8.060  49.530  0.00  0.00    +0.045 C 
ATOM     19  C10 <0> A   1     -17.737   5.623  48.979  0.00  0.00    +0.045 C 
ENDBRANCH   5  17
BRANCH   2  20
ATOM     20  C17 <0> A   1     -13.602   7.924  44.762  0.00  0.00    +0.052 C 
ATOM     21  C18 <0> A   1     -14.118   8.505  43.687  0.00  0.00    -0.007 C 
BRANCH  21  22
ATOM     22  C19 <0> A   1     -13.247   8.787  42.490  0.00  0.00    +0.244 C 
ATOM     23  C20 <0> A   1     -13.713  10.076  41.811  0.00  0.00    +0.051 C 
ATOM     24  C21 <0> A   1     -12.851  10.337  40.570  0.00  0.00    +0.186 C 
ATOM     25  C22 <0> A   1     -12.992   9.149  39.610  0.00  0.00    +0.024 C 
ATOM     26  C23 <0> A   1     -12.713   7.878  40.383  0.00  0.00    +0.498 C 
ATOM     27  O1  <0> A   1     -11.947   7.046  39.956  0.00  0.00    -0.449 OA
ATOM     28  O2  <0> A   1     -13.344   7.700  41.563  0.00  0.00    -0.370 OA
BRANCH  24  29
ATOM     29  O3  <0> A   1     -11.484  10.482  40.960  0.00  0.00    -0.563 OA
ATOM     30  H27 <0> A   1     -10.906  10.800  40.253  0.00  0.00    +0.388 HD
ENDBRANCH  24  29
ENDBRANCH  21  22
ENDBRANCH   2  20
TORSDOF 6
