REMARK VINA RESULT:      -6.9      3.544      5.457
REMARK  Name = CHEMBL296765
REMARK  6 active torsions:
REMARK  status: ('A' for Active; 'I' for Inactive)
REMARK    1  A    between atoms: C2_2  and  C3_3
REMARK    2  A    between atoms: C3_3  and  O1_4
REMARK    3  A    between atoms: O1_4  and  C4_5
REMARK    4  A    between atoms: C9_10  and  C10_11
REMARK    5  A    between atoms: C11_12  and  C12_13
REMARK    6  A    between atoms: C14_15  and  O4_21
REMARK                            x       y       z     vdW  Elec       q    Type
REMARK                         _______ _______ _______ _____ _____    ______ ____
ROOT
ATOM      1  C4  <0> A   1      -4.109   4.139  45.887  0.00  0.00    +0.170 A 
ATOM      2  C5  <0> A   1      -2.876   3.728  45.408  0.00  0.00    -0.052 A 
ATOM      3  C6  <0> A   1      -2.794   2.658  44.535  0.00  0.00    +0.017 A 
ATOM      4  C7  <0> A   1      -3.941   1.992  44.133  0.00  0.00    +0.011 A 
ATOM      5  C8  <0> A   1      -5.176   2.392  44.602  0.00  0.00    +0.017 A 
ATOM      6  C9  <0> A   1      -5.270   3.466  45.488  0.00  0.00    -0.077 A 
ATOM      7 Cl1  <0> A   1      -6.610   1.555  44.096  0.00  0.00    -0.037 Cl
ATOM      8 Cl2  <0> A   1      -1.245   2.149  43.937  0.00  0.00    -0.049 Cl
ENDROOT
BRANCH   6   9
ATOM      9  C10 <0> A   1      -6.588   3.894  45.999  0.00  0.00    +0.056 C 
ATOM     10  C11 <0> A   1      -7.081   3.349  47.104  0.00  0.00    -0.010 C 
BRANCH  10  11
ATOM     11  C12 <0> A   1      -8.425   3.786  47.625  0.00  0.00    +0.243 C 
ATOM     12  C13 <0> A   1      -8.722   5.208  47.143  0.00  0.00    +0.051 C 
ATOM     13  C14 <0> A   1     -10.071   5.664  47.709  0.00  0.00    +0.186 C 
ATOM     14  C15 <0> A   1     -10.005   5.626  49.241  0.00  0.00    +0.023 C 
ATOM     15  C16 <0> A   1      -9.514   4.258  49.660  0.00  0.00    +0.497 C 
ATOM     16  O2  <0> A   1     -10.091   3.625  50.512  0.00  0.00    -0.451 OA
ATOM     17  O3  <0> A   1      -8.412   3.766  49.057  0.00  0.00    -0.367 OA
BRANCH  13  18
ATOM     18  O4  <0> A   1     -11.104   4.790  47.250  0.00  0.00    -0.564 OA
ATOM     19  H16 <0> A   1     -11.343   4.097  47.880  0.00  0.00    +0.387 HD
ENDBRANCH  13  18
ENDBRANCH  10  11
ENDBRANCH   6   9
BRANCH   1  20
ATOM     20  O1  <0> A   1      -4.190   5.189  46.745  0.00  0.00    -0.292 OA
BRANCH  20  21
ATOM     21  C3  <0> A   1      -3.176   6.191  46.643  0.00  0.00    +0.232 C 
BRANCH  21  23
ATOM     22  C1  <0> A   1      -2.907   8.105  48.136  0.00  0.00    +0.049 C 
ATOM     23  C2  <0> A   1      -3.665   7.467  47.278  0.00  0.00    -0.039 C 
ENDBRANCH  21  23
ENDBRANCH  20  21
ENDBRANCH   1  20
TORSDOF 6
