REMARK VINA RESULT:      -8.5      0.000      0.000
REMARK  Name = CHEMBL122937
REMARK  7 active torsions:
REMARK  status: ('A' for Active; 'I' for Inactive)
REMARK    1  A    between atoms: C1_1  and  C2_2
REMARK    2  A    between atoms: C2_2  and  C3_3
REMARK    3  A    between atoms: C2_2  and  C4_4
REMARK    4  A    between atoms: C5_5  and  C19_23
REMARK    5  A    between atoms: C6_6  and  C13_16
REMARK    6  A    between atoms: C20_24  and  C21_25
REMARK    7  A    between atoms: C23_28  and  O4_34
REMARK                            x       y       z     vdW  Elec       q    Type
REMARK                         _______ _______ _______ _____ _____    ______ ____
ROOT
ATOM      1  C4  <0> A   1     -26.977  -3.801  50.906  0.00  0.00    +0.152 A 
ATOM      2  C5  <0> A   1     -25.622  -3.872  51.270  0.00  0.00    -0.043 A 
ATOM      3  C6  <0> A   1     -24.896  -2.685  51.443  0.00  0.00    +0.014 A 
ATOM      4  C7  <0> A   1     -25.577  -1.459  51.240  0.00  0.00    -0.024 A 
ATOM      5  C8  <0> A   1     -24.920  -0.231  51.395  0.00  0.00    +0.016 A 
ATOM      6  C9  <0> A   1     -25.606   0.931  51.191  0.00  0.00    +0.130 A 
ATOM      7  C10 <0> A   1     -26.954   0.909  50.830  0.00  0.00    +0.025 A 
ATOM      8  C11 <0> A   1     -27.619  -0.268  50.673  0.00  0.00    +0.121 A 
ATOM      9  C12 <0> A   1     -26.944  -1.484  50.875  0.00  0.00    +0.089 A 
ATOM     10  N1  <0> A   1     -27.579  -2.653  50.720  0.00  0.00    -0.108 N 
ATOM     11  O1  <0> A   1     -28.946  -2.648  50.347  0.00  0.00    -0.515 OA
ATOM     12  F1  <0> A   1     -24.973   2.115  51.339  0.00  0.00    -0.126 F 
ENDROOT
BRANCH   3  13
ATOM     13  C13 <0> A   1     -23.469  -2.713  51.827  0.00  0.00    -0.072 A 
ATOM     14  C14 <0> A   1     -22.487  -2.952  50.862  0.00  0.00    +0.080 A 
ATOM     15  C15 <0> A   1     -21.158  -2.977  51.226  0.00  0.00    -0.005 A 
ATOM     16  C16 <0> A   1     -20.794  -2.766  52.546  0.00  0.00    +0.115 A 
ATOM     17  C17 <0> A   1     -21.763  -2.528  53.508  0.00  0.00    -0.007 A 
ATOM     18  C18 <0> A   1     -23.095  -2.496  53.154  0.00  0.00    +0.064 A 
ATOM     19  F2  <0> A   1     -19.489  -2.791  52.897  0.00  0.00    -0.134 F 
ENDBRANCH   3  13
BRANCH   1  21
ATOM     20  C1  <0> A   1     -28.949  -5.093  51.675  0.00  0.00    +0.048 C 
ATOM     21  C2  <0> A   1     -27.755  -5.078  50.719  0.00  0.00    +0.053 C 
ATOM     22  C3  <0> A   1     -28.256  -5.164  49.276  0.00  0.00    +0.048 C 
ENDBRANCH   1  21
BRANCH   2  23
ATOM     23  C19 <0> A   1     -24.971  -5.181  51.467  0.00  0.00    +0.049 C 
ATOM     24  C20 <0> A   1     -24.753  -5.977  50.427  0.00  0.00    +0.013 C 
BRANCH  24  25
ATOM     25  C21 <0> A   1     -24.086  -7.313  50.628  0.00  0.00    +0.244 C 
ATOM     26  C22 <0> A   1     -25.069  -8.432  50.272  0.00  0.00    +0.052 C 
ATOM     27  C23 <0> A   1     -24.403  -9.790  50.518  0.00  0.00    +0.187 C 
ATOM     28  C24 <0> A   1     -24.001  -9.885  51.995  0.00  0.00    +0.025 C 
ATOM     29  C25 <0> A   1     -23.196  -8.654  52.348  0.00  0.00    +0.498 C 
ATOM     30  O2  <0> A   1     -22.139  -8.747  52.928  0.00  0.00    -0.448 OA
ATOM     31  O3  <0> A   1     -23.690  -7.448  51.997  0.00  0.00    -0.369 OA
BRANCH  27  32
ATOM     32  O4  <0> A   1     -23.242  -9.909  49.694  0.00  0.00    -0.564 OA
ATOM     33  H23 <0> A   1     -23.293  -9.408  48.868  0.00  0.00    +0.388 HD
ENDBRANCH  27  32
ENDBRANCH  24  25
ENDBRANCH   2  23
TORSDOF 5
