REMARK VINA RESULT:      -7.7     17.696     21.999
REMARK  Name = CHEMBL122219
REMARK  13 active torsions:
REMARK  status: ('A' for Active; 'I' for Inactive)
REMARK    1  A    between atoms: C1_1  and  C2_2
REMARK    2  A    between atoms: C2_2  and  O1_3
REMARK    3  A    between atoms: O1_3  and  C3_4
REMARK    4  A    between atoms: C3_4  and  C4_6
REMARK    5  A    between atoms: C5_7  and  C24_33
REMARK    6  A    between atoms: C6_8  and  C21_30
REMARK    7  A    between atoms: N1_9  and  C14_18
REMARK    8  A    between atoms: C7_10  and  C8_11
REMARK    9  A    between atoms: C14_18  and  C15_19
REMARK   10  A    between atoms: C15_19  and  C16_20
REMARK   11  A    between atoms: C18_23  and  O5_29
REMARK   12  A    between atoms: C21_30  and  C22_31
REMARK   13  A    between atoms: C21_30  and  C23_32
REMARK                            x       y       z     vdW  Elec       q    Type
REMARK                         _______ _______ _______ _____ _____    ______ ____
ROOT
ATOM      1  C4  <0> A   1     -27.565  -8.806  50.615  0.00  0.00    -0.167 C 
ATOM      2  C5  <0> A   1     -26.127  -9.112  50.504  0.00  0.00    -0.087 C 
ATOM      3  C6  <0> A   1     -25.466  -8.018  50.962  0.00  0.00    +0.068 C 
ATOM      4  N1  <0> A   1     -26.370  -7.072  51.342  0.00  0.00    -0.419 N 
ATOM      5  C7  <0> A   1     -27.639  -7.519  51.139  0.00  0.00    +0.114 C 
ENDROOT
BRANCH   5   6
ATOM      6  C8  <0> A   1     -28.878  -6.771  51.426  0.00  0.00    -0.043 A 
ATOM      7  C9  <0> A   1     -29.434  -6.800  52.709  0.00  0.00    +0.056 A 
ATOM      8  C10 <0> A   1     -30.591  -6.099  52.971  0.00  0.00    -0.006 A 
ATOM      9  C11 <0> A   1     -31.204  -5.366  51.967  0.00  0.00    +0.110 A 
ATOM     10  C12 <0> A   1     -30.658  -5.334  50.694  0.00  0.00    -0.004 A 
ATOM     11  C13 <0> A   1     -29.498  -6.026  50.420  0.00  0.00    +0.073 A 
ATOM     12  F1  <0> A   1     -32.339  -4.682  52.231  0.00  0.00    -0.135 F 
ENDBRANCH   5   6
BRANCH   2  13
ATOM     13  C24 <0> A   1     -25.524 -10.366  49.993  0.00  0.00    -0.017 A 
ATOM     14  C25 <0> A   1     -25.178 -11.386  50.878  0.00  0.00    +0.020 A 
ATOM     15  C26 <0> A   1     -24.616 -12.552  50.397  0.00  0.00    +0.003 A 
ATOM     16  C27 <0> A   1     -24.396 -12.708  49.040  0.00  0.00    +0.003 A 
ATOM     17  C28 <0> A   1     -24.737 -11.698  48.158  0.00  0.00    +0.003 A 
ATOM     18  C29 <0> A   1     -25.305 -10.531  48.626  0.00  0.00    +0.020 A 
ENDBRANCH   2  13
BRANCH   3  19
ATOM     19  C21 <0> A   1     -23.968  -7.874  51.037  0.00  0.00    +0.069 C 
ATOM     20  C22 <0> A   1     -23.427  -8.748  52.170  0.00  0.00    +0.031 C 
ATOM     21  C23 <0> A   1     -23.348  -8.319  49.710  0.00  0.00    +0.033 C 
ENDBRANCH   3  19
BRANCH   1  22
ATOM     22  C3  <0> A   1     -28.684  -9.677  50.243  0.00  0.00    +0.552 C 
ATOM     23  O2  <0> A   1     -29.162  -9.610  49.126  0.00  0.00    -0.499 OA
BRANCH  22  24
ATOM     24  O1  <0> A   1     -29.185 -10.551  51.139  0.00  0.00    -0.343 OA
BRANCH  24  26
ATOM     25  C1  <0> A   1     -30.383 -10.383  53.231  0.00  0.00    +0.061 C 
ATOM     26  C2  <0> A   1     -30.457 -10.238  51.710  0.00  0.00    +0.194 C 
ENDBRANCH  24  26
ENDBRANCH  22  24
ENDBRANCH   1  22
BRANCH   4  27
ATOM     27  C14 <0> A   1     -26.023  -5.758  51.889  0.00  0.00    +0.296 C 
BRANCH  27  28
ATOM     28  C15 <0> A   1     -25.813  -4.768  50.742  0.00  0.00    +0.052 C 
BRANCH  28  29
ATOM     29  C16 <0> A   1     -26.256  -3.372  51.185  0.00  0.00    +0.204 C 
ATOM     30  C17 <0> A   1     -27.416  -3.495  52.177  0.00  0.00    +0.046 C 
ATOM     31  C18 <0> A   1     -27.883  -2.095  52.587  0.00  0.00    +0.187 C 
ATOM     32  C19 <0> A   1     -28.333  -1.335  51.334  0.00  0.00    +0.024 C 
ATOM     33  C20 <0> A   1     -27.225  -1.413  50.307  0.00  0.00    +0.498 C 
ATOM     34  O3  <0> A   1     -26.833  -0.422  49.738  0.00  0.00    -0.449 OA
ATOM     35  O4  <0> A   1     -26.685  -2.622  50.045  0.00  0.00    -0.370 OA
BRANCH  31  36
ATOM     36  O5  <0> A   1     -26.805  -1.395  53.213  0.00  0.00    -0.564 OA
ATOM     37  H20 <0> A   1     -27.089  -0.690  53.812  0.00  0.00    +0.388 HD
ENDBRANCH  31  36
ENDBRANCH  28  29
ENDBRANCH  27  28
ENDBRANCH   4  27
TORSDOF 10
