REMARK VINA RESULT:      -8.6      9.734     16.102
REMARK  Name = CHEMBL228528
REMARK  14 active torsions:
REMARK  status: ('A' for Active; 'I' for Inactive)
REMARK    1  A    between atoms: C1_1  and  C2_2
REMARK    2  A    between atoms: C2_2  and  C3_3
REMARK    3  A    between atoms: C2_2  and  N1_4
REMARK    4  A    between atoms: C4_5  and  C27_32
REMARK    5  A    between atoms: C5_6  and  C21_25
REMARK    6  A    between atoms: N2_11  and  C15_18
REMARK    7  A    between atoms: C27_32  and  C28_33
REMARK    8  A    between atoms: C28_33  and  C29_34
REMARK    9  A    between atoms: C29_34  and  C30_36
REMARK   10  A    between atoms: C29_34  and  O5_44
REMARK   11  A    between atoms: C30_36  and  C31_37
REMARK   12  A    between atoms: C31_37  and  C32_39
REMARK   13  A    between atoms: C31_37  and  O4_43
REMARK   14  A    between atoms: C32_39  and  C33_40
REMARK                            x       y       z     vdW  Elec       q    Type
REMARK                         _______ _______ _______ _____ _____    ______ ____
ROOT
ATOM      1  N1  <0> A   1     -23.902  -2.241  52.465  0.00  0.00    -0.391 N 
ATOM      2  C4  <0> A   1     -24.683  -1.132  52.456  0.00  0.00    +0.111 C 
ATOM      3  C5  <0> A   1     -25.856  -1.410  51.819  0.00  0.00    -0.129 C 
ATOM      4  C6  <0> A   1     -25.784  -2.805  51.404  0.00  0.00    -0.042 C 
ATOM      5  C7  <0> A   1     -24.541  -3.278  51.825  0.00  0.00    -0.046 C 
ATOM      6  C8  <0> A   1     -24.182  -4.617  51.555  0.00  0.00    +0.582 C 
ATOM      7  O1  <0> A   1     -23.097  -5.029  51.926  0.00  0.00    -0.519 OA
ATOM      8  N2  <0> A   1     -25.009  -5.447  50.897  0.00  0.00    -0.482 N 
ATOM      9  C9  <0> A   1     -26.254  -5.038  50.449  0.00  0.00    +0.159 A 
ATOM     10  C10 <0> A   1     -26.685  -3.721  50.688  0.00  0.00    -0.049 A 
ATOM     11  C11 <0> A   1     -27.935  -3.306  50.238  0.00  0.00    +0.066 A 
ATOM     12  C12 <0> A   1     -28.752  -4.194  49.571  0.00  0.00    -0.009 A 
ATOM     13  C13 <0> A   1     -28.333  -5.496  49.348  0.00  0.00    +0.047 A 
ATOM     14  C14 <0> A   1     -27.089  -5.917  49.771  0.00  0.00    -0.019 A 
ENDROOT
BRANCH   8  15
ATOM     15  C15 <0> A   1     -24.601  -6.764  50.656  0.00  0.00    +0.157 A 
ATOM     16  C16 <0> A   1     -24.362  -7.193  49.357  0.00  0.00    +0.025 A 
ATOM     17  C17 <0> A   1     -23.959  -8.493  49.121  0.00  0.00    +0.063 A 
ATOM     18  C18 <0> A   1     -23.792  -9.369  50.178  0.00  0.00    +0.001 A 
ATOM     19  C19 <0> A   1     -24.029  -8.945  51.475  0.00  0.00    +0.110 A 
ATOM     20  C20 <0> A   1     -24.428  -7.643  51.717  0.00  0.00    +0.003 A 
ATOM     21  F1  <0> A   1     -23.866  -9.803  52.506  0.00  0.00    -0.133 F 
ENDBRANCH   8  15
BRANCH   3  22
ATOM     22  C21 <0> A   1     -26.986  -0.475  51.593  0.00  0.00    -0.013 A 
ATOM     23  C22 <0> A   1     -26.974   0.383  50.496  0.00  0.00    +0.054 A 
ATOM     24  C23 <0> A   1     -28.026   1.252  50.289  0.00  0.00    -0.012 A 
ATOM     25  C24 <0> A   1     -29.093   1.272  51.172  0.00  0.00    +0.098 A 
ATOM     26  C25 <0> A   1     -29.109   0.422  52.265  0.00  0.00    -0.014 A 
ATOM     27  C26 <0> A   1     -28.064  -0.454  52.476  0.00  0.00    +0.054 A 
ATOM     28  F2  <0> A   1     -30.121   2.124  50.967  0.00  0.00    -0.140 F 
ENDBRANCH   3  22
BRANCH   1  30
ATOM     29  C1  <0> A   1     -21.535  -1.757  52.080  0.00  0.00    +0.045 C 
ATOM     30  C2  <0> A   1     -22.566  -2.320  53.061  0.00  0.00    +0.229 C 
ATOM     31  C3  <0> A   1     -22.536  -1.506  54.356  0.00  0.00    +0.046 C 
ENDBRANCH   1  30
BRANCH   2  32
ATOM     32  C27 <0> A   1     -24.313   0.198  53.059  0.00  0.00    +0.122 C 
BRANCH  32  33
ATOM     33  C28 <0> A   1     -23.774   1.122  51.963  0.00  0.00    -0.005 C 
BRANCH  33  34
ATOM     34  C29 <0> A   1     -22.811   2.138  52.581  0.00  0.00    +0.214 C 
BRANCH  34  35
ATOM     35  O5  <0> A   1     -21.490   1.597  52.593  0.00  0.00    -0.542 OA
ATOM     36  H31 <0> A   1     -21.419   0.740  53.036  0.00  0.00    +0.364 HD
ENDBRANCH  34  35
BRANCH  34  37
ATOM     37  C30 <0> A   1     -22.828   3.425  51.753  0.00  0.00    -0.051 C 
BRANCH  37  38
ATOM     38  C31 <0> A   1     -21.515   3.551  50.979  0.00  0.00    +0.231 C 
BRANCH  38  39
ATOM     39  O4  <0> A   1     -21.550   2.688  49.840  0.00  0.00    -0.528 OA
ATOM     40  H30 <0> A   1     -21.451   3.149  48.995  0.00  0.00    +0.349 HD
ENDBRANCH  38  39
BRANCH  38  41
ATOM     41  C32 <0> A   1     -21.331   4.997  50.518  0.00  0.00    -0.103 C 
BRANCH  41  42
ATOM     42  C33 <0> A   1     -20.497   5.023  49.263  0.00  0.00    +0.490 C 
ATOM     43  O2  <0> A   1     -19.308   4.759  49.317  0.00  0.00    -0.681 OA
ATOM     44  O3  <0> A   1     -21.011   5.308  48.195  0.00  0.00    -0.713 OA
ENDBRANCH  41  42
ENDBRANCH  38  41
ENDBRANCH  37  38
ENDBRANCH  34  37
ENDBRANCH  33  34
ENDBRANCH  32  33
ENDBRANCH   2  32
TORSDOF 12
