REMARK VINA RESULT:      -7.4      3.679      5.576
REMARK  Name = CHEMBL120897
REMARK  9 active torsions:
REMARK  status: ('A' for Active; 'I' for Inactive)
REMARK    1  A    between atoms: C1_1  and  C2_2
REMARK    2  A    between atoms: C2_2  and  C3_3
REMARK    3  A    between atoms: C2_2  and  C4_4
REMARK    4  A    between atoms: C6_6  and  C21_28
REMARK    5  A    between atoms: C7_7  and  C15_21
REMARK    6  A    between atoms: N1_8  and  C8_9
REMARK    7  A    between atoms: C8_9  and  C9_10
REMARK    8  A    between atoms: C9_10  and  C10_11
REMARK    9  A    between atoms: C12_14  and  O3_20
REMARK                            x       y       z     vdW  Elec       q    Type
REMARK                         _______ _______ _______ _____ _____    ______ ____
ROOT
ATOM      1  C4  <0> A   1     -15.120   6.743  45.586  0.00  0.00    +0.043 C 
ATOM      2  C5  <0> A   1     -14.104   7.576  45.293  0.00  0.00    -0.028 C 
ATOM      3  C6  <0> A   1     -14.048   8.560  46.309  0.00  0.00    -0.116 C 
ATOM      4  C7  <0> A   1     -15.067   8.269  47.203  0.00  0.00    +0.069 C 
ATOM      5  N1  <0> A   1     -15.717   7.157  46.741  0.00  0.00    -0.426 N 
ENDROOT
BRANCH   4   6
ATOM      6  C15 <0> A   1     -15.396   9.026  48.428  0.00  0.00    -0.028 A 
ATOM      7  C16 <0> A   1     -16.247  10.130  48.362  0.00  0.00    +0.043 A 
ATOM      8  C17 <0> A   1     -16.551  10.834  49.509  0.00  0.00    -0.008 A 
ATOM      9  C18 <0> A   1     -16.012  10.445  50.726  0.00  0.00    +0.104 A 
ATOM     10  C19 <0> A   1     -15.165   9.351  50.797  0.00  0.00    -0.007 A 
ATOM     11  C20 <0> A   1     -14.859   8.637  49.658  0.00  0.00    +0.070 A 
ATOM     12  F1  <0> A   1     -16.312  11.138  51.846  0.00  0.00    -0.137 F 
ENDBRANCH   4   6
BRANCH   3  13
ATOM     13  C21 <0> A   1     -13.088   9.683  46.400  0.00  0.00    +0.044 A 
ATOM     14  C22 <0> A   1     -11.824   9.504  46.973  0.00  0.00    -0.033 A 
ATOM     15  C23 <0> A   1     -10.961  10.577  47.036  0.00  0.00    +0.254 A 
ATOM     16  N2  <0> A   1     -11.314  11.759  46.566  0.00  0.00    -0.491 NA
ATOM     17  C24 <0> A   1     -12.496  11.971  46.018  0.00  0.00    +0.254 A 
ATOM     18  C25 <0> A   1     -13.417  10.951  45.908  0.00  0.00    -0.032 A 
ENDBRANCH   3  13
BRANCH   1  20
ATOM     19  C1  <0> A   1     -15.255   5.822  43.287  0.00  0.00    +0.040 C 
ATOM     20  C2  <0> A   1     -15.535   5.548  44.766  0.00  0.00    +0.048 C 
ATOM     21  C3  <0> A   1     -14.742   4.320  45.217  0.00  0.00    +0.033 C 
ENDBRANCH   1  20
BRANCH   5  22
ATOM     22  C8  <0> A   1     -16.864   6.512  47.384  0.00  0.00    +0.292 C 
BRANCH  22  23
ATOM     23  C9  <0> A   1     -18.159   7.148  46.874  0.00  0.00    +0.052 C 
BRANCH  23  24
ATOM     24  C10 <0> A   1     -19.262   6.966  47.918  0.00  0.00    +0.203 C 
ATOM     25  C11 <0> A   1     -18.787   7.516  49.266  0.00  0.00    +0.045 C 
ATOM     26  C12 <0> A   1     -19.877   7.295  50.318  0.00  0.00    +0.187 C 
ATOM     27  C13 <0> A   1     -20.162   5.792  50.429  0.00  0.00    +0.025 C 
ATOM     28  C14 <0> A   1     -20.432   5.256  49.039  0.00  0.00    +0.497 C 
ATOM     29  O1  <0> A   1     -21.398   4.565  48.817  0.00  0.00    -0.449 OA
ATOM     30  O2  <0> A   1     -19.566   5.573  48.056  0.00  0.00    -0.370 OA
BRANCH  26  31
ATOM     31  O3  <0> A   1     -21.067   7.983  49.926  0.00  0.00    -0.564 OA
ATOM     32  H19 <0> A   1     -21.203   8.020  48.970  0.00  0.00    +0.388 HD
ENDBRANCH  26  31
ENDBRANCH  23  24
ENDBRANCH  22  23
ENDBRANCH   5  22
TORSDOF 7
