MODEL 1
REMARK VINA RESULT:      -9.1      0.000      0.000
REMARK  Name = CHEMBL228955
REMARK  14 active torsions:
REMARK  status: ('A' for Active; 'I' for Inactive)
REMARK    1  A    between atoms: C1_1  and  C2_2
REMARK    2  A    between atoms: C2_2  and  C3_3
REMARK    3  A    between atoms: C2_2  and  N1_4
REMARK    4  A    between atoms: C4_5  and  C24_28
REMARK    5  A    between atoms: C5_6  and  C18_21
REMARK    6  A    between atoms: N2_11  and  C12_15
REMARK    7  A    between atoms: C24_28  and  C25_29
REMARK    8  A    between atoms: C25_29  and  C26_30
REMARK    9  A    between atoms: C26_30  and  C27_32
REMARK   10  A    between atoms: C26_30  and  O5_40
REMARK   11  A    between atoms: C27_32  and  C28_33
REMARK   12  A    between atoms: C28_33  and  C29_35
REMARK   13  A    between atoms: C28_33  and  O4_39
REMARK   14  A    between atoms: C29_35  and  C30_36
REMARK                            x       y       z     vdW  Elec       q    Type
REMARK                         _______ _______ _______ _____ _____    ______ ____
ROOT
ATOM      1  N1  <0> A   1     -15.179   6.505  45.957  0.00  0.00    -0.392 N 
ATOM      2  C4  <0> A   1     -14.297   7.443  45.569  0.00  0.00    +0.101 C 
ATOM      3  C5  <0> A   1     -14.533   8.580  46.283  0.00  0.00    -0.157 C 
ATOM      4  C6  <0> A   1     -15.618   8.319  47.151  0.00  0.00    -0.071 C 
ATOM      5  C7  <0> A   1     -16.004   7.030  46.940  0.00  0.00    -0.044 C 
ATOM      6  C8  <0> A   1     -17.057   6.268  47.595  0.00  0.00    +0.593 C 
ATOM      7  O1  <0> A   1     -17.185   5.119  47.215  0.00  0.00    -0.552 OA
ATOM      8  N2  <0> A   1     -17.888   6.646  48.539  0.00  0.00    -0.540 N 
ATOM      9  C9  <0> A   1     -18.047   7.944  49.138  0.00  0.00    +0.265 C 
ATOM     10  C10 <0> A   1     -16.761   8.697  49.346  0.00  0.00    +0.026 C 
ATOM     11  C11 <0> A   1     -16.209   9.318  48.095  0.00  0.00    +0.101 C 
ENDROOT
BRANCH   3  12
ATOM     12  C18 <0> A   1     -13.787   9.859  46.170  0.00  0.00    -0.006 A 
ATOM     13  C19 <0> A   1     -12.677  10.093  46.978  0.00  0.00    +0.049 A 
ATOM     14  C20 <0> A   1     -11.986  11.283  46.870  0.00  0.00    -0.015 A 
ATOM     15  C21 <0> A   1     -12.395  12.244  45.960  0.00  0.00    +0.093 A 
ATOM     16  C22 <0> A   1     -13.499  12.015  45.155  0.00  0.00    -0.017 A 
ATOM     17  C23 <0> A   1     -14.193  10.825  45.253  0.00  0.00    +0.050 A 
ATOM     18  F1  <0> A   1     -11.717  13.407  45.857  0.00  0.00    -0.142 F 
ENDBRANCH   3  12
BRANCH   8  19
ATOM     19  C12 <0> A   1     -18.735   5.648  49.030  0.00  0.00    +0.139 A 
ATOM     20  C13 <0> A   1     -18.216   4.602  49.780  0.00  0.00    +0.021 A 
ATOM     21  C14 <0> A   1     -19.056   3.617  50.263  0.00  0.00    +0.015 A 
ATOM     22  C15 <0> A   1     -20.412   3.674  50.001  0.00  0.00    +0.006 A 
ATOM     23  C16 <0> A   1     -20.932   4.715  49.253  0.00  0.00    +0.016 A 
ATOM     24  C17 <0> A   1     -20.098   5.705  48.772  0.00  0.00    +0.007 A 
ENDBRANCH   8  19
BRANCH   1  26
ATOM     25  C1  <0> A   1     -15.702   5.199  43.956  0.00  0.00    +0.038 C 
ATOM     26  C2  <0> A   1     -15.260   5.145  45.420  0.00  0.00    +0.242 C 
ATOM     27  C3  <0> A   1     -13.887   4.477  45.513  0.00  0.00    +0.039 C 
ENDBRANCH   1  26
BRANCH   2  28
ATOM     28  C24 <0> A   1     -13.228   7.268  44.522  0.00  0.00    +0.115 C 
BRANCH  28  29
ATOM     29  C25 <0> A   1     -13.730   7.811  43.183  0.00  0.00    -0.006 C 
BRANCH  29  30
ATOM     30  C26 <0> A   1     -12.608   7.735  42.147  0.00  0.00    +0.212 C 
BRANCH  30  31
ATOM     31  O5  <0> A   1     -12.032   6.427  42.163  0.00  0.00    -0.541 OA
ATOM     32  H34 <0> A   1     -11.473   6.253  42.933  0.00  0.00    +0.362 HD
ENDBRANCH  30  31
BRANCH  30  33
ATOM     33  C27 <0> A   1     -13.175   8.024  40.756  0.00  0.00    -0.051 C 
BRANCH  33  34
ATOM     34  C28 <0> A   1     -12.361   9.137  40.094  0.00  0.00    +0.231 C 
BRANCH  34  35
ATOM     35  O4  <0> A   1     -12.508   9.055  38.675  0.00  0.00    -0.528 OA
ATOM     36  H33 <0> A   1     -13.039   8.305  38.377  0.00  0.00    +0.349 HD
ENDBRANCH  34  35
BRANCH  34  37
ATOM     37  C29 <0> A   1     -12.868  10.497  40.579  0.00  0.00    -0.103 C 
BRANCH  37  38
ATOM     38  C30 <0> A   1     -13.243  11.346  39.392  0.00  0.00    +0.490 C 
ATOM     39  O2  <0> A   1     -12.384  11.973  38.796  0.00  0.00    -0.681 OA
ATOM     40  O3  <0> A   1     -14.405  11.406  39.028  0.00  0.00    -0.713 OA
ENDBRANCH  37  38
ENDBRANCH  34  37
ENDBRANCH  33  34
ENDBRANCH  30  33
ENDBRANCH  29  30
ENDBRANCH  28  29
ENDBRANCH   2  28
TORSDOF 12
ENDMDL
MODEL 2
REMARK VINA RESULT:      -9.1      0.031      1.103
REMARK  Name = CHEMBL228955
REMARK  14 active torsions:
REMARK  status: ('A' for Active; 'I' for Inactive)
REMARK    1  A    between atoms: C1_1  and  C2_2
REMARK    2  A    between atoms: C2_2  and  C3_3
REMARK    3  A    between atoms: C2_2  and  N1_4
REMARK    4  A    between atoms: C4_5  and  C24_28
REMARK    5  A    between atoms: C5_6  and  C18_21
REMARK    6  A    between atoms: N2_11  and  C12_15
REMARK    7  A    between atoms: C24_28  and  C25_29
REMARK    8  A    between atoms: C25_29  and  C26_30
REMARK    9  A    between atoms: C26_30  and  C27_32
REMARK   10  A    between atoms: C26_30  and  O5_40
REMARK   11  A    between atoms: C27_32  and  C28_33
REMARK   12  A    between atoms: C28_33  and  C29_35
REMARK   13  A    between atoms: C28_33  and  O4_39
REMARK   14  A    between atoms: C29_35  and  C30_36
REMARK                            x       y       z     vdW  Elec       q    Type
REMARK                         _______ _______ _______ _____ _____    ______ ____
ROOT
ATOM      1  N1  <0> A   1     -15.178   6.499  45.956  0.00  0.00    -0.392 N 
ATOM      2  C4  <0> A   1     -14.290   7.435  45.576  0.00  0.00    +0.101 C 
ATOM      3  C5  <0> A   1     -14.521   8.569  46.297  0.00  0.00    -0.157 C 
ATOM      4  C6  <0> A   1     -15.609   8.308  47.161  0.00  0.00    -0.071 C 
ATOM      5  C7  <0> A   1     -16.002   7.022  46.942  0.00  0.00    -0.044 C 
ATOM      6  C8  <0> A   1     -17.059   6.262  47.591  0.00  0.00    +0.593 C 
ATOM      7  O1  <0> A   1     -17.193   5.116  47.203  0.00  0.00    -0.552 OA
ATOM      8  N2  <0> A   1     -17.889   6.638  48.535  0.00  0.00    -0.540 N 
ATOM      9  C9  <0> A   1     -18.043   7.933  49.143  0.00  0.00    +0.265 C 
ATOM     10  C10 <0> A   1     -16.753   8.678  49.357  0.00  0.00    +0.026 C 
ATOM     11  C11 <0> A   1     -16.196   9.304  48.111  0.00  0.00    +0.101 C 
ENDROOT
BRANCH   3  12
ATOM     12  C18 <0> A   1     -13.768   9.844  46.193  0.00  0.00    -0.006 A 
ATOM     13  C19 <0> A   1     -14.188  10.832  45.305  0.00  0.00    +0.049 A 
ATOM     14  C20 <0> A   1     -13.484  12.016  45.212  0.00  0.00    -0.015 A 
ATOM     15  C21 <0> A   1     -12.364  12.223  45.998  0.00  0.00    +0.093 A 
ATOM     16  C22 <0> A   1     -11.943  11.243  46.882  0.00  0.00    -0.017 A 
ATOM     17  C23 <0> A   1     -12.643  10.058  46.986  0.00  0.00    +0.050 A 
ATOM     18  F1  <0> A   1     -11.679  13.383  45.904  0.00  0.00    -0.142 F 
ENDBRANCH   3  12
BRANCH   8  19
ATOM     19  C12 <0> A   1     -18.742   5.642  49.018  0.00  0.00    +0.139 A 
ATOM     20  C13 <0> A   1     -20.105   5.706  48.758  0.00  0.00    +0.021 A 
ATOM     21  C14 <0> A   1     -20.945   4.720  49.238  0.00  0.00    +0.015 A 
ATOM     22  C15 <0> A   1     -20.431   3.670  49.976  0.00  0.00    +0.006 A 
ATOM     23  C16 <0> A   1     -19.074   3.604  50.237  0.00  0.00    +0.016 A 
ATOM     24  C17 <0> A   1     -18.228   4.584  49.756  0.00  0.00    +0.007 A 
ENDBRANCH   8  19
BRANCH   1  26
ATOM     25  C1  <0> A   1     -15.701   5.210  43.945  0.00  0.00    +0.038 C 
ATOM     26  C2  <0> A   1     -15.266   5.143  45.410  0.00  0.00    +0.242 C 
ATOM     27  C3  <0> A   1     -13.897   4.466  45.505  0.00  0.00    +0.039 C 
ENDBRANCH   1  26
BRANCH   2  28
ATOM     28  C24 <0> A   1     -13.220   7.261  44.529  0.00  0.00    +0.115 C 
BRANCH  28  29
ATOM     29  C25 <0> A   1     -13.713   7.827  43.196  0.00  0.00    -0.006 C 
BRANCH  29  30
ATOM     30  C26 <0> A   1     -12.598   7.727  42.155  0.00  0.00    +0.212 C 
BRANCH  30  31
ATOM     31  O5  <0> A   1     -12.028   6.418  42.190  0.00  0.00    -0.541 OA
ATOM     32  H34 <0> A   1     -11.758   6.083  41.324  0.00  0.00    +0.362 HD
ENDBRANCH  30  31
BRANCH  30  33
ATOM     33  C27 <0> A   1     -13.172   7.996  40.762  0.00  0.00    -0.051 C 
BRANCH  33  34
ATOM     34  C28 <0> A   1     -12.376   9.115  40.089  0.00  0.00    +0.231 C 
BRANCH  34  35
ATOM     35  O4  <0> A   1     -12.542   9.030  38.671  0.00  0.00    -0.528 OA
ATOM     36  H33 <0> A   1     -13.062   9.751  38.292  0.00  0.00    +0.349 HD
ENDBRANCH  34  35
BRANCH  34  37
ATOM     37  C29 <0> A   1     -12.886  10.471  40.581  0.00  0.00    -0.103 C 
BRANCH  37  38
ATOM     38  C30 <0> A   1     -13.257  11.327  39.397  0.00  0.00    +0.490 C 
ATOM     39  O2  <0> A   1     -12.396  11.957  38.807  0.00  0.00    -0.681 OA
ATOM     40  O3  <0> A   1     -14.418  11.389  39.031  0.00  0.00    -0.713 OA
ENDBRANCH  37  38
ENDBRANCH  34  37
ENDBRANCH  33  34
ENDBRANCH  30  33
ENDBRANCH  29  30
ENDBRANCH  28  29
ENDBRANCH   2  28
TORSDOF 12
ENDMDL
MODEL 3
REMARK VINA RESULT:      -8.4      1.023      1.417
REMARK  Name = CHEMBL228955
REMARK  14 active torsions:
REMARK  status: ('A' for Active; 'I' for Inactive)
REMARK    1  A    between atoms: C1_1  and  C2_2
REMARK    2  A    between atoms: C2_2  and  C3_3
REMARK    3  A    between atoms: C2_2  and  N1_4
REMARK    4  A    between atoms: C4_5  and  C24_28
REMARK    5  A    between atoms: C5_6  and  C18_21
REMARK    6  A    between atoms: N2_11  and  C12_15
REMARK    7  A    between atoms: C24_28  and  C25_29
REMARK    8  A    between atoms: C25_29  and  C26_30
REMARK    9  A    between atoms: C26_30  and  C27_32
REMARK   10  A    between atoms: C26_30  and  O5_40
REMARK   11  A    between atoms: C27_32  and  C28_33
REMARK   12  A    between atoms: C28_33  and  C29_35
REMARK   13  A    between atoms: C28_33  and  O4_39
REMARK   14  A    between atoms: C29_35  and  C30_36
REMARK                            x       y       z     vdW  Elec       q    Type
REMARK                         _______ _______ _______ _____ _____    ______ ____
ROOT
ATOM      1  N1  <0> A   1     -15.648   6.523  46.090  0.00  0.00    -0.392 N 
ATOM      2  C4  <0> A   1     -14.785   7.471  45.684  0.00  0.00    +0.101 C 
ATOM      3  C5  <0> A   1     -14.865   8.525  46.545  0.00  0.00    -0.157 C 
ATOM      4  C6  <0> A   1     -15.831   8.200  47.525  0.00  0.00    -0.071 C 
ATOM      5  C7  <0> A   1     -16.302   6.956  47.233  0.00  0.00    -0.044 C 
ATOM      6  C8  <0> A   1     -17.288   6.158  47.945  0.00  0.00    +0.593 C 
ATOM      7  O1  <0> A   1     -17.522   5.064  47.463  0.00  0.00    -0.552 OA
ATOM      8  N2  <0> A   1     -17.961   6.450  49.033  0.00  0.00    -0.540 N 
ATOM      9  C9  <0> A   1     -17.975   7.676  49.787  0.00  0.00    +0.265 C 
ATOM     10  C10 <0> A   1     -16.638   8.359  49.890  0.00  0.00    +0.026 C 
ATOM     11  C11 <0> A   1     -16.237   9.102  48.648  0.00  0.00    +0.101 C 
ENDROOT
BRANCH   3  12
ATOM     12  C18 <0> A   1     -14.083   9.785  46.466  0.00  0.00    -0.006 A 
ATOM     13  C19 <0> A   1     -14.451  10.780  45.564  0.00  0.00    +0.049 A 
ATOM     14  C20 <0> A   1     -13.720  11.949  45.494  0.00  0.00    -0.015 A 
ATOM     15  C21 <0> A   1     -12.624  12.134  46.319  0.00  0.00    +0.093 A 
ATOM     16  C22 <0> A   1     -12.254  11.146  47.217  0.00  0.00    -0.017 A 
ATOM     17  C23 <0> A   1     -12.982   9.976  47.297  0.00  0.00    +0.050 A 
ATOM     18  F1  <0> A   1     -11.911  13.279  46.248  0.00  0.00    -0.142 F 
ENDBRANCH   3  12
BRANCH   8  19
ATOM     19  C12 <0> A   1     -18.778   5.430  49.528  0.00  0.00    +0.139 A 
ATOM     20  C13 <0> A   1     -18.252   4.470  50.383  0.00  0.00    +0.021 A 
ATOM     21  C14 <0> A   1     -19.062   3.462  50.870  0.00  0.00    +0.015 A 
ATOM     22  C15 <0> A   1     -20.396   3.410  50.508  0.00  0.00    +0.006 A 
ATOM     23  C16 <0> A   1     -20.922   4.364  49.657  0.00  0.00    +0.016 A 
ATOM     24  C17 <0> A   1     -20.119   5.377  49.171  0.00  0.00    +0.007 A 
ENDBRANCH   8  19
BRANCH   1  26
ATOM     25  C1  <0> A   1     -16.306   5.478  43.978  0.00  0.00    +0.038 C 
ATOM     26  C2  <0> A   1     -15.867   5.236  45.424  0.00  0.00    +0.242 C 
ATOM     27  C3  <0> A   1     -14.568   4.429  45.435  0.00  0.00    +0.039 C 
ENDBRANCH   1  26
BRANCH   2  28
ATOM     28  C24 <0> A   1     -13.881   7.384  44.481  0.00  0.00    +0.115 C 
BRANCH  28  29
ATOM     29  C25 <0> A   1     -12.435   7.639  44.910  0.00  0.00    -0.006 C 
BRANCH  29  30
ATOM     30  C26 <0> A   1     -11.685   8.348  43.782  0.00  0.00    +0.212 C 
BRANCH  30  31
ATOM     31  O5  <0> A   1     -10.688   7.474  43.249  0.00  0.00    -0.541 OA
ATOM     32  H34 <0> A   1      -9.838   7.521  43.708  0.00  0.00    +0.362 HD
ENDBRANCH  30  31
BRANCH  30  33
ATOM     33  C27 <0> A   1     -12.669   8.732  42.676  0.00  0.00    -0.051 C 
BRANCH  33  34
ATOM     34  C28 <0> A   1     -12.558  10.230  42.390  0.00  0.00    +0.231 C 
BRANCH  34  35
ATOM     35  O4  <0> A   1     -11.546  10.453  41.406  0.00  0.00    -0.528 OA
ATOM     36  H33 <0> A   1     -11.867  10.880  40.601  0.00  0.00    +0.349 HD
ENDBRANCH  34  35
BRANCH  34  37
ATOM     37  C29 <0> A   1     -13.899  10.751  41.869  0.00  0.00    -0.103 C 
BRANCH  37  38
ATOM     38  C30 <0> A   1     -13.868  10.798  40.363  0.00  0.00    +0.490 C 
ATOM     39  O2  <0> A   1     -13.883  11.872  39.786  0.00  0.00    -0.681 OA
ATOM     40  O3  <0> A   1     -13.828   9.762  39.722  0.00  0.00    -0.713 OA
ENDBRANCH  37  38
ENDBRANCH  34  37
ENDBRANCH  33  34
ENDBRANCH  30  33
ENDBRANCH  29  30
ENDBRANCH  28  29
ENDBRANCH   2  28
TORSDOF 12
ENDMDL
MODEL 4
REMARK VINA RESULT:      -7.8     16.860     22.063
REMARK  Name = CHEMBL228955
REMARK  14 active torsions:
REMARK  status: ('A' for Active; 'I' for Inactive)
REMARK    1  A    between atoms: C1_1  and  C2_2
REMARK    2  A    between atoms: C2_2  and  C3_3
REMARK    3  A    between atoms: C2_2  and  N1_4
REMARK    4  A    between atoms: C4_5  and  C24_28
REMARK    5  A    between atoms: C5_6  and  C18_21
REMARK    6  A    between atoms: N2_11  and  C12_15
REMARK    7  A    between atoms: C24_28  and  C25_29
REMARK    8  A    between atoms: C25_29  and  C26_30
REMARK    9  A    between atoms: C26_30  and  C27_32
REMARK   10  A    between atoms: C26_30  and  O5_40
REMARK   11  A    between atoms: C27_32  and  C28_33
REMARK   12  A    between atoms: C28_33  and  C29_35
REMARK   13  A    between atoms: C28_33  and  O4_39
REMARK   14  A    between atoms: C29_35  and  C30_36
REMARK                            x       y       z     vdW  Elec       q    Type
REMARK                         _______ _______ _______ _____ _____    ______ ____
ROOT
ATOM      1  N1  <0> A   1     -28.211  -6.320  50.197  0.00  0.00    -0.392 N 
ATOM      2  C4  <0> A   1     -27.842  -7.584  49.921  0.00  0.00    +0.101 C 
ATOM      3  C5  <0> A   1     -26.481  -7.646  49.920  0.00  0.00    -0.157 C 
ATOM      4  C6  <0> A   1     -25.996  -6.350  50.210  0.00  0.00    -0.071 C 
ATOM      5  C7  <0> A   1     -27.079  -5.542  50.384  0.00  0.00    -0.044 C 
ATOM      6  C8  <0> A   1     -27.124  -4.128  50.722  0.00  0.00    +0.593 C 
ATOM      7  O1  <0> A   1     -28.240  -3.649  50.824  0.00  0.00    -0.552 OA
ATOM      8  N2  <0> A   1     -26.132  -3.294  50.933  0.00  0.00    -0.540 N 
ATOM      9  C9  <0> A   1     -24.717  -3.523  50.812  0.00  0.00    +0.265 C 
ATOM     10  C10 <0> A   1     -24.264  -4.883  51.268  0.00  0.00    +0.026 C 
ATOM     11  C11 <0> A   1     -24.548  -5.981  50.284  0.00  0.00    +0.101 C 
ENDROOT
BRANCH   3  12
ATOM     12  C18 <0> A   1     -25.656  -8.854  49.661  0.00  0.00    -0.006 A 
ATOM     13  C19 <0> A   1     -25.451  -9.291  48.355  0.00  0.00    +0.049 A 
ATOM     14  C20 <0> A   1     -24.684 -10.415  48.119  0.00  0.00    -0.015 A 
ATOM     15  C21 <0> A   1     -24.121 -11.107  49.177  0.00  0.00    +0.093 A 
ATOM     16  C22 <0> A   1     -24.324 -10.675  50.478  0.00  0.00    -0.017 A 
ATOM     17  C23 <0> A   1     -25.084  -9.550  50.723  0.00  0.00    +0.050 A 
ATOM     18  F1  <0> A   1     -23.371 -12.205  48.942  0.00  0.00    -0.142 F 
ENDBRANCH   3  12
BRANCH   8  19
ATOM     19  C12 <0> A   1     -26.502  -2.007  51.331  0.00  0.00    +0.139 A 
ATOM     20  C13 <0> A   1     -26.667  -1.714  52.679  0.00  0.00    +0.021 A 
ATOM     21  C14 <0> A   1     -27.033  -0.441  53.069  0.00  0.00    +0.015 A 
ATOM     22  C15 <0> A   1     -27.234   0.543  52.119  0.00  0.00    +0.006 A 
ATOM     23  C16 <0> A   1     -27.072   0.255  50.776  0.00  0.00    +0.016 A 
ATOM     24  C17 <0> A   1     -26.701  -1.014  50.380  0.00  0.00    +0.007 A 
ENDBRANCH   8  19
BRANCH   1  26
ATOM     25  C1  <0> A   1     -30.363  -6.280  49.034  0.00  0.00    +0.038 C 
ATOM     26  C2  <0> A   1     -29.593  -5.841  50.281  0.00  0.00    +0.242 C 
ATOM     27  C3  <0> A   1     -30.262  -6.428  51.526  0.00  0.00    +0.039 C 
ENDBRANCH   1  26
BRANCH   2  28
ATOM     28  C24 <0> A   1     -28.776  -8.737  49.656  0.00  0.00    +0.115 C 
BRANCH  28  29
ATOM     29  C25 <0> A   1     -28.830  -9.642  50.888  0.00  0.00    -0.006 C 
BRANCH  29  30
ATOM     30  C26 <0> A   1     -30.235 -10.230  51.028  0.00  0.00    +0.212 C 
BRANCH  30  31
ATOM     31  O5  <0> A   1     -30.557 -10.980  49.856  0.00  0.00    -0.541 OA
ATOM     32  H34 <0> A   1     -31.119 -11.749  50.022  0.00  0.00    +0.362 HD
ENDBRANCH  30  31
BRANCH  30  33
ATOM     33  C27 <0> A   1     -30.285 -11.149  52.250  0.00  0.00    -0.051 C 
BRANCH  33  34
ATOM     34  C28 <0> A   1     -31.465 -10.752  53.139  0.00  0.00    +0.231 C 
BRANCH  34  35
ATOM     35  O4  <0> A   1     -31.592 -11.691  54.209  0.00  0.00    -0.528 OA
ATOM     36  H33 <0> A   1     -32.113 -11.368  54.956  0.00  0.00    +0.349 HD
ENDBRANCH  34  35
BRANCH  34  37
ATOM     37  C29 <0> A   1     -31.223  -9.355  53.714  0.00  0.00    -0.103 C 
BRANCH  37  38
ATOM     38  C30 <0> A   1     -30.829  -9.469  55.164  0.00  0.00    +0.490 C 
ATOM     39  O2  <0> A   1     -29.738  -9.922  55.465  0.00  0.00    -0.681 OA
ATOM     40  O3  <0> A   1     -31.602  -9.109  56.036  0.00  0.00    -0.713 OA
ENDBRANCH  37  38
ENDBRANCH  34  37
ENDBRANCH  33  34
ENDBRANCH  30  33
ENDBRANCH  29  30
ENDBRANCH  28  29
ENDBRANCH   2  28
TORSDOF 12
ENDMDL
MODEL 5
REMARK VINA RESULT:      -7.8     16.032     20.846
REMARK  Name = CHEMBL228955
REMARK  14 active torsions:
REMARK  status: ('A' for Active; 'I' for Inactive)
REMARK    1  A    between atoms: C1_1  and  C2_2
REMARK    2  A    between atoms: C2_2  and  C3_3
REMARK    3  A    between atoms: C2_2  and  N1_4
REMARK    4  A    between atoms: C4_5  and  C24_28
REMARK    5  A    between atoms: C5_6  and  C18_21
REMARK    6  A    between atoms: N2_11  and  C12_15
REMARK    7  A    between atoms: C24_28  and  C25_29
REMARK    8  A    between atoms: C25_29  and  C26_30
REMARK    9  A    between atoms: C26_30  and  C27_32
REMARK   10  A    between atoms: C26_30  and  O5_40
REMARK   11  A    between atoms: C27_32  and  C28_33
REMARK   12  A    between atoms: C28_33  and  C29_35
REMARK   13  A    between atoms: C28_33  and  O4_39
REMARK   14  A    between atoms: C29_35  and  C30_36
REMARK                            x       y       z     vdW  Elec       q    Type
REMARK                         _______ _______ _______ _____ _____    ______ ____
ROOT
ATOM      1  N1  <0> A   1     -27.763  -4.457  51.840  0.00  0.00    -0.392 N 
ATOM      2  C4  <0> A   1     -27.316  -5.708  51.632  0.00  0.00    +0.101 C 
ATOM      3  C5  <0> A   1     -26.018  -5.641  51.221  0.00  0.00    -0.157 C 
ATOM      4  C6  <0> A   1     -25.657  -4.275  51.176  0.00  0.00    -0.071 C 
ATOM      5  C7  <0> A   1     -26.746  -3.555  51.565  0.00  0.00    -0.044 C 
ATOM      6  C8  <0> A   1     -26.889  -2.115  51.712  0.00  0.00    +0.593 C 
ATOM      7  O1  <0> A   1     -27.983  -1.733  52.087  0.00  0.00    -0.552 OA
ATOM      8  N2  <0> A   1     -26.006  -1.168  51.496  0.00  0.00    -0.540 N 
ATOM      9  C9  <0> A   1     -24.668  -1.280  50.978  0.00  0.00    +0.265 C 
ATOM     10  C10 <0> A   1     -23.917  -2.496  51.447  0.00  0.00    +0.026 C 
ATOM     11  C11 <0> A   1     -24.316  -3.765  50.752  0.00  0.00    +0.101 C 
ENDROOT
BRANCH   3  12
ATOM     12  C18 <0> A   1     -25.143  -6.793  50.884  0.00  0.00    -0.006 A 
ATOM     13  C19 <0> A   1     -24.994  -7.189  49.557  0.00  0.00    +0.049 A 
ATOM     14  C20 <0> A   1     -24.179  -8.260  49.247  0.00  0.00    -0.015 A 
ATOM     15  C21 <0> A   1     -23.512  -8.940  50.252  0.00  0.00    +0.093 A 
ATOM     16  C22 <0> A   1     -23.658  -8.548  51.573  0.00  0.00    -0.017 A 
ATOM     17  C23 <0> A   1     -24.466  -7.475  51.892  0.00  0.00    +0.050 A 
ATOM     18  F1  <0> A   1     -22.716  -9.987  49.945  0.00  0.00    -0.142 F 
ENDBRANCH   3  12
BRANCH   8  19
ATOM     19  C12 <0> A   1     -26.421   0.127  51.815  0.00  0.00    +0.139 A 
ATOM     20  C13 <0> A   1     -26.160   0.653  53.074  0.00  0.00    +0.021 A 
ATOM     21  C14 <0> A   1     -26.573   1.933  53.386  0.00  0.00    +0.015 A 
ATOM     22  C15 <0> A   1     -27.245   2.693  52.447  0.00  0.00    +0.006 A 
ATOM     23  C16 <0> A   1     -27.508   2.172  51.192  0.00  0.00    +0.016 A 
ATOM     24  C17 <0> A   1     -27.093   0.895  50.872  0.00  0.00    +0.007 A 
ENDBRANCH   8  19
BRANCH   1  26
ATOM     25  C1  <0> A   1     -30.109  -4.386  51.153  0.00  0.00    +0.038 C 
ATOM     26  C2  <0> A   1     -29.114  -4.102  52.280  0.00  0.00    +0.242 C 
ATOM     27  C3  <0> A   1     -29.485  -4.935  53.509  0.00  0.00    +0.039 C 
ENDBRANCH   1  26
BRANCH   2  28
ATOM     28  C24 <0> A   1     -28.115  -6.972  51.821  0.00  0.00    +0.115 C 
BRANCH  28  29
ATOM     29  C25 <0> A   1     -28.478  -7.556  50.455  0.00  0.00    -0.006 C 
BRANCH  29  30
ATOM     30  C26 <0> A   1     -28.859  -9.028  50.613  0.00  0.00    +0.212 C 
BRANCH  30  31
ATOM     31  O5  <0> A   1     -27.675  -9.825  50.668  0.00  0.00    -0.541 OA
ATOM     32  H34 <0> A   1     -27.361 -10.003  51.565  0.00  0.00    +0.362 HD
ENDBRANCH  30  31
BRANCH  30  33
ATOM     33  C27 <0> A   1     -29.657  -9.213  51.906  0.00  0.00    -0.051 C 
BRANCH  33  34
ATOM     34  C28 <0> A   1     -30.543 -10.455  51.786  0.00  0.00    +0.231 C 
BRANCH  34  35
ATOM     35  O4  <0> A   1     -30.290 -11.101  50.537  0.00  0.00    -0.528 OA
ATOM     36  H33 <0> A   1     -30.764 -11.935  50.422  0.00  0.00    +0.349 HD
ENDBRANCH  34  35
BRANCH  34  37
ATOM     37  C29 <0> A   1     -30.227 -11.419  52.931  0.00  0.00    -0.103 C 
BRANCH  37  38
ATOM     38  C30 <0> A   1     -29.464 -12.603  52.395  0.00  0.00    +0.490 C 
ATOM     39  O2  <0> A   1     -30.022 -13.679  52.264  0.00  0.00    -0.681 OA
ATOM     40  O3  <0> A   1     -28.289 -12.484  52.092  0.00  0.00    -0.713 OA
ENDBRANCH  37  38
ENDBRANCH  34  37
ENDBRANCH  33  34
ENDBRANCH  30  33
ENDBRANCH  29  30
ENDBRANCH  28  29
ENDBRANCH   2  28
TORSDOF 12
ENDMDL
MODEL 6
REMARK VINA RESULT:      -7.8      9.566     15.631
REMARK  Name = CHEMBL228955
REMARK  14 active torsions:
REMARK  status: ('A' for Active; 'I' for Inactive)
REMARK    1  A    between atoms: C1_1  and  C2_2
REMARK    2  A    between atoms: C2_2  and  C3_3
REMARK    3  A    between atoms: C2_2  and  N1_4
REMARK    4  A    between atoms: C4_5  and  C24_28
REMARK    5  A    between atoms: C5_6  and  C18_21
REMARK    6  A    between atoms: N2_11  and  C12_15
REMARK    7  A    between atoms: C24_28  and  C25_29
REMARK    8  A    between atoms: C25_29  and  C26_30
REMARK    9  A    between atoms: C26_30  and  C27_32
REMARK   10  A    between atoms: C26_30  and  O5_40
REMARK   11  A    between atoms: C27_32  and  C28_33
REMARK   12  A    between atoms: C28_33  and  C29_35
REMARK   13  A    between atoms: C28_33  and  O4_39
REMARK   14  A    between atoms: C29_35  and  C30_36
REMARK                            x       y       z     vdW  Elec       q    Type
REMARK                         _______ _______ _______ _____ _____    ______ ____
ROOT
ATOM      1  N1  <0> A   1     -24.198  -2.402  52.103  0.00  0.00    -0.392 N 
ATOM      2  C4  <0> A   1     -24.864  -1.237  52.203  0.00  0.00    +0.101 C 
ATOM      3  C5  <0> A   1     -26.100  -1.398  51.652  0.00  0.00    -0.157 C 
ATOM      4  C6  <0> A   1     -26.190  -2.732  51.191  0.00  0.00    -0.071 C 
ATOM      5  C7  <0> A   1     -25.007  -3.341  51.482  0.00  0.00    -0.044 C 
ATOM      6  C8  <0> A   1     -24.598  -4.716  51.239  0.00  0.00    +0.593 C 
ATOM      7  O1  <0> A   1     -23.474  -5.002  51.610  0.00  0.00    -0.552 OA
ATOM      8  N2  <0> A   1     -25.271  -5.692  50.676  0.00  0.00    -0.540 N 
ATOM      9  C9  <0> A   1     -26.574  -5.660  50.067  0.00  0.00    +0.265 C 
ATOM     10  C10 <0> A   1     -27.570  -4.778  50.770  0.00  0.00    +0.026 C 
ATOM     11  C11 <0> A   1     -27.383  -3.313  50.500  0.00  0.00    +0.101 C 
ENDROOT
BRANCH   3  12
ATOM     12  C18 <0> A   1     -27.159  -0.362  51.554  0.00  0.00    -0.006 A 
ATOM     13  C19 <0> A   1     -27.177   0.516  50.473  0.00  0.00    +0.049 A 
ATOM     14  C20 <0> A   1     -28.164   1.478  50.385  0.00  0.00    -0.015 A 
ATOM     15  C21 <0> A   1     -29.134   1.571  51.369  0.00  0.00    +0.093 A 
ATOM     16  C22 <0> A   1     -29.118   0.700  52.446  0.00  0.00    -0.017 A 
ATOM     17  C23 <0> A   1     -28.139  -0.268  52.539  0.00  0.00    +0.050 A 
ATOM     18  F1  <0> A   1     -30.097   2.514  51.280  0.00  0.00    -0.142 F 
ENDBRANCH   3  12
BRANCH   8  19
ATOM     19  C12 <0> A   1     -24.633  -6.936  50.667  0.00  0.00    +0.139 A 
ATOM     20  C13 <0> A   1     -24.387  -7.601  51.860  0.00  0.00    +0.021 A 
ATOM     21  C14 <0> A   1     -23.756  -8.829  51.848  0.00  0.00    +0.015 A 
ATOM     22  C15 <0> A   1     -23.370  -9.398  50.648  0.00  0.00    +0.006 A 
ATOM     23  C16 <0> A   1     -23.613  -8.738  49.457  0.00  0.00    +0.016 A 
ATOM     24  C17 <0> A   1     -24.248  -7.512  49.463  0.00  0.00    +0.007 A 
ENDBRANCH   8  19
BRANCH   1  26
ATOM     25  C1  <0> A   1     -21.837  -2.134  51.522  0.00  0.00    +0.038 C 
ATOM     26  C2  <0> A   1     -22.830  -2.638  52.572  0.00  0.00    +0.242 C 
ATOM     27  C3  <0> A   1     -22.605  -1.889  53.887  0.00  0.00    +0.039 C 
ENDBRANCH   1  26
BRANCH   2  28
ATOM     28  C24 <0> A   1     -24.334   0.031  52.820  0.00  0.00    +0.115 C 
BRANCH  28  29
ATOM     29  C25 <0> A   1     -23.766   0.934  51.723  0.00  0.00    -0.006 C 
BRANCH  29  30
ATOM     30  C26 <0> A   1     -22.702   1.855  52.320  0.00  0.00    +0.212 C 
BRANCH  30  31
ATOM     31  O5  <0> A   1     -21.410   1.272  52.137  0.00  0.00    -0.541 OA
ATOM     32  H34 <0> A   1     -20.859   1.280  52.931  0.00  0.00    +0.362 HD
ENDBRANCH  30  31
BRANCH  30  33
ATOM     33  C27 <0> A   1     -22.751   3.215  51.619  0.00  0.00    -0.051 C 
BRANCH  33  34
ATOM     34  C28 <0> A   1     -21.431   3.459  50.885  0.00  0.00    +0.231 C 
BRANCH  34  35
ATOM     35  O4  <0> A   1     -21.383   2.646  49.710  0.00  0.00    -0.528 OA
ATOM     36  H33 <0> A   1     -22.082   2.837  49.070  0.00  0.00    +0.349 HD
ENDBRANCH  34  35
BRANCH  34  37
ATOM     37  C29 <0> A   1     -21.334   4.933  50.488  0.00  0.00    -0.103 C 
BRANCH  37  38
ATOM     38  C30 <0> A   1     -20.468   5.067  49.261  0.00  0.00    +0.490 C 
ATOM     39  O2  <0> A   1     -19.273   4.840  49.331  0.00  0.00    -0.681 OA
ATOM     40  O3  <0> A   1     -20.965   5.403  48.199  0.00  0.00    -0.713 OA
ENDBRANCH  37  38
ENDBRANCH  34  37
ENDBRANCH  33  34
ENDBRANCH  30  33
ENDBRANCH  29  30
ENDBRANCH  28  29
ENDBRANCH   2  28
TORSDOF 12
ENDMDL
MODEL 7
REMARK VINA RESULT:      -7.8      2.377      4.067
REMARK  Name = CHEMBL228955
REMARK  14 active torsions:
REMARK  status: ('A' for Active; 'I' for Inactive)
REMARK    1  A    between atoms: C1_1  and  C2_2
REMARK    2  A    between atoms: C2_2  and  C3_3
REMARK    3  A    between atoms: C2_2  and  N1_4
REMARK    4  A    between atoms: C4_5  and  C24_28
REMARK    5  A    between atoms: C5_6  and  C18_21
REMARK    6  A    between atoms: N2_11  and  C12_15
REMARK    7  A    between atoms: C24_28  and  C25_29
REMARK    8  A    between atoms: C25_29  and  C26_30
REMARK    9  A    between atoms: C26_30  and  C27_32
REMARK   10  A    between atoms: C26_30  and  O5_40
REMARK   11  A    between atoms: C27_32  and  C28_33
REMARK   12  A    between atoms: C28_33  and  C29_35
REMARK   13  A    between atoms: C28_33  and  O4_39
REMARK   14  A    between atoms: C29_35  and  C30_36
REMARK                            x       y       z     vdW  Elec       q    Type
REMARK                         _______ _______ _______ _____ _____    ______ ____
ROOT
ATOM      1  N1  <0> A   1     -15.480   9.650  47.518  0.00  0.00    -0.392 N 
ATOM      2  C4  <0> A   1     -14.580   9.720  46.521  0.00  0.00    +0.101 C 
ATOM      3  C5  <0> A   1     -14.400   8.468  46.013  0.00  0.00    -0.157 C 
ATOM      4  C6  <0> A   1     -15.234   7.589  46.743  0.00  0.00    -0.071 C 
ATOM      5  C7  <0> A   1     -15.899   8.337  47.667  0.00  0.00    -0.044 C 
ATOM      6  C8  <0> A   1     -16.891   7.918  48.645  0.00  0.00    +0.593 C 
ATOM      7  O1  <0> A   1     -17.336   8.803  49.352  0.00  0.00    -0.552 OA
ATOM      8  N2  <0> A   1     -17.374   6.718  48.873  0.00  0.00    -0.540 N 
ATOM      9  C9  <0> A   1     -17.002   5.464  48.274  0.00  0.00    +0.265 C 
ATOM     10  C10 <0> A   1     -16.678   5.545  46.807  0.00  0.00    +0.026 C 
ATOM     11  C11 <0> A   1     -15.320   6.113  46.513  0.00  0.00    +0.101 C 
ENDROOT
BRANCH   3  12
ATOM     12  C18 <0> A   1     -13.493   8.094  44.898  0.00  0.00    -0.006 A 
ATOM     13  C19 <0> A   1     -12.115   8.240  45.041  0.00  0.00    +0.049 A 
ATOM     14  C20 <0> A   1     -11.275   7.891  44.002  0.00  0.00    -0.015 A 
ATOM     15  C21 <0> A   1     -11.800   7.398  42.820  0.00  0.00    +0.093 A 
ATOM     16  C22 <0> A   1     -13.170   7.251  42.674  0.00  0.00    -0.017 A 
ATOM     17  C23 <0> A   1     -14.017   7.593  43.710  0.00  0.00    +0.050 A 
ATOM     18  F1  <0> A   1     -10.975   7.058  41.806  0.00  0.00    -0.142 F 
ENDBRANCH   3  12
BRANCH   8  19
ATOM     19  C12 <0> A   1     -18.391   6.650  49.829  0.00  0.00    +0.139 A 
ATOM     20  C13 <0> A   1     -19.713   6.848  49.455  0.00  0.00    +0.021 A 
ATOM     21  C14 <0> A   1     -20.715   6.781  50.403  0.00  0.00    +0.015 A 
ATOM     22  C15 <0> A   1     -20.403   6.516  51.724  0.00  0.00    +0.006 A 
ATOM     23  C16 <0> A   1     -19.087   6.320  52.100  0.00  0.00    +0.016 A 
ATOM     24  C17 <0> A   1     -18.081   6.381  51.156  0.00  0.00    +0.007 A 
ENDBRANCH   8  19
BRANCH   1  26
ATOM     25  C1  <0> A   1     -14.732  11.495  48.940  0.00  0.00    +0.038 C 
ATOM     26  C2  <0> A   1     -15.939  10.784  48.325  0.00  0.00    +0.242 C 
ATOM     27  C3  <0> A   1     -16.709  11.763  47.436  0.00  0.00    +0.039 C 
ENDBRANCH   1  26
BRANCH   2  28
ATOM     28  C24 <0> A   1     -13.888  10.970  46.044  0.00  0.00    +0.115 C 
BRANCH  28  29
ATOM     29  C25 <0> A   1     -14.533  11.446  44.740  0.00  0.00    -0.006 C 
BRANCH  29  30
ATOM     30  C26 <0> A   1     -13.478  12.125  43.867  0.00  0.00    +0.212 C 
BRANCH  30  31
ATOM     31  O5  <0> A   1     -12.434  12.642  44.694  0.00  0.00    -0.541 OA
ATOM     32  H34 <0> A   1     -12.230  12.090  45.461  0.00  0.00    +0.362 HD
ENDBRANCH  30  31
BRANCH  30  33
ATOM     33  C27 <0> A   1     -12.893  11.107  42.886  0.00  0.00    -0.051 C 
BRANCH  33  34
ATOM     34  C28 <0> A   1     -13.912  10.817  41.783  0.00  0.00    +0.231 C 
BRANCH  34  35
ATOM     35  O4  <0> A   1     -14.598  12.023  41.440  0.00  0.00    -0.528 OA
ATOM     36  H33 <0> A   1     -14.223  12.487  40.680  0.00  0.00    +0.349 HD
ENDBRANCH  34  35
BRANCH  34  37
ATOM     37  C29 <0> A   1     -13.187  10.276  40.548  0.00  0.00    -0.103 C 
BRANCH  37  38
ATOM     38  C30 <0> A   1     -13.264  11.290  39.436  0.00  0.00    +0.490 C 
ATOM     39  O2  <0> A   1     -14.289  11.406  38.787  0.00  0.00    -0.681 OA
ATOM     40  O3  <0> A   1     -12.300  11.994  39.186  0.00  0.00    -0.713 OA
ENDBRANCH  37  38
ENDBRANCH  34  37
ENDBRANCH  33  34
ENDBRANCH  30  33
ENDBRANCH  29  30
ENDBRANCH  28  29
ENDBRANCH   2  28
TORSDOF 12
ENDMDL
MODEL 8
REMARK VINA RESULT:      -7.8     18.347     21.831
REMARK  Name = CHEMBL228955
REMARK  14 active torsions:
REMARK  status: ('A' for Active; 'I' for Inactive)
REMARK    1  A    between atoms: C1_1  and  C2_2
REMARK    2  A    between atoms: C2_2  and  C3_3
REMARK    3  A    between atoms: C2_2  and  N1_4
REMARK    4  A    between atoms: C4_5  and  C24_28
REMARK    5  A    between atoms: C5_6  and  C18_21
REMARK    6  A    between atoms: N2_11  and  C12_15
REMARK    7  A    between atoms: C24_28  and  C25_29
REMARK    8  A    between atoms: C25_29  and  C26_30
REMARK    9  A    between atoms: C26_30  and  C27_32
REMARK   10  A    between atoms: C26_30  and  O5_40
REMARK   11  A    between atoms: C27_32  and  C28_33
REMARK   12  A    between atoms: C28_33  and  C29_35
REMARK   13  A    between atoms: C28_33  and  O4_39
REMARK   14  A    between atoms: C29_35  and  C30_36
REMARK                            x       y       z     vdW  Elec       q    Type
REMARK                         _______ _______ _______ _____ _____    ______ ____
ROOT
ATOM      1  N1  <0> A   1     -28.673  -7.315  50.303  0.00  0.00    -0.392 N 
ATOM      2  C4  <0> A   1     -29.015  -6.033  50.524  0.00  0.00    +0.101 C 
ATOM      3  C5  <0> A   1     -27.890  -5.334  50.846  0.00  0.00    -0.157 C 
ATOM      4  C6  <0> A   1     -26.805  -6.241  50.820  0.00  0.00    -0.071 C 
ATOM      5  C7  <0> A   1     -27.305  -7.461  50.478  0.00  0.00    -0.044 C 
ATOM      6  C8  <0> A   1     -26.602  -8.721  50.291  0.00  0.00    +0.593 C 
ATOM      7  O1  <0> A   1     -27.300  -9.667  49.975  0.00  0.00    -0.552 OA
ATOM      8  N2  <0> A   1     -25.322  -8.981  50.415  0.00  0.00    -0.540 N 
ATOM      9  C9  <0> A   1     -24.259  -8.113  50.848  0.00  0.00    +0.265 C 
ATOM     10  C10 <0> A   1     -24.383  -6.691  50.372  0.00  0.00    +0.026 C 
ATOM     11  C11 <0> A   1     -25.388  -5.878  51.137  0.00  0.00    +0.101 C 
ENDROOT
BRANCH   3  12
ATOM     12  C18 <0> A   1     -27.817  -3.886  51.165  0.00  0.00    -0.006 A 
ATOM     13  C19 <0> A   1     -27.675  -3.469  52.487  0.00  0.00    +0.049 A 
ATOM     14  C20 <0> A   1     -27.607  -2.122  52.779  0.00  0.00    -0.015 A 
ATOM     15  C21 <0> A   1     -27.680  -1.185  51.762  0.00  0.00    +0.093 A 
ATOM     16  C22 <0> A   1     -27.822  -1.595  50.447  0.00  0.00    -0.017 A 
ATOM     17  C23 <0> A   1     -27.885  -2.941  50.144  0.00  0.00    +0.050 A 
ATOM     18  F1  <0> A   1     -27.614   0.132  52.053  0.00  0.00    -0.142 F 
ENDBRANCH   3  12
BRANCH   8  19
ATOM     19  C12 <0> A   1     -24.937 -10.282  50.079  0.00  0.00    +0.139 A 
ATOM     20  C13 <0> A   1     -24.943 -11.281  51.043  0.00  0.00    +0.021 A 
ATOM     21  C14 <0> A   1     -24.561 -12.566  50.708  0.00  0.00    +0.015 A 
ATOM     22  C15 <0> A   1     -24.174 -12.857  49.413  0.00  0.00    +0.006 A 
ATOM     23  C16 <0> A   1     -24.165 -11.864  48.450  0.00  0.00    +0.016 A 
ATOM     24  C17 <0> A   1     -24.551 -10.579  48.778  0.00  0.00    +0.007 A 
ENDBRANCH   8  19
BRANCH   1  26
ATOM     25  C1  <0> A   1     -30.388  -8.823  51.179  0.00  0.00    +0.038 C 
ATOM     26  C2  <0> A   1     -29.601  -8.389  49.941  0.00  0.00    +0.242 C 
ATOM     27  C3  <0> A   1     -30.571  -7.885  48.870  0.00  0.00    +0.039 C 
ENDBRANCH   1  26
BRANCH   2  28
ATOM     28  C24 <0> A   1     -30.408  -5.464  50.432  0.00  0.00    +0.115 C 
BRANCH  28  29
ATOM     29  C25 <0> A   1     -31.157  -5.734  51.738  0.00  0.00    -0.006 C 
BRANCH  29  30
ATOM     30  C26 <0> A   1     -31.111  -4.486  52.621  0.00  0.00    +0.212 C 
BRANCH  30  31
ATOM     31  O5  <0> A   1     -32.431  -3.965  52.779  0.00  0.00    -0.541 OA
ATOM     32  H34 <0> A   1     -32.467  -3.119  53.246  0.00  0.00    +0.362 HD
ENDBRANCH  30  31
BRANCH  30  33
ATOM     33  C27 <0> A   1     -30.539  -4.851  53.993  0.00  0.00    -0.051 C 
BRANCH  33  34
ATOM     34  C28 <0> A   1     -30.179  -6.338  54.017  0.00  0.00    +0.231 C 
BRANCH  34  35
ATOM     35  O4  <0> A   1     -28.787  -6.485  54.308  0.00  0.00    -0.528 OA
ATOM     36  H33 <0> A   1     -28.228  -6.566  53.524  0.00  0.00    +0.349 HD
ENDBRANCH  34  35
BRANCH  34  37
ATOM     37  C29 <0> A   1     -31.002  -7.045  55.096  0.00  0.00    -0.103 C 
BRANCH  37  38
ATOM     38  C30 <0> A   1     -30.981  -8.531  54.850  0.00  0.00    +0.490 C 
ATOM     39  O2  <0> A   1     -31.942  -9.077  54.335  0.00  0.00    -0.681 OA
ATOM     40  O3  <0> A   1     -30.004  -9.188  55.166  0.00  0.00    -0.713 OA
ENDBRANCH  37  38
ENDBRANCH  34  37
ENDBRANCH  33  34
ENDBRANCH  30  33
ENDBRANCH  29  30
ENDBRANCH  28  29
ENDBRANCH   2  28
TORSDOF 12
ENDMDL
MODEL 9
REMARK VINA RESULT:      -7.7      3.099      5.022
REMARK  Name = CHEMBL228955
REMARK  14 active torsions:
REMARK  status: ('A' for Active; 'I' for Inactive)
REMARK    1  A    between atoms: C1_1  and  C2_2
REMARK    2  A    between atoms: C2_2  and  C3_3
REMARK    3  A    between atoms: C2_2  and  N1_4
REMARK    4  A    between atoms: C4_5  and  C24_28
REMARK    5  A    between atoms: C5_6  and  C18_21
REMARK    6  A    between atoms: N2_11  and  C12_15
REMARK    7  A    between atoms: C24_28  and  C25_29
REMARK    8  A    between atoms: C25_29  and  C26_30
REMARK    9  A    between atoms: C26_30  and  C27_32
REMARK   10  A    between atoms: C26_30  and  O5_40
REMARK   11  A    between atoms: C27_32  and  C28_33
REMARK   12  A    between atoms: C28_33  and  C29_35
REMARK   13  A    between atoms: C28_33  and  O4_39
REMARK   14  A    between atoms: C29_35  and  C30_36
REMARK                            x       y       z     vdW  Elec       q    Type
REMARK                         _______ _______ _______ _____ _____    ______ ____
ROOT
ATOM      1  N1  <0> A   1     -16.367   9.121  48.695  0.00  0.00    -0.392 N 
ATOM      2  C4  <0> A   1     -15.560   8.543  47.787  0.00  0.00    +0.101 C 
ATOM      3  C5  <0> A   1     -16.109   7.351  47.418  0.00  0.00    -0.157 C 
ATOM      4  C6  <0> A   1     -17.314   7.196  48.141  0.00  0.00    -0.071 C 
ATOM      5  C7  <0> A   1     -17.462   8.301  48.923  0.00  0.00    -0.044 C 
ATOM      6  C8  <0> A   1     -18.543   8.642  49.835  0.00  0.00    +0.593 C 
ATOM      7  O1  <0> A   1     -18.425   9.709  50.411  0.00  0.00    -0.552 OA
ATOM      8  N2  <0> A   1     -19.627   7.962  50.125  0.00  0.00    -0.540 N 
ATOM      9  C9  <0> A   1     -20.017   6.649  49.684  0.00  0.00    +0.265 C 
ATOM     10  C10 <0> A   1     -19.665   6.342  48.254  0.00  0.00    +0.026 C 
ATOM     11  C11 <0> A   1     -18.216   6.007  48.042  0.00  0.00    +0.101 C 
ENDROOT
BRANCH   3  12
ATOM     12  C18 <0> A   1     -15.545   6.392  46.435  0.00  0.00    -0.006 A 
ATOM     13  C19 <0> A   1     -15.949   6.438  45.103  0.00  0.00    +0.049 A 
ATOM     14  C20 <0> A   1     -15.422   5.544  44.193  0.00  0.00    -0.015 A 
ATOM     15  C21 <0> A   1     -14.493   4.602  44.602  0.00  0.00    +0.093 A 
ATOM     16  C22 <0> A   1     -14.089   4.552  45.927  0.00  0.00    -0.017 A 
ATOM     17  C23 <0> A   1     -14.607   5.446  46.842  0.00  0.00    +0.050 A 
ATOM     18  F1  <0> A   1     -13.980   3.728  43.709  0.00  0.00    -0.142 F 
ENDBRANCH   3  12
BRANCH   8  19
ATOM     19  C12 <0> A   1     -20.529   8.601  50.981  0.00  0.00    +0.139 A 
ATOM     20  C13 <0> A   1     -21.502   9.445  50.463  0.00  0.00    +0.021 A 
ATOM     21  C14 <0> A   1     -22.391  10.076  51.311  0.00  0.00    +0.015 A 
ATOM     22  C15 <0> A   1     -22.312   9.867  52.676  0.00  0.00    +0.006 A 
ATOM     23  C16 <0> A   1     -21.343   9.028  53.195  0.00  0.00    +0.016 A 
ATOM     24  C17 <0> A   1     -20.455   8.390  52.352  0.00  0.00    +0.007 A 
ENDBRANCH   8  19
BRANCH   1  26
ATOM     25  C1  <0> A   1     -14.679  10.465  49.846  0.00  0.00    +0.038 C 
ATOM     26  C2  <0> A   1     -16.123  10.411  49.345  0.00  0.00    +0.242 C 
ATOM     27  C3  <0> A   1     -16.358  11.541  48.340  0.00  0.00    +0.039 C 
ENDBRANCH   1  26
BRANCH   2  28
ATOM     28  C24 <0> A   1     -14.267   9.116  47.266  0.00  0.00    +0.115 C 
BRANCH  28  29
ATOM     29  C25 <0> A   1     -14.513   9.783  45.911  0.00  0.00    -0.006 C 
BRANCH  29  30
ATOM     30  C26 <0> A   1     -13.326   9.513  44.986  0.00  0.00    +0.212 C 
BRANCH  30  31
ATOM     31  O5  <0> A   1     -12.794   8.215  45.259  0.00  0.00    -0.541 OA
ATOM     32  H34 <0> A   1     -13.258   7.739  45.962  0.00  0.00    +0.362 HD
ENDBRANCH  30  31
BRANCH  30  33
ATOM     33  C27 <0> A   1     -13.789   9.577  43.529  0.00  0.00    -0.051 C 
BRANCH  33  34
ATOM     34  C28 <0> A   1     -13.251  10.853  42.879  0.00  0.00    +0.231 C 
BRANCH  34  35
ATOM     35  O4  <0> A   1     -11.952  10.602  42.338  0.00  0.00    -0.528 OA
ATOM     36  H33 <0> A   1     -11.261  10.498  43.006  0.00  0.00    +0.349 HD
ENDBRANCH  34  35
BRANCH  34  37
ATOM     37  C29 <0> A   1     -14.194  11.289  41.755  0.00  0.00    -0.103 C 
BRANCH  37  38
ATOM     38  C30 <0> A   1     -13.577  10.951  40.422  0.00  0.00    +0.490 C 
ATOM     39  O2  <0> A   1     -12.896  11.777  39.839  0.00  0.00    -0.681 OA
ATOM     40  O3  <0> A   1     -13.759   9.852  39.928  0.00  0.00    -0.713 OA
ENDBRANCH  37  38
ENDBRANCH  34  37
ENDBRANCH  33  34
ENDBRANCH  30  33
ENDBRANCH  29  30
ENDBRANCH  28  29
ENDBRANCH   2  28
TORSDOF 12
ENDMDL
MODEL 10
REMARK VINA RESULT:      -7.7      3.951      6.675
REMARK  Name = CHEMBL228955
REMARK  14 active torsions:
REMARK  status: ('A' for Active; 'I' for Inactive)
REMARK    1  A    between atoms: C1_1  and  C2_2
REMARK    2  A    between atoms: C2_2  and  C3_3
REMARK    3  A    between atoms: C2_2  and  N1_4
REMARK    4  A    between atoms: C4_5  and  C24_28
REMARK    5  A    between atoms: C5_6  and  C18_21
REMARK    6  A    between atoms: N2_11  and  C12_15
REMARK    7  A    between atoms: C24_28  and  C25_29
REMARK    8  A    between atoms: C25_29  and  C26_30
REMARK    9  A    between atoms: C26_30  and  C27_32
REMARK   10  A    between atoms: C26_30  and  O5_40
REMARK   11  A    between atoms: C27_32  and  C28_33
REMARK   12  A    between atoms: C28_33  and  C29_35
REMARK   13  A    between atoms: C28_33  and  O4_39
REMARK   14  A    between atoms: C29_35  and  C30_36
REMARK                            x       y       z     vdW  Elec       q    Type
REMARK                         _______ _______ _______ _____ _____    ______ ____
ROOT
ATOM      1  N1  <0> A   1     -12.451   9.662  47.130  0.00  0.00    -0.392 N 
ATOM      2  C4  <0> A   1     -13.149   8.892  46.275  0.00  0.00    +0.101 C 
ATOM      3  C5  <0> A   1     -13.505   7.745  46.920  0.00  0.00    -0.157 C 
ATOM      4  C6  <0> A   1     -12.994   7.821  48.236  0.00  0.00    -0.071 C 
ATOM      5  C7  <0> A   1     -12.349   9.015  48.352  0.00  0.00    -0.044 C 
ATOM      6  C8  <0> A   1     -11.675   9.585  49.508  0.00  0.00    +0.593 C 
ATOM      7  O1  <0> A   1     -11.182  10.685  49.336  0.00  0.00    -0.552 OA
ATOM      8  N2  <0> A   1     -11.522   9.081  50.710  0.00  0.00    -0.540 N 
ATOM      9  C9  <0> A   1     -11.910   7.786  51.204  0.00  0.00    +0.265 C 
ATOM     10  C10 <0> A   1     -13.223   7.283  50.671  0.00  0.00    +0.026 C 
ATOM     11  C11 <0> A   1     -13.147   6.749  49.269  0.00  0.00    +0.101 C 
ENDROOT
BRANCH   3  12
ATOM     12  C18 <0> A   1     -14.285   6.620  46.344  0.00  0.00    -0.006 A 
ATOM     13  C19 <0> A   1     -15.674   6.701  46.270  0.00  0.00    +0.049 A 
ATOM     14  C20 <0> A   1     -16.396   5.653  45.734  0.00  0.00    -0.015 A 
ATOM     15  C21 <0> A   1     -15.742   4.523  45.272  0.00  0.00    +0.093 A 
ATOM     16  C22 <0> A   1     -14.361   4.439  45.344  0.00  0.00    -0.017 A 
ATOM     17  C23 <0> A   1     -13.631   5.484  45.874  0.00  0.00    +0.050 A 
ATOM     18  F1  <0> A   1     -16.452   3.500  44.748  0.00  0.00    -0.142 F 
ENDBRANCH   3  12
BRANCH   8  19
ATOM     19  C12 <0> A   1     -10.897   9.917  51.639  0.00  0.00    +0.139 A 
ATOM     20  C13 <0> A   1      -9.522   9.856  51.817  0.00  0.00    +0.021 A 
ATOM     21  C14 <0> A   1      -8.907  10.683  52.737  0.00  0.00    +0.015 A 
ATOM     22  C15 <0> A   1      -9.661  11.574  53.479  0.00  0.00    +0.006 A 
ATOM     23  C16 <0> A   1     -11.032  11.637  53.304  0.00  0.00    +0.016 A 
ATOM     24  C17 <0> A   1     -11.651  10.816  52.383  0.00  0.00    +0.007 A 
ENDBRANCH   8  19
BRANCH   1  26
ATOM     25  C1  <0> A   1     -10.630  10.796  45.956  0.00  0.00    +0.038 C 
ATOM     26  C2  <0> A   1     -11.883  10.975  46.815  0.00  0.00    +0.242 C 
ATOM     27  C3  <0> A   1     -12.913  11.806  46.048  0.00  0.00    +0.039 C 
ENDBRANCH   1  26
BRANCH   2  28
ATOM     28  C24 <0> A   1     -13.482   9.238  44.847  0.00  0.00    +0.115 C 
BRANCH  28  29
ATOM     29  C25 <0> A   1     -12.384   8.707  43.924  0.00  0.00    -0.006 C 
BRANCH  29  30
ATOM     30  C26 <0> A   1     -12.411   9.477  42.603  0.00  0.00    +0.212 C 
BRANCH  30  31
ATOM     31  O5  <0> A   1     -11.830   8.676  41.572  0.00  0.00    -0.541 OA
ATOM     32  H34 <0> A   1     -12.465   8.117  41.104  0.00  0.00    +0.362 HD
ENDBRANCH  30  31
BRANCH  30  33
ATOM     33  C27 <0> A   1     -13.858   9.810  42.235  0.00  0.00    -0.051 C 
BRANCH  33  34
ATOM     34  C28 <0> A   1     -13.908  11.173  41.542  0.00  0.00    +0.231 C 
BRANCH  34  35
ATOM     35  O4  <0> A   1     -12.595  11.736  41.503  0.00  0.00    -0.528 OA
ATOM     36  H33 <0> A   1     -12.320  12.034  40.626  0.00  0.00    +0.349 HD
ENDBRANCH  34  35
BRANCH  34  37
ATOM     37  C29 <0> A   1     -14.429  11.000  40.113  0.00  0.00    -0.103 C 
BRANCH  37  38
ATOM     38  C30 <0> A   1     -13.283  11.120  39.142  0.00  0.00    +0.490 C 
ATOM     39  O2  <0> A   1     -12.598  10.145  38.886  0.00  0.00    -0.681 OA
ATOM     40  O3  <0> A   1     -13.042  12.192  38.614  0.00  0.00    -0.713 OA
ENDBRANCH  37  38
ENDBRANCH  34  37
ENDBRANCH  33  34
ENDBRANCH  30  33
ENDBRANCH  29  30
ENDBRANCH  28  29
ENDBRANCH   2  28
TORSDOF 12
ENDMDL
