REMARK VINA RESULT:      -5.4     11.013     12.621
REMARK  Name = D0GY5Z
REMARK  5 active torsions:
REMARK  status: ('A' for Active; 'I' for Inactive)
REMARK    1  A    between atoms: O_1  and  C_5
REMARK    2  A    between atoms: O_1  and  C_12
REMARK    3  A    between atoms: O_2  and  C_11
REMARK    4  A    between atoms: C_6  and  C_11
REMARK    5  A    between atoms: C_12  and  C_13
REMARK                            x       y       z     vdW  Elec       q    Type
REMARK                         _______ _______ _______ _____ _____    ______ ____
ROOT
ATOM      1  C   UNL A   1      -4.028   4.089  45.619  0.00  0.00    +0.146 A 
ATOM      2  C   UNL A   1      -2.682   4.303  45.947  0.00  0.00    +0.101 A 
ATOM      3  C   UNL A   1      -4.409   3.046  44.767  0.00  0.00    +0.047 A 
ATOM      4  C   UNL A   1      -1.713   3.468  45.366  0.00  0.00    +0.019 A 
ATOM      5  C   UNL A   1      -3.435   2.228  44.197  0.00  0.00    +0.004 A 
ATOM      6  C   UNL A   1      -2.089   2.442  44.493  0.00  0.00    +0.001 A 
ENDROOT
BRANCH   2   8
ATOM      7  O   UNL A   1      -1.731   6.432  46.606  0.00  0.00    -0.245 OA
ATOM      8  C   UNL A   1      -2.290   5.387  46.884  0.00  0.00    +0.340 C 
BRANCH   8   9
ATOM      9  O   UNL A   1      -2.634   5.116  48.159  0.00  0.00    -0.477 OA
ATOM     10  H   UNL A   1      -3.117   4.265  48.094  0.00  0.00    +0.295 HD
ENDBRANCH   8   9
ENDBRANCH   2   8
BRANCH   1  11
ATOM     11  O   UNL A   1      -5.059   4.869  46.152  0.00  0.00    -0.425 OA
BRANCH  11  13
ATOM     12  O   UNL A   1      -5.309   3.859  48.244  0.00  0.00    -0.251 OA
ATOM     13  C   UNL A   1      -5.752   4.201  47.153  0.00  0.00    +0.309 C 
ATOM     14  C   UNL A   1      -7.173   3.973  46.730  0.00  0.00    +0.136 C 
ENDBRANCH  11  13
ENDBRANCH   1  11
TORSDOF 4
