REMARK VINA RESULT:      -5.5     21.448     22.904
REMARK  Name = D0GY5Z
REMARK  5 active torsions:
REMARK  status: ('A' for Active; 'I' for Inactive)
REMARK    1  A    between atoms: O_1  and  C_5
REMARK    2  A    between atoms: O_1  and  C_12
REMARK    3  A    between atoms: O_2  and  C_11
REMARK    4  A    between atoms: C_6  and  C_11
REMARK    5  A    between atoms: C_12  and  C_13
REMARK                            x       y       z     vdW  Elec       q    Type
REMARK                         _______ _______ _______ _____ _____    ______ ____
ROOT
ATOM      1  C   UNL A   1       5.209  20.470  32.580  0.00  0.00    +0.146 A 
ATOM      2  C   UNL A   1       5.233  21.852  32.339  0.00  0.00    +0.101 A 
ATOM      3  C   UNL A   1       4.725  19.954  33.787  0.00  0.00    +0.047 A 
ATOM      4  C   UNL A   1       4.795  22.713  33.359  0.00  0.00    +0.019 A 
ATOM      5  C   UNL A   1       4.296  20.822  34.788  0.00  0.00    +0.004 A 
ATOM      6  C   UNL A   1       4.336  22.200  34.576  0.00  0.00    +0.001 A 
ENDROOT
BRANCH   2   8
ATOM      7  O   UNL A   1       6.808  22.858  30.797  0.00  0.00    -0.245 OA
ATOM      8  C   UNL A   1       5.710  22.390  31.040  0.00  0.00    +0.340 C 
BRANCH   8   9
ATOM      9  O   UNL A   1       4.776  22.307  30.072  0.00  0.00    -0.477 OA
ATOM     10  H   UNL A   1       5.215  22.704  29.290  0.00  0.00    +0.295 HD
ENDBRANCH   8   9
ENDBRANCH   2   8
BRANCH   1  11
ATOM     11  O   UNL A   1       5.623  19.540  31.621  0.00  0.00    -0.425 OA
BRANCH  11  13
ATOM     12  O   UNL A   1       3.667  19.527  30.343  0.00  0.00    -0.251 OA
ATOM     13  C   UNL A   1       4.547  18.949  30.972  0.00  0.00    +0.309 C 
ATOM     14  C   UNL A   1       4.619  17.457  31.110  0.00  0.00    +0.136 C 
ENDBRANCH  11  13
ENDBRANCH   1  11
TORSDOF 4
