REMARK VINA RESULT:      -5.9     11.721     13.230
REMARK  Name = D0GY5Z
REMARK  5 active torsions:
REMARK  status: ('A' for Active; 'I' for Inactive)
REMARK    1  A    between atoms: O_1  and  C_5
REMARK    2  A    between atoms: O_1  and  C_12
REMARK    3  A    between atoms: O_2  and  C_11
REMARK    4  A    between atoms: C_6  and  C_11
REMARK    5  A    between atoms: C_12  and  C_13
REMARK                            x       y       z     vdW  Elec       q    Type
REMARK                         _______ _______ _______ _____ _____    ______ ____
ROOT
ATOM      1  C   UNL A   1      -3.918   3.178  44.616  0.00  0.00    +0.146 A 
ATOM      2  C   UNL A   1      -2.523   3.279  44.718  0.00  0.00    +0.101 A 
ATOM      3  C   UNL A   1      -4.759   3.850  45.510  0.00  0.00    +0.047 A 
ATOM      4  C   UNL A   1      -1.984   4.042  45.767  0.00  0.00    +0.019 A 
ATOM      5  C   UNL A   1      -4.208   4.601  46.546  0.00  0.00    +0.004 A 
ATOM      6  C   UNL A   1      -2.823   4.693  46.677  0.00  0.00    +0.001 A 
ENDROOT
BRANCH   2   8
ATOM      7  O   UNL A   1      -0.736   1.815  43.986  0.00  0.00    -0.245 OA
ATOM      8  C   UNL A   1      -1.638   2.595  43.740  0.00  0.00    +0.340 C 
BRANCH   8   9
ATOM      9  O   UNL A   1      -1.932   2.915  42.464  0.00  0.00    -0.477 OA
ATOM     10  H   UNL A   1      -1.061   3.144  42.075  0.00  0.00    +0.295 HD
ENDBRANCH   8   9
ENDBRANCH   2   8
BRANCH   1  11
ATOM     11  O   UNL A   1      -4.540   2.443  43.602  0.00  0.00    -0.425 OA
BRANCH  11  13
ATOM     12  O   UNL A   1      -4.402   0.281  44.477  0.00  0.00    -0.251 OA
ATOM     13  C   UNL A   1      -5.050   1.239  44.071  0.00  0.00    +0.309 C 
ATOM     14  C   UNL A   1      -6.550   1.274  44.052  0.00  0.00    +0.136 C 
ENDBRANCH  11  13
ENDBRANCH   1  11
TORSDOF 4
