REMARK VINA RESULT:      -5.5     20.191     21.588
REMARK  Name = D0GY5Z
REMARK  5 active torsions:
REMARK  status: ('A' for Active; 'I' for Inactive)
REMARK    1  A    between atoms: O_1  and  C_5
REMARK    2  A    between atoms: O_1  and  C_12
REMARK    3  A    between atoms: O_2  and  C_11
REMARK    4  A    between atoms: C_6  and  C_11
REMARK    5  A    between atoms: C_12  and  C_13
REMARK                            x       y       z     vdW  Elec       q    Type
REMARK                         _______ _______ _______ _____ _____    ______ ____
ROOT
ATOM      1  C   UNL A   1     -28.774  23.739  36.276  0.00  0.00    +0.146 A 
ATOM      2  C   UNL A   1     -29.301  24.528  37.308  0.00  0.00    +0.101 A 
ATOM      3  C   UNL A   1     -28.856  22.343  36.318  0.00  0.00    +0.047 A 
ATOM      4  C   UNL A   1     -29.881  23.882  38.412  0.00  0.00    +0.019 A 
ATOM      5  C   UNL A   1     -29.432  21.717  37.422  0.00  0.00    +0.004 A 
ATOM      6  C   UNL A   1     -29.940  22.485  38.469  0.00  0.00    +0.001 A 
ENDROOT
BRANCH   2   8
ATOM      7  O   UNL A   1     -30.177  26.772  37.043  0.00  0.00    -0.245 OA
ATOM      8  C   UNL A   1     -29.247  26.011  37.236  0.00  0.00    +0.340 C 
BRANCH   8   9
ATOM      9  O   UNL A   1     -28.001  26.492  37.424  0.00  0.00    -0.477 OA
ATOM     10  H   UNL A   1     -28.150  27.424  37.689  0.00  0.00    +0.295 HD
ENDBRANCH   8   9
ENDBRANCH   2   8
BRANCH   1  11
ATOM     11  O   UNL A   1     -28.182  24.298  35.139  0.00  0.00    -0.425 OA
BRANCH  11  13
ATOM     12  O   UNL A   1     -26.086  24.303  36.169  0.00  0.00    -0.251 OA
ATOM     13  C   UNL A   1     -26.797  24.206  35.176  0.00  0.00    +0.309 C 
ATOM     14  C   UNL A   1     -26.263  23.926  33.802  0.00  0.00    +0.136 C 
ENDBRANCH  11  13
ENDBRANCH   1  11
TORSDOF 4
