REMARK  Name = D0GY5Z
REMARK  5 active torsions:
REMARK  status: ('A' for Active; 'I' for Inactive)
REMARK    1  A    between atoms: O_1  and  C_5
REMARK    2  A    between atoms: O_1  and  C_12
REMARK    3  A    between atoms: O_2  and  C_11
REMARK    4  A    between atoms: C_6  and  C_11
REMARK    5  A    between atoms: C_12  and  C_13
REMARK                            x       y       z     vdW  Elec       q    Type
REMARK                         _______ _______ _______ _____ _____    ______ ____
ROOT
ATOM      1  C   UNL A   1      -0.002   0.010   0.018  0.00  0.00    +0.146 A 
ATOM      2  C   UNL A   1      -1.213  -0.689   0.125  0.00  0.00    +0.101 A 
ATOM      3  C   UNL A   1       1.214  -0.667  -0.129  0.00  0.00    +0.047 A 
ATOM      4  C   UNL A   1      -1.175  -2.093   0.122  0.00  0.00    +0.019 A 
ATOM      5  C   UNL A   1       1.234  -2.060  -0.128  0.00  0.00    +0.004 A 
ATOM      6  C   UNL A   1       0.042  -2.772   0.002  0.00  0.00    +0.001 A 
ENDROOT
BRANCH   2   8
ATOM      7  O   UNL A   1      -2.671   1.244   0.228  0.00  0.00    -0.245 OA
ATOM      8  C   UNL A   1      -2.503   0.038   0.240  0.00  0.00    +0.340 C 
BRANCH   8   9
ATOM      9  O   UNL A   1      -3.557  -0.795   0.357  0.00  0.00    -0.477 OA
ATOM     10  H   UNL A   1      -4.324  -0.189   0.435  0.00  0.00    +0.295 HD
ENDBRANCH   8   9
ENDBRANCH   2   8
BRANCH   1  11
ATOM     11  O   UNL A   1       0.054   1.407   0.009  0.00  0.00    -0.425 OA
BRANCH  11  13
ATOM     12  O   UNL A   1       0.063   1.301   2.343  0.00  0.00    -0.251 OA
ATOM     13  C   UNL A   1       0.065   1.935   1.294  0.00  0.00    +0.309 C 
ATOM     14  C   UNL A   1       0.118   3.433   1.234  0.00  0.00    +0.136 C 
ENDBRANCH  11  13
ENDBRANCH   1  11
TORSDOF 4
