REMARK VINA RESULT:      -5.6     11.878     13.293
REMARK  Name = D0GY5Z
REMARK  5 active torsions:
REMARK  status: ('A' for Active; 'I' for Inactive)
REMARK    1  A    between atoms: O_1  and  C_5
REMARK    2  A    between atoms: O_1  and  C_12
REMARK    3  A    between atoms: O_2  and  C_11
REMARK    4  A    between atoms: C_6  and  C_11
REMARK    5  A    between atoms: C_12  and  C_13
REMARK                            x       y       z     vdW  Elec       q    Type
REMARK                         _______ _______ _______ _____ _____    ______ ____
ROOT
ATOM      1  C   UNL A   1      -2.699   4.145  45.911  0.00  0.00    +0.146 A 
ATOM      2  C   UNL A   1      -2.285   3.402  44.796  0.00  0.00    +0.101 A 
ATOM      3  C   UNL A   1      -4.056   4.296  46.218  0.00  0.00    +0.047 A 
ATOM      4  C   UNL A   1      -3.270   2.842  43.966  0.00  0.00    +0.019 A 
ATOM      5  C   UNL A   1      -5.020   3.735  45.383  0.00  0.00    +0.004 A 
ATOM      6  C   UNL A   1      -4.628   3.013  44.256  0.00  0.00    +0.001 A 
ENDROOT
BRANCH   2   8
ATOM      7  O   UNL A   1      -0.292   3.329  43.420  0.00  0.00    -0.245 OA
ATOM      8  C   UNL A   1      -0.842   3.214  44.500  0.00  0.00    +0.340 C 
BRANCH   8   9
ATOM      9  O   UNL A   1      -0.127   2.891  45.597  0.00  0.00    -0.477 OA
ATOM     10  H   UNL A   1       0.362   2.086  45.327  0.00  0.00    +0.295 HD
ENDBRANCH   8   9
ENDBRANCH   2   8
BRANCH   1  11
ATOM     11  O   UNL A   1      -1.788   4.736  46.792  0.00  0.00    -0.425 OA
BRANCH  11  13
ATOM     12  O   UNL A   1      -2.311   6.958  46.294  0.00  0.00    -0.251 OA
ATOM     13  C   UNL A   1      -2.133   6.047  47.095  0.00  0.00    +0.309 C 
ATOM     14  C   UNL A   1      -2.302   6.205  48.577  0.00  0.00    +0.136 C 
ENDBRANCH  11  13
ENDBRANCH   1  11
TORSDOF 4
