REMARK VINA RESULT:      -5.6     23.375     24.847
REMARK  Name = D0GY5Z
REMARK  5 active torsions:
REMARK  status: ('A' for Active; 'I' for Inactive)
REMARK    1  A    between atoms: O_1  and  C_5
REMARK    2  A    between atoms: O_1  and  C_12
REMARK    3  A    between atoms: O_2  and  C_11
REMARK    4  A    between atoms: C_6  and  C_11
REMARK    5  A    between atoms: C_12  and  C_13
REMARK                            x       y       z     vdW  Elec       q    Type
REMARK                         _______ _______ _______ _____ _____    ______ ____
ROOT
ATOM      1  C   UNL A   1     -23.621  -9.920  50.017  0.00  0.00    +0.146 A 
ATOM      2  C   UNL A   1     -23.767  -9.967  51.411  0.00  0.00    +0.101 A 
ATOM      3  C   UNL A   1     -23.933 -11.027  49.219  0.00  0.00    +0.047 A 
ATOM      4  C   UNL A   1     -24.198 -11.168  51.997  0.00  0.00    +0.019 A 
ATOM      5  C   UNL A   1     -24.357 -12.212  49.817  0.00  0.00    +0.004 A 
ATOM      6  C   UNL A   1     -24.485 -12.284  51.203  0.00  0.00    +0.001 A 
ENDROOT
BRANCH   2   8
ATOM      7  O   UNL A   1     -24.128  -7.751  52.324  0.00  0.00    -0.245 OA
ATOM      8  C   UNL A   1     -23.473  -8.775  52.247  0.00  0.00    +0.340 C 
BRANCH   8   9
ATOM      9  O   UNL A   1     -22.349  -8.921  52.977  0.00  0.00    -0.477 OA
ATOM     10  H   UNL A   1     -21.652  -9.072  52.304  0.00  0.00    +0.295 HD
ENDBRANCH   8   9
ENDBRANCH   2   8
BRANCH   1  11
ATOM     11  O   UNL A   1     -23.201  -8.766  49.350  0.00  0.00    -0.425 OA
BRANCH  11  13
ATOM     12  O   UNL A   1     -24.063  -8.331  47.222  0.00  0.00    -0.251 OA
ATOM     13  C   UNL A   1     -24.153  -8.314  48.444  0.00  0.00    +0.309 C 
ATOM     14  C   UNL A   1     -25.365  -7.817  49.176  0.00  0.00    +0.136 C 
ENDBRANCH  11  13
ENDBRANCH   1  11
TORSDOF 4
