REMARK VINA RESULT:      -5.6     12.240     14.172
REMARK  Name = D0GY5Z
REMARK  5 active torsions:
REMARK  status: ('A' for Active; 'I' for Inactive)
REMARK    1  A    between atoms: O_1  and  C_5
REMARK    2  A    between atoms: O_1  and  C_12
REMARK    3  A    between atoms: O_2  and  C_11
REMARK    4  A    between atoms: C_6  and  C_11
REMARK    5  A    between atoms: C_12  and  C_13
REMARK                            x       y       z     vdW  Elec       q    Type
REMARK                         _______ _______ _______ _____ _____    ______ ____
ROOT
ATOM      1  C   UNL A   1      -8.208  -2.693  40.761  0.00  0.00    +0.146 A 
ATOM      2  C   UNL A   1      -8.331  -1.336  41.093  0.00  0.00    +0.101 A 
ATOM      3  C   UNL A   1      -9.038  -3.282  39.800  0.00  0.00    +0.047 A 
ATOM      4  C   UNL A   1      -9.339  -0.585  40.465  0.00  0.00    +0.019 A 
ATOM      5  C   UNL A   1     -10.034  -2.523  39.189  0.00  0.00    +0.004 A 
ATOM      6  C   UNL A   1     -10.187  -1.178  39.525  0.00  0.00    +0.001 A 
ENDROOT
BRANCH   2   8
ATOM      7  O   UNL A   1      -7.718   0.082  42.960  0.00  0.00    -0.245 OA
ATOM      8  C   UNL A   1      -7.419  -0.709  42.084  0.00  0.00    +0.340 C 
BRANCH   8   9
ATOM      9  O   UNL A   1      -6.142  -1.117  41.941  0.00  0.00    -0.477 OA
ATOM     10  H   UNL A   1      -5.943  -0.932  40.999  0.00  0.00    +0.295 HD
ENDBRANCH   8   9
ENDBRANCH   2   8
BRANCH   1  11
ATOM     11  O   UNL A   1      -7.231  -3.514  41.333  0.00  0.00    -0.425 OA
BRANCH  11  13
ATOM     12  O   UNL A   1      -5.518  -3.111  39.797  0.00  0.00    -0.251 OA
ATOM     13  C   UNL A   1      -6.251  -3.873  40.416  0.00  0.00    +0.309 C 
ATOM     14  C   UNL A   1      -6.177  -5.367  40.301  0.00  0.00    +0.136 C 
ENDBRANCH  11  13
ENDBRANCH   1  11
TORSDOF 4
