MODEL 1
REMARK VINA RESULT:      -8.4      0.000      0.000
REMARK  Name = D01QIN
REMARK  17 active torsions:
REMARK  status: ('A' for Active; 'I' for Inactive)
REMARK    1  A    between atoms: O_2  and  C_16
REMARK    2  A    between atoms: O_3  and  C_22
REMARK    3  A    between atoms: O_5  and  C_35
REMARK    4  A    between atoms: N_7  and  C_10
REMARK    5  A    between atoms: N_8  and  C_34
REMARK    6  A    between atoms: C_9  and  C_12
REMARK    7  A    between atoms: C_10  and  C_13
REMARK    8  A    between atoms: C_11  and  C_18
REMARK    9  A    between atoms: C_12  and  C_19
REMARK   10  A    between atoms: C_12  and  C_20
REMARK   11  A    between atoms: C_13  and  C_16
REMARK   12  A    between atoms: C_14  and  C_23
REMARK   13  A    between atoms: C_15  and  C_21
REMARK   14  A    between atoms: C_16  and  C_17
REMARK   15  A    between atoms: C_17  and  C_22
REMARK   16  A    between atoms: C_22  and  C_24
REMARK   17  A    between atoms: C_24  and  C_35
REMARK                            x       y       z     vdW  Elec       q    Type
REMARK                         _______ _______ _______ _____ _____    ______ ____
ROOT
ATOM      1  N   UNL A   1     -14.646   6.762  45.291  0.00  0.00    -0.342 N 
ATOM      2  C   UNL A   1     -15.911   6.244  45.533  0.00  0.00    +0.035 A 
ATOM      3  C   UNL A   1     -14.446   7.943  46.010  0.00  0.00    +0.058 A 
ATOM      4  C   UNL A   1     -16.526   7.106  46.434  0.00  0.00    +0.066 A 
ATOM      5  C   UNL A   1     -15.633   8.166  46.712  0.00  0.00    +0.020 A 
ENDROOT
BRANCH   3   7
ATOM      6  F   UNL A   1      -9.777  11.049  45.875  0.00  0.00    -0.205 F 
ATOM      7  C   UNL A   1     -13.235   8.776  45.965  0.00  0.00    -0.001 A 
ATOM      8  C   UNL A   1     -12.165   8.496  46.832  0.00  0.00    +0.013 A 
ATOM      9  C   UNL A   1     -13.083   9.819  45.040  0.00  0.00    +0.013 A 
ATOM     10  C   UNL A   1     -10.990   9.245  46.787  0.00  0.00    +0.039 A 
ATOM     11  C   UNL A   1     -11.932  10.610  45.034  0.00  0.00    +0.039 A 
ATOM     12  C   UNL A   1     -10.892  10.311  45.901  0.00  0.00    +0.123 A 
ENDBRANCH   3   7
BRANCH   5  13
ATOM     13  C   UNL A   1     -15.866   9.283  47.616  0.00  0.00    -0.015 A 
ATOM     14  C   UNL A   1     -15.597   9.130  48.984  0.00  0.00    +0.008 A 
ATOM     15  C   UNL A   1     -16.333  10.510  47.138  0.00  0.00    +0.008 A 
ATOM     16  C   UNL A   1     -15.805  10.188  49.860  0.00  0.00    +0.001 A 
ATOM     17  C   UNL A   1     -16.543  11.566  48.020  0.00  0.00    +0.001 A 
ATOM     18  C   UNL A   1     -16.282  11.410  49.382  0.00  0.00    +0.000 A 
ENDBRANCH   5  13
BRANCH   4  21
ATOM     19  O   UNL A   1     -18.844   7.139  46.536  0.00  0.00    -0.270 OA
ATOM     20  N   UNL A   1     -17.665   6.433  48.419  0.00  0.00    -0.281 N 
ATOM     21  C   UNL A   1     -17.796   6.877  47.113  0.00  0.00    +0.251 C 
ATOM     22  H   UNL A   1     -16.738   6.448  48.822  0.00  0.00    +0.155 HD
BRANCH  20  23
ATOM     23  C   UNL A   1     -18.770   6.272  49.285  0.00  0.00    +0.034 A 
ATOM     24  C   UNL A   1     -19.441   5.052  49.382  0.00  0.00    +0.023 A 
ATOM     25  C   UNL A   1     -19.220   7.363  50.036  0.00  0.00    +0.023 A 
ATOM     26  C   UNL A   1     -20.575   4.922  50.179  0.00  0.00    +0.002 A 
ATOM     27  C   UNL A   1     -20.369   7.235  50.827  0.00  0.00    +0.002 A 
ATOM     28  C   UNL A   1     -21.044   6.016  50.896  0.00  0.00    +0.000 A 
ENDBRANCH  20  23
ENDBRANCH   4  21
BRANCH   2  29
ATOM     29  C   UNL A   1     -16.431   4.949  44.937  0.00  0.00    +0.030 C 
ATOM     30  C   UNL A   1     -17.052   5.177  43.557  0.00  0.00    +0.014 C 
ATOM     31  C   UNL A   1     -15.332   3.887  44.888  0.00  0.00    +0.014 C 
ENDBRANCH   2  29
BRANCH   1  32
ATOM     32  C   UNL A   1     -13.691   6.173  44.361  0.00  0.00    +0.124 C 
BRANCH  32  33
ATOM     33  C   UNL A   1     -13.888   6.704  42.948  0.00  0.00    +0.053 C 
BRANCH  33  34
ATOM     34  C   UNL A   1     -12.568   7.246  42.411  0.00  0.00    +0.119 C 
BRANCH  34  35
ATOM     35  O   UNL A   1     -11.701   6.135  42.212  0.00  0.00    -0.392 OA
ATOM     36  H   UNL A   1     -11.844   5.491  42.924  0.00  0.00    +0.210 HD
ENDBRANCH  34  35
BRANCH  34  37
ATOM     37  C   UNL A   1     -12.785   8.047  41.118  0.00  0.00    +0.063 C 
BRANCH  37  38
ATOM     38  C   UNL A   1     -12.907   9.556  41.381  0.00  0.00    +0.128 C 
BRANCH  38  39
ATOM     39  O   UNL A   1     -11.615  10.147  41.393  0.00  0.00    -0.391 OA
ATOM     40  H   UNL A   1     -11.094   9.769  42.111  0.00  0.00    +0.210 HD
ENDBRANCH  38  39
BRANCH  38  41
ATOM     41  C   UNL A   1     -13.755  10.239  40.309  0.00  0.00    +0.151 C 
BRANCH  41  43
ATOM     42  O   UNL A   1     -12.473  12.011  39.189  0.00  0.00    -0.251 OA
ATOM     43  C   UNL A   1     -12.880  10.866  39.257  0.00  0.00    +0.307 C 
BRANCH  43  44
ATOM     44  O   UNL A   1     -12.572   9.986  38.282  0.00  0.00    -0.481 OA
ATOM     45  H   UNL A   1     -12.344   9.174  38.785  0.00  0.00    +0.295 HD
ENDBRANCH  43  44
ENDBRANCH  41  43
ENDBRANCH  38  41
ENDBRANCH  37  38
ENDBRANCH  34  37
ENDBRANCH  33  34
ENDBRANCH  32  33
ENDBRANCH   1  32
TORSDOF 15
ENDMDL
MODEL 2
REMARK VINA RESULT:      -8.2      1.534      2.055
REMARK  Name = D01QIN
REMARK  17 active torsions:
REMARK  status: ('A' for Active; 'I' for Inactive)
REMARK    1  A    between atoms: O_2  and  C_16
REMARK    2  A    between atoms: O_3  and  C_22
REMARK    3  A    between atoms: O_5  and  C_35
REMARK    4  A    between atoms: N_7  and  C_10
REMARK    5  A    between atoms: N_8  and  C_34
REMARK    6  A    between atoms: C_9  and  C_12
REMARK    7  A    between atoms: C_10  and  C_13
REMARK    8  A    between atoms: C_11  and  C_18
REMARK    9  A    between atoms: C_12  and  C_19
REMARK   10  A    between atoms: C_12  and  C_20
REMARK   11  A    between atoms: C_13  and  C_16
REMARK   12  A    between atoms: C_14  and  C_23
REMARK   13  A    between atoms: C_15  and  C_21
REMARK   14  A    between atoms: C_16  and  C_17
REMARK   15  A    between atoms: C_17  and  C_22
REMARK   16  A    between atoms: C_22  and  C_24
REMARK   17  A    between atoms: C_24  and  C_35
REMARK                            x       y       z     vdW  Elec       q    Type
REMARK                         _______ _______ _______ _____ _____    ______ ____
ROOT
ATOM      1  N   UNL A   1     -14.304   7.991  44.901  0.00  0.00    -0.342 N 
ATOM      2  C   UNL A   1     -15.106   6.899  45.205  0.00  0.00    +0.035 A 
ATOM      3  C   UNL A   1     -14.241   8.878  45.978  0.00  0.00    +0.058 A 
ATOM      4  C   UNL A   1     -15.553   7.088  46.507  0.00  0.00    +0.066 A 
ATOM      5  C   UNL A   1     -15.039   8.319  46.978  0.00  0.00    +0.020 A 
ENDROOT
BRANCH   3   7
ATOM      6  F   UNL A   1     -11.536  13.792  46.024  0.00  0.00    -0.205 F 
ATOM      7  C   UNL A   1     -13.511  10.155  45.992  0.00  0.00    -0.001 A 
ATOM      8  C   UNL A   1     -14.097  11.298  45.424  0.00  0.00    +0.013 A 
ATOM      9  C   UNL A   1     -12.258  10.288  46.609  0.00  0.00    +0.013 A 
ATOM     10  C   UNL A   1     -13.444  12.530  45.455  0.00  0.00    +0.039 A 
ATOM     11  C   UNL A   1     -11.575  11.506  46.587  0.00  0.00    +0.039 A 
ATOM     12  C   UNL A   1     -12.177  12.618  46.019  0.00  0.00    +0.123 A 
ENDBRANCH   3   7
BRANCH   5  13
ATOM     13  C   UNL A   1     -15.247   8.899  48.297  0.00  0.00    -0.015 A 
ATOM     14  C   UNL A   1     -14.425   8.502  49.362  0.00  0.00    +0.008 A 
ATOM     15  C   UNL A   1     -16.238   9.860  48.512  0.00  0.00    +0.008 A 
ATOM     16  C   UNL A   1     -14.604   9.050  50.626  0.00  0.00    +0.001 A 
ATOM     17  C   UNL A   1     -16.416  10.405  49.781  0.00  0.00    +0.001 A 
ATOM     18  C   UNL A   1     -15.602  10.003  50.840  0.00  0.00    +0.000 A 
ENDBRANCH   5  13
BRANCH   4  21
ATOM     19  O   UNL A   1     -15.810   4.997  47.480  0.00  0.00    -0.270 OA
ATOM     20  N   UNL A   1     -17.506   6.569  47.776  0.00  0.00    -0.281 N 
ATOM     21  C   UNL A   1     -16.279   6.116  47.317  0.00  0.00    +0.251 C 
ATOM     22  H   UNL A   1     -17.846   7.443  47.401  0.00  0.00    +0.155 HD
BRANCH  20  23
ATOM     23  C   UNL A   1     -18.414   5.738  48.471  0.00  0.00    +0.034 A 
ATOM     24  C   UNL A   1     -19.791   5.961  48.409  0.00  0.00    +0.023 A 
ATOM     25  C   UNL A   1     -17.925   4.692  49.260  0.00  0.00    +0.023 A 
ATOM     26  C   UNL A   1     -20.675   5.186  49.155  0.00  0.00    +0.002 A 
ATOM     27  C   UNL A   1     -18.813   3.922  50.021  0.00  0.00    +0.002 A 
ATOM     28  C   UNL A   1     -20.185   4.172  49.968  0.00  0.00    +0.000 A 
ENDBRANCH  20  23
ENDBRANCH   4  21
BRANCH   2  29
ATOM     29  C   UNL A   1     -15.351   5.733  44.266  0.00  0.00    +0.030 C 
ATOM     30  C   UNL A   1     -14.504   4.518  44.649  0.00  0.00    +0.014 C 
ATOM     31  C   UNL A   1     -16.838   5.382  44.203  0.00  0.00    +0.014 C 
ENDBRANCH   2  29
BRANCH   1  32
ATOM     32  C   UNL A   1     -13.671   8.198  43.604  0.00  0.00    +0.124 C 
BRANCH  32  33
ATOM     33  C   UNL A   1     -12.245   7.666  43.589  0.00  0.00    +0.053 C 
BRANCH  33  34
ATOM     34  C   UNL A   1     -11.790   7.444  42.151  0.00  0.00    +0.119 C 
BRANCH  34  35
ATOM     35  O   UNL A   1     -11.537   6.052  41.994  0.00  0.00    -0.392 OA
ATOM     36  H   UNL A   1     -10.792   5.800  42.562  0.00  0.00    +0.210 HD
ENDBRANCH  34  35
BRANCH  34  37
ATOM     37  C   UNL A   1     -12.840   7.955  41.154  0.00  0.00    +0.063 C 
BRANCH  37  38
ATOM     38  C   UNL A   1     -12.345   9.175  40.360  0.00  0.00    +0.128 C 
BRANCH  38  39
ATOM     39  O   UNL A   1     -12.374   8.886  38.969  0.00  0.00    -0.391 OA
ATOM     40  H   UNL A   1     -13.277   8.974  38.640  0.00  0.00    +0.210 HD
ENDBRANCH  38  39
BRANCH  38  41
ATOM     41  C   UNL A   1     -13.213  10.402  40.630  0.00  0.00    +0.151 C 
BRANCH  41  43
ATOM     42  O   UNL A   1     -12.505  11.935  38.845  0.00  0.00    -0.251 OA
ATOM     43  C   UNL A   1     -13.347  11.244  39.390  0.00  0.00    +0.307 C 
BRANCH  43  44
ATOM     44  O   UNL A   1     -14.599  11.195  38.891  0.00  0.00    -0.481 OA
ATOM     45  H   UNL A   1     -14.592  10.367  38.365  0.00  0.00    +0.295 HD
ENDBRANCH  43  44
ENDBRANCH  41  43
ENDBRANCH  38  41
ENDBRANCH  37  38
ENDBRANCH  34  37
ENDBRANCH  33  34
ENDBRANCH  32  33
ENDBRANCH   1  32
TORSDOF 15
ENDMDL
MODEL 3
REMARK VINA RESULT:      -8.1     13.017     16.852
REMARK  Name = D01QIN
REMARK  17 active torsions:
REMARK  status: ('A' for Active; 'I' for Inactive)
REMARK    1  A    between atoms: O_2  and  C_16
REMARK    2  A    between atoms: O_3  and  C_22
REMARK    3  A    between atoms: O_5  and  C_35
REMARK    4  A    between atoms: N_7  and  C_10
REMARK    5  A    between atoms: N_8  and  C_34
REMARK    6  A    between atoms: C_9  and  C_12
REMARK    7  A    between atoms: C_10  and  C_13
REMARK    8  A    between atoms: C_11  and  C_18
REMARK    9  A    between atoms: C_12  and  C_19
REMARK   10  A    between atoms: C_12  and  C_20
REMARK   11  A    between atoms: C_13  and  C_16
REMARK   12  A    between atoms: C_14  and  C_23
REMARK   13  A    between atoms: C_15  and  C_21
REMARK   14  A    between atoms: C_16  and  C_17
REMARK   15  A    between atoms: C_17  and  C_22
REMARK   16  A    between atoms: C_22  and  C_24
REMARK   17  A    between atoms: C_24  and  C_35
REMARK                            x       y       z     vdW  Elec       q    Type
REMARK                         _______ _______ _______ _____ _____    ______ ____
ROOT
ATOM      1  N   UNL A   1     -25.170  -3.163  51.789  0.00  0.00    -0.342 N 
ATOM      2  C   UNL A   1     -26.348  -2.603  51.313  0.00  0.00    +0.035 A 
ATOM      3  C   UNL A   1     -24.226  -2.172  52.069  0.00  0.00    +0.058 A 
ATOM      4  C   UNL A   1     -26.156  -1.226  51.301  0.00  0.00    +0.066 A 
ATOM      5  C   UNL A   1     -24.840  -0.960  51.746  0.00  0.00    +0.020 A 
ENDROOT
BRANCH   3   7
ATOM      6  F   UNL A   1     -18.979  -3.062  53.841  0.00  0.00    -0.205 F 
ATOM      7  C   UNL A   1     -22.858  -2.408  52.556  0.00  0.00    -0.001 A 
ATOM      8  C   UNL A   1     -21.874  -2.874  51.669  0.00  0.00    +0.013 A 
ATOM      9  C   UNL A   1     -22.481  -2.129  53.878  0.00  0.00    +0.013 A 
ATOM     10  C   UNL A   1     -20.561  -3.072  52.093  0.00  0.00    +0.039 A 
ATOM     11  C   UNL A   1     -21.182  -2.385  54.322  0.00  0.00    +0.039 A 
ATOM     12  C   UNL A   1     -20.231  -2.845  53.424  0.00  0.00    +0.123 A 
ENDBRANCH   3   7
BRANCH   5  13
ATOM     13  C   UNL A   1     -24.225   0.351  51.902  0.00  0.00    -0.015 A 
ATOM     14  C   UNL A   1     -23.421   0.861  50.872  0.00  0.00    +0.008 A 
ATOM     15  C   UNL A   1     -24.442   1.116  53.050  0.00  0.00    +0.008 A 
ATOM     16  C   UNL A   1     -22.832   2.113  51.000  0.00  0.00    +0.001 A 
ATOM     17  C   UNL A   1     -23.849   2.369  53.175  0.00  0.00    +0.001 A 
ATOM     18  C   UNL A   1     -23.043   2.871  52.153  0.00  0.00    +0.000 A 
ENDBRANCH   5  13
BRANCH   4  21
ATOM     19  O   UNL A   1     -27.219   0.335  49.953  0.00  0.00    -0.270 OA
ATOM     20  N   UNL A   1     -27.978   0.064  52.140  0.00  0.00    -0.281 N 
ATOM     21  C   UNL A   1     -27.177  -0.217  51.045  0.00  0.00    +0.251 C 
ATOM     22  H   UNL A   1     -27.702  -0.329  53.029  0.00  0.00    +0.155 HD
BRANCH  20  23
ATOM     23  C   UNL A   1     -28.942   1.098  52.135  0.00  0.00    +0.034 A 
ATOM     24  C   UNL A   1     -28.578   2.426  52.362  0.00  0.00    +0.023 A 
ATOM     25  C   UNL A   1     -30.289   0.782  51.929  0.00  0.00    +0.023 A 
ATOM     26  C   UNL A   1     -29.542   3.429  52.430  0.00  0.00    +0.002 A 
ATOM     27  C   UNL A   1     -31.259   1.790  52.011  0.00  0.00    +0.002 A 
ATOM     28  C   UNL A   1     -30.883   3.109  52.262  0.00  0.00    +0.000 A 
ENDBRANCH  20  23
ENDBRANCH   4  21
BRANCH   2  29
ATOM     29  C   UNL A   1     -27.587  -3.401  50.951  0.00  0.00    +0.030 C 
ATOM     30  C   UNL A   1     -28.692  -3.223  51.995  0.00  0.00    +0.014 C 
ATOM     31  C   UNL A   1     -28.080  -3.047  49.549  0.00  0.00    +0.014 C 
ENDBRANCH   2  29
BRANCH   1  32
ATOM     32  C   UNL A   1     -24.945  -4.597  51.914  0.00  0.00    +0.124 C 
BRANCH  32  33
ATOM     33  C   UNL A   1     -24.505  -5.210  50.592  0.00  0.00    +0.053 C 
BRANCH  33  34
ATOM     34  C   UNL A   1     -25.341  -6.448  50.291  0.00  0.00    +0.119 C 
BRANCH  34  35
ATOM     35  O   UNL A   1     -25.889  -6.286  48.987  0.00  0.00    -0.392 OA
ATOM     36  H   UNL A   1     -26.837  -6.488  49.014  0.00  0.00    +0.210 HD
ENDBRANCH  34  35
BRANCH  34  37
ATOM     37  C   UNL A   1     -24.499  -7.726  50.408  0.00  0.00    +0.063 C 
BRANCH  37  38
ATOM     38  C   UNL A   1     -24.308  -8.425  49.052  0.00  0.00    +0.128 C 
BRANCH  38  39
ATOM     39  O   UNL A   1     -23.286  -7.771  48.314  0.00  0.00    -0.391 OA
ATOM     40  H   UNL A   1     -22.889  -8.392  47.692  0.00  0.00    +0.210 HD
ENDBRANCH  38  39
BRANCH  38  41
ATOM     41  C   UNL A   1     -23.927  -9.893  49.234  0.00  0.00    +0.151 C 
BRANCH  41  43
ATOM     42  O   UNL A   1     -25.031 -11.899  48.342  0.00  0.00    -0.251 OA
ATOM     43  C   UNL A   1     -24.629 -10.756  48.221  0.00  0.00    +0.307 C 
BRANCH  43  44
ATOM     44  O   UNL A   1     -24.772 -10.117  47.041  0.00  0.00    -0.481 OA
ATOM     45  H   UNL A   1     -23.869 -10.158  46.660  0.00  0.00    +0.295 HD
ENDBRANCH  43  44
ENDBRANCH  41  43
ENDBRANCH  38  41
ENDBRANCH  37  38
ENDBRANCH  34  37
ENDBRANCH  33  34
ENDBRANCH  32  33
ENDBRANCH   1  32
TORSDOF 15
ENDMDL
MODEL 4
REMARK VINA RESULT:      -8.0      1.859      4.331
REMARK  Name = D01QIN
REMARK  17 active torsions:
REMARK  status: ('A' for Active; 'I' for Inactive)
REMARK    1  A    between atoms: O_2  and  C_16
REMARK    2  A    between atoms: O_3  and  C_22
REMARK    3  A    between atoms: O_5  and  C_35
REMARK    4  A    between atoms: N_7  and  C_10
REMARK    5  A    between atoms: N_8  and  C_34
REMARK    6  A    between atoms: C_9  and  C_12
REMARK    7  A    between atoms: C_10  and  C_13
REMARK    8  A    between atoms: C_11  and  C_18
REMARK    9  A    between atoms: C_12  and  C_19
REMARK   10  A    between atoms: C_12  and  C_20
REMARK   11  A    between atoms: C_13  and  C_16
REMARK   12  A    between atoms: C_14  and  C_23
REMARK   13  A    between atoms: C_15  and  C_21
REMARK   14  A    between atoms: C_16  and  C_17
REMARK   15  A    between atoms: C_17  and  C_22
REMARK   16  A    between atoms: C_22  and  C_24
REMARK   17  A    between atoms: C_24  and  C_35
REMARK                            x       y       z     vdW  Elec       q    Type
REMARK                         _______ _______ _______ _____ _____    ______ ____
ROOT
ATOM      1  N   UNL A   1     -13.492   9.830  46.657  0.00  0.00    -0.342 N 
ATOM      2  C   UNL A   1     -14.746   9.832  47.252  0.00  0.00    +0.035 A 
ATOM      3  C   UNL A   1     -13.245   8.610  46.023  0.00  0.00    +0.058 A 
ATOM      4  C   UNL A   1     -15.315   8.594  46.982  0.00  0.00    +0.066 A 
ATOM      5  C   UNL A   1     -14.382   7.830  46.242  0.00  0.00    +0.020 A 
ENDROOT
BRANCH   3   7
ATOM      6  F   UNL A   1      -8.480   7.189  43.425  0.00  0.00    -0.205 F 
ATOM      7  C   UNL A   1     -12.004   8.248  45.322  0.00  0.00    -0.001 A 
ATOM      8  C   UNL A   1     -10.829   8.020  46.058  0.00  0.00    +0.013 A 
ATOM      9  C   UNL A   1     -11.961   8.065  43.931  0.00  0.00    +0.013 A 
ATOM     10  C   UNL A   1      -9.647   7.639  45.424  0.00  0.00    +0.039 A 
ATOM     11  C   UNL A   1     -10.764   7.745  43.287  0.00  0.00    +0.039 A 
ATOM     12  C   UNL A   1      -9.620   7.526  44.039  0.00  0.00    +0.123 A 
ENDBRANCH   3   7
BRANCH   5  13
ATOM     13  C   UNL A   1     -14.573   6.478  45.737  0.00  0.00    -0.015 A 
ATOM     14  C   UNL A   1     -15.254   6.285  44.526  0.00  0.00    +0.008 A 
ATOM     15  C   UNL A   1     -14.069   5.373  46.429  0.00  0.00    +0.008 A 
ATOM     16  C   UNL A   1     -15.438   5.003  44.025  0.00  0.00    +0.001 A 
ATOM     17  C   UNL A   1     -14.259   4.090  45.924  0.00  0.00    +0.001 A 
ATOM     18  C   UNL A   1     -14.943   3.900  44.723  0.00  0.00    +0.000 A 
ENDBRANCH   5  13
BRANCH   4  21
ATOM     19  O   UNL A   1     -17.578   8.526  46.471  0.00  0.00    -0.270 OA
ATOM     20  N   UNL A   1     -16.863   7.534  48.456  0.00  0.00    -0.281 N 
ATOM     21  C   UNL A   1     -16.693   8.202  47.254  0.00  0.00    +0.251 C 
ATOM     22  H   UNL A   1     -16.073   7.508  49.086  0.00  0.00    +0.155 HD
BRANCH  20  23
ATOM     23  C   UNL A   1     -18.135   7.180  48.960  0.00  0.00    +0.034 A 
ATOM     24  C   UNL A   1     -18.802   7.997  49.875  0.00  0.00    +0.023 A 
ATOM     25  C   UNL A   1     -18.724   5.977  48.559  0.00  0.00    +0.023 A 
ATOM     26  C   UNL A   1     -20.021   7.607  50.424  0.00  0.00    +0.002 A 
ATOM     27  C   UNL A   1     -19.943   5.579  49.123  0.00  0.00    +0.002 A 
ATOM     28  C   UNL A   1     -20.587   6.394  50.054  0.00  0.00    +0.000 A 
ENDBRANCH  20  23
ENDBRANCH   4  21
BRANCH   2  29
ATOM     29  C   UNL A   1     -15.338  11.019  47.990  0.00  0.00    +0.030 C 
ATOM     30  C   UNL A   1     -16.438  11.696  47.169  0.00  0.00    +0.014 C 
ATOM     31  C   UNL A   1     -15.843  10.611  49.374  0.00  0.00    +0.014 C 
ENDBRANCH   2  29
BRANCH   1  32
ATOM     32  C   UNL A   1     -12.548  10.937  46.745  0.00  0.00    +0.124 C 
BRANCH  32  33
ATOM     33  C   UNL A   1     -12.138  11.431  45.365  0.00  0.00    +0.053 C 
BRANCH  33  34
ATOM     34  C   UNL A   1     -13.321  12.109  44.685  0.00  0.00    +0.119 C 
BRANCH  34  35
ATOM     35  O   UNL A   1     -12.865  13.362  44.186  0.00  0.00    -0.392 OA
ATOM     36  H   UNL A   1     -11.942  13.494  44.457  0.00  0.00    +0.210 HD
ENDBRANCH  34  35
BRANCH  34  37
ATOM     37  C   UNL A   1     -13.903  11.224  43.573  0.00  0.00    +0.063 C 
BRANCH  37  38
ATOM     38  C   UNL A   1     -13.441  11.665  42.175  0.00  0.00    +0.128 C 
BRANCH  38  39
ATOM     39  O   UNL A   1     -12.275  10.942  41.804  0.00  0.00    -0.391 OA
ATOM     40  H   UNL A   1     -11.513  11.292  42.280  0.00  0.00    +0.210 HD
ENDBRANCH  38  39
BRANCH  38  41
ATOM     41  C   UNL A   1     -14.529  11.422  41.130  0.00  0.00    +0.151 C 
BRANCH  41  43
ATOM     42  O   UNL A   1     -13.487  11.882  38.952  0.00  0.00    -0.251 OA
ATOM     43  C   UNL A   1     -13.920  11.111  39.789  0.00  0.00    +0.307 C 
BRANCH  43  44
ATOM     44  O   UNL A   1     -13.913   9.784  39.545  0.00  0.00    -0.481 OA
ATOM     45  H   UNL A   1     -14.690   9.465  40.052  0.00  0.00    +0.295 HD
ENDBRANCH  43  44
ENDBRANCH  41  43
ENDBRANCH  38  41
ENDBRANCH  37  38
ENDBRANCH  34  37
ENDBRANCH  33  34
ENDBRANCH  32  33
ENDBRANCH   1  32
TORSDOF 15
ENDMDL
MODEL 5
REMARK VINA RESULT:      -8.0      2.410      8.490
REMARK  Name = D01QIN
REMARK  17 active torsions:
REMARK  status: ('A' for Active; 'I' for Inactive)
REMARK    1  A    between atoms: O_2  and  C_16
REMARK    2  A    between atoms: O_3  and  C_22
REMARK    3  A    between atoms: O_5  and  C_35
REMARK    4  A    between atoms: N_7  and  C_10
REMARK    5  A    between atoms: N_8  and  C_34
REMARK    6  A    between atoms: C_9  and  C_12
REMARK    7  A    between atoms: C_10  and  C_13
REMARK    8  A    between atoms: C_11  and  C_18
REMARK    9  A    between atoms: C_12  and  C_19
REMARK   10  A    between atoms: C_12  and  C_20
REMARK   11  A    between atoms: C_13  and  C_16
REMARK   12  A    between atoms: C_14  and  C_23
REMARK   13  A    between atoms: C_15  and  C_21
REMARK   14  A    between atoms: C_16  and  C_17
REMARK   15  A    between atoms: C_17  and  C_22
REMARK   16  A    between atoms: C_22  and  C_24
REMARK   17  A    between atoms: C_24  and  C_35
REMARK                            x       y       z     vdW  Elec       q    Type
REMARK                         _______ _______ _______ _____ _____    ______ ____
ROOT
ATOM      1  N   UNL A   1     -14.844   6.897  46.536  0.00  0.00    -0.342 N 
ATOM      2  C   UNL A   1     -14.225   6.661  45.315  0.00  0.00    +0.035 A 
ATOM      3  C   UNL A   1     -14.557   8.184  46.998  0.00  0.00    +0.058 A 
ATOM      4  C   UNL A   1     -13.541   7.825  44.986  0.00  0.00    +0.066 A 
ATOM      5  C   UNL A   1     -13.727   8.758  46.034  0.00  0.00    +0.020 A 
ENDROOT
BRANCH   3   7
ATOM      6  F   UNL A   1     -16.232  10.360  51.889  0.00  0.00    -0.205 F 
ATOM      7  C   UNL A   1     -15.019   8.756  48.272  0.00  0.00    -0.001 A 
ATOM      8  C   UNL A   1     -14.294   8.508  49.450  0.00  0.00    +0.013 A 
ATOM      9  C   UNL A   1     -16.140   9.596  48.347  0.00  0.00    +0.013 A 
ATOM     10  C   UNL A   1     -14.687   9.068  50.665  0.00  0.00    +0.039 A 
ATOM     11  C   UNL A   1     -16.571  10.107  49.573  0.00  0.00    +0.039 A 
ATOM     12  C   UNL A   1     -15.837   9.847  50.719  0.00  0.00    +0.123 A 
ENDBRANCH   3   7
BRANCH   5  13
ATOM     13  C   UNL A   1     -13.197  10.113  46.093  0.00  0.00    -0.015 A 
ATOM     14  C   UNL A   1     -12.048  10.371  46.855  0.00  0.00    +0.008 A 
ATOM     15  C   UNL A   1     -13.803  11.154  45.386  0.00  0.00    +0.008 A 
ATOM     16  C   UNL A   1     -11.524  11.655  46.918  0.00  0.00    +0.001 A 
ATOM     17  C   UNL A   1     -13.276  12.441  45.453  0.00  0.00    +0.001 A 
ATOM     18  C   UNL A   1     -12.137  12.696  46.218  0.00  0.00    +0.000 A 
ENDBRANCH   5  13
BRANCH   4  21
ATOM     19  O   UNL A   1     -11.678   7.971  43.612  0.00  0.00    -0.270 OA
ATOM     20  N   UNL A   1     -13.748   8.594  42.737  0.00  0.00    -0.281 N 
ATOM     21  C   UNL A   1     -12.890   8.111  43.713  0.00  0.00    +0.251 C 
ATOM     22  H   UNL A   1     -14.685   8.840  43.025  0.00  0.00    +0.155 HD
BRANCH  20  23
ATOM     23  C   UNL A   1     -13.292   9.047  41.478  0.00  0.00    +0.034 A 
ATOM     24  C   UNL A   1     -13.226  10.409  41.180  0.00  0.00    +0.023 A 
ATOM     25  C   UNL A   1     -12.931   8.114  40.501  0.00  0.00    +0.023 A 
ATOM     26  C   UNL A   1     -12.848  10.846  39.914  0.00  0.00    +0.002 A 
ATOM     27  C   UNL A   1     -12.565   8.553  39.223  0.00  0.00    +0.002 A 
ATOM     28  C   UNL A   1     -12.526   9.917  38.932  0.00  0.00    +0.000 A 
ENDBRANCH  20  23
ENDBRANCH   4  21
BRANCH   2  29
ATOM     29  C   UNL A   1     -14.364   5.374  44.523  0.00  0.00    +0.030 C 
ATOM     30  C   UNL A   1     -14.149   4.145  45.410  0.00  0.00    +0.014 C 
ATOM     31  C   UNL A   1     -15.711   5.316  43.803  0.00  0.00    +0.014 C 
ENDBRANCH   2  29
BRANCH   1  32
ATOM     32  C   UNL A   1     -15.631   5.902  47.254  0.00  0.00    +0.124 C 
BRANCH  32  33
ATOM     33  C   UNL A   1     -17.119   6.214  47.185  0.00  0.00    +0.053 C 
BRANCH  33  34
ATOM     34  C   UNL A   1     -17.768   5.943  48.537  0.00  0.00    +0.119 C 
BRANCH  34  35
ATOM     35  O   UNL A   1     -16.724   5.860  49.502  0.00  0.00    -0.392 OA
ATOM     36  H   UNL A   1     -16.381   4.952  49.519  0.00  0.00    +0.210 HD
ENDBRANCH  34  35
BRANCH  34  37
ATOM     37  C   UNL A   1     -18.792   7.032  48.887  0.00  0.00    +0.063 C 
BRANCH  37  38
ATOM     38  C   UNL A   1     -20.209   6.465  49.065  0.00  0.00    +0.128 C 
BRANCH  38  39
ATOM     39  O   UNL A   1     -20.595   5.762  47.893  0.00  0.00    -0.391 OA
ATOM     40  H   UNL A   1     -20.575   6.360  47.136  0.00  0.00    +0.210 HD
ENDBRANCH  38  39
BRANCH  38  41
ATOM     41  C   UNL A   1     -20.280   5.516  50.260  0.00  0.00    +0.151 C 
BRANCH  41  43
ATOM     42  O   UNL A   1     -21.795   3.710  49.565  0.00  0.00    -0.251 OA
ATOM     43  C   UNL A   1     -20.683   4.134  49.819  0.00  0.00    +0.307 C 
BRANCH  43  44
ATOM     44  O   UNL A   1     -19.617   3.309  49.746  0.00  0.00    -0.481 OA
ATOM     45  H   UNL A   1     -19.123   3.517  50.567  0.00  0.00    +0.295 HD
ENDBRANCH  43  44
ENDBRANCH  41  43
ENDBRANCH  38  41
ENDBRANCH  37  38
ENDBRANCH  34  37
ENDBRANCH  33  34
ENDBRANCH  32  33
ENDBRANCH   1  32
TORSDOF 15
ENDMDL
MODEL 6
REMARK VINA RESULT:      -7.9      3.454      6.279
REMARK  Name = D01QIN
REMARK  17 active torsions:
REMARK  status: ('A' for Active; 'I' for Inactive)
REMARK    1  A    between atoms: O_2  and  C_16
REMARK    2  A    between atoms: O_3  and  C_22
REMARK    3  A    between atoms: O_5  and  C_35
REMARK    4  A    between atoms: N_7  and  C_10
REMARK    5  A    between atoms: N_8  and  C_34
REMARK    6  A    between atoms: C_9  and  C_12
REMARK    7  A    between atoms: C_10  and  C_13
REMARK    8  A    between atoms: C_11  and  C_18
REMARK    9  A    between atoms: C_12  and  C_19
REMARK   10  A    between atoms: C_12  and  C_20
REMARK   11  A    between atoms: C_13  and  C_16
REMARK   12  A    between atoms: C_14  and  C_23
REMARK   13  A    between atoms: C_15  and  C_21
REMARK   14  A    between atoms: C_16  and  C_17
REMARK   15  A    between atoms: C_17  and  C_22
REMARK   16  A    between atoms: C_22  and  C_24
REMARK   17  A    between atoms: C_24  and  C_35
REMARK                            x       y       z     vdW  Elec       q    Type
REMARK                         _______ _______ _______ _____ _____    ______ ____
ROOT
ATOM      1  N   UNL A   1     -13.143   8.888  45.713  0.00  0.00    -0.342 N 
ATOM      2  C   UNL A   1     -12.579   9.910  46.465  0.00  0.00    +0.035 A 
ATOM      3  C   UNL A   1     -13.855   8.004  46.528  0.00  0.00    +0.058 A 
ATOM      4  C   UNL A   1     -12.949   9.680  47.785  0.00  0.00    +0.066 A 
ATOM      5  C   UNL A   1     -13.717   8.493  47.829  0.00  0.00    +0.020 A 
ENDROOT
BRANCH   3   7
ATOM      6  F   UNL A   1     -16.446   3.328  44.832  0.00  0.00    -0.205 F 
ATOM      7  C   UNL A   1     -14.549   6.792  46.070  0.00  0.00    -0.001 A 
ATOM      8  C   UNL A   1     -13.871   5.561  46.064  0.00  0.00    +0.013 A 
ATOM      9  C   UNL A   1     -15.899   6.807  45.686  0.00  0.00    +0.013 A 
ATOM     10  C   UNL A   1     -14.516   4.389  45.671  0.00  0.00    +0.039 A 
ATOM     11  C   UNL A   1     -16.528   5.647  45.233  0.00  0.00    +0.039 A 
ATOM     12  C   UNL A   1     -15.835   4.446  45.238  0.00  0.00    +0.123 A 
ENDBRANCH   3   7
BRANCH   5  13
ATOM     13  C   UNL A   1     -14.320   7.892  49.010  0.00  0.00    -0.015 A 
ATOM     14  C   UNL A   1     -13.507   7.209  49.926  0.00  0.00    +0.008 A 
ATOM     15  C   UNL A   1     -15.691   8.005  49.255  0.00  0.00    +0.008 A 
ATOM     16  C   UNL A   1     -14.063   6.637  51.063  0.00  0.00    +0.001 A 
ATOM     17  C   UNL A   1     -16.244   7.428  50.394  0.00  0.00    +0.001 A 
ATOM     18  C   UNL A   1     -15.435   6.742  51.300  0.00  0.00    +0.000 A 
ENDBRANCH   5  13
BRANCH   4  21
ATOM     19  O   UNL A   1     -13.611  11.392  49.204  0.00  0.00    -0.270 OA
ATOM     20  N   UNL A   1     -11.489  10.472  49.497  0.00  0.00    -0.281 N 
ATOM     21  C   UNL A   1     -12.738  10.586  48.908  0.00  0.00    +0.251 C 
ATOM     22  H   UNL A   1     -10.804   9.900  49.023  0.00  0.00    +0.155 HD
BRANCH  20  23
ATOM     23  C   UNL A   1     -11.044  11.344  50.517  0.00  0.00    +0.034 A 
ATOM     24  C   UNL A   1     -10.435  12.562  50.212  0.00  0.00    +0.023 A 
ATOM     25  C   UNL A   1     -11.189  10.967  51.856  0.00  0.00    +0.023 A 
ATOM     26  C   UNL A   1      -9.932  13.381  51.219  0.00  0.00    +0.002 A 
ATOM     27  C   UNL A   1     -10.671  11.785  52.868  0.00  0.00    +0.002 A 
ATOM     28  C   UNL A   1     -10.042  12.989  52.547  0.00  0.00    +0.000 A 
ENDBRANCH  20  23
ENDBRANCH   4  21
BRANCH   2  29
ATOM     29  C   UNL A   1     -11.775  11.056  45.880  0.00  0.00    +0.030 C 
ATOM     30  C   UNL A   1     -12.321  12.412  46.333  0.00  0.00    +0.014 C 
ATOM     31  C   UNL A   1     -10.290  10.912  46.212  0.00  0.00    +0.014 C 
ENDBRANCH   2  29
BRANCH   1  32
ATOM     32  C   UNL A   1     -12.955   8.739  44.275  0.00  0.00    +0.124 C 
BRANCH  32  33
ATOM     33  C   UNL A   1     -11.765   7.844  43.958  0.00  0.00    +0.053 C 
BRANCH  33  34
ATOM     34  C   UNL A   1     -11.666   7.629  42.453  0.00  0.00    +0.119 C 
BRANCH  34  35
ATOM     35  O   UNL A   1     -11.614   6.224  42.225  0.00  0.00    -0.392 OA
ATOM     36  H   UNL A   1     -11.266   6.061  41.334  0.00  0.00    +0.210 HD
ENDBRANCH  34  35
BRANCH  34  37
ATOM     37  C   UNL A   1     -12.843   8.288  41.720  0.00  0.00    +0.063 C 
BRANCH  37  38
ATOM     38  C   UNL A   1     -12.382   9.377  40.738  0.00  0.00    +0.128 C 
BRANCH  38  39
ATOM     39  O   UNL A   1     -12.414   8.871  39.411  0.00  0.00    -0.391 OA
ATOM     40  H   UNL A   1     -13.038   9.384  38.884  0.00  0.00    +0.210 HD
ENDBRANCH  38  39
BRANCH  38  41
ATOM     41  C   UNL A   1     -13.278  10.612  40.819  0.00  0.00    +0.151 C 
BRANCH  41  43
ATOM     42  O   UNL A   1     -12.544  11.916  38.870  0.00  0.00    -0.251 OA
ATOM     43  C   UNL A   1     -13.388  11.280  39.475  0.00  0.00    +0.307 C 
BRANCH  43  44
ATOM     44  O   UNL A   1     -14.621  11.131  38.948  0.00  0.00    -0.481 OA
ATOM     45  H   UNL A   1     -14.937  12.057  38.867  0.00  0.00    +0.295 HD
ENDBRANCH  43  44
ENDBRANCH  41  43
ENDBRANCH  38  41
ENDBRANCH  37  38
ENDBRANCH  34  37
ENDBRANCH  33  34
ENDBRANCH  32  33
ENDBRANCH   1  32
TORSDOF 15
ENDMDL
MODEL 7
REMARK VINA RESULT:      -7.8      2.149      4.537
REMARK  Name = D01QIN
REMARK  17 active torsions:
REMARK  status: ('A' for Active; 'I' for Inactive)
REMARK    1  A    between atoms: O_2  and  C_16
REMARK    2  A    between atoms: O_3  and  C_22
REMARK    3  A    between atoms: O_5  and  C_35
REMARK    4  A    between atoms: N_7  and  C_10
REMARK    5  A    between atoms: N_8  and  C_34
REMARK    6  A    between atoms: C_9  and  C_12
REMARK    7  A    between atoms: C_10  and  C_13
REMARK    8  A    between atoms: C_11  and  C_18
REMARK    9  A    between atoms: C_12  and  C_19
REMARK   10  A    between atoms: C_12  and  C_20
REMARK   11  A    between atoms: C_13  and  C_16
REMARK   12  A    between atoms: C_14  and  C_23
REMARK   13  A    between atoms: C_15  and  C_21
REMARK   14  A    between atoms: C_16  and  C_17
REMARK   15  A    between atoms: C_17  and  C_22
REMARK   16  A    between atoms: C_22  and  C_24
REMARK   17  A    between atoms: C_24  and  C_35
REMARK                            x       y       z     vdW  Elec       q    Type
REMARK                         _______ _______ _______ _____ _____    ______ ____
ROOT
ATOM      1  N   UNL A   1     -13.550   9.807  45.547  0.00  0.00    -0.342 N 
ATOM      2  C   UNL A   1     -14.146   9.819  46.801  0.00  0.00    +0.035 A 
ATOM      3  C   UNL A   1     -13.704   8.560  44.935  0.00  0.00    +0.058 A 
ATOM      4  C   UNL A   1     -14.703   8.560  46.987  0.00  0.00    +0.066 A 
ATOM      5  C   UNL A   1     -14.412   7.775  45.847  0.00  0.00    +0.020 A 
ENDROOT
BRANCH   3   7
ATOM      6  F   UNL A   1     -11.590   7.085  39.953  0.00  0.00    -0.205 F 
ATOM      7  C   UNL A   1     -13.169   8.183  43.618  0.00  0.00    -0.001 A 
ATOM      8  C   UNL A   1     -11.788   7.981  43.459  0.00  0.00    +0.013 A 
ATOM      9  C   UNL A   1     -14.003   7.961  42.512  0.00  0.00    +0.013 A 
ATOM     10  C   UNL A   1     -11.256   7.587  42.232  0.00  0.00    +0.039 A 
ATOM     11  C   UNL A   1     -13.468   7.627  41.266  0.00  0.00    +0.039 A 
ATOM     12  C   UNL A   1     -12.101   7.434  41.139  0.00  0.00    +0.123 A 
ENDBRANCH   3   7
BRANCH   5  13
ATOM     13  C   UNL A   1     -14.819   6.396  45.615  0.00  0.00    -0.015 A 
ATOM     14  C   UNL A   1     -16.064   6.135  45.025  0.00  0.00    +0.008 A 
ATOM     15  C   UNL A   1     -13.979   5.332  45.952  0.00  0.00    +0.008 A 
ATOM     16  C   UNL A   1     -16.466   4.826  44.789  0.00  0.00    +0.001 A 
ATOM     17  C   UNL A   1     -14.386   4.022  45.717  0.00  0.00    +0.001 A 
ATOM     18  C   UNL A   1     -15.628   3.764  45.137  0.00  0.00    +0.000 A 
ENDBRANCH   5  13
BRANCH   4  21
ATOM     19  O   UNL A   1     -15.097   7.683  49.099  0.00  0.00    -0.270 OA
ATOM     20  N   UNL A   1     -16.931   8.311  47.802  0.00  0.00    -0.281 N 
ATOM     21  C   UNL A   1     -15.581   8.160  48.080  0.00  0.00    +0.251 C 
ATOM     22  H   UNL A   1     -17.185   8.534  46.851  0.00  0.00    +0.155 HD
BRANCH  20  23
ATOM     23  C   UNL A   1     -17.944   7.866  48.681  0.00  0.00    +0.034 A 
ATOM     24  C   UNL A   1     -18.721   6.745  48.380  0.00  0.00    +0.023 A 
ATOM     25  C   UNL A   1     -18.196   8.577  49.859  0.00  0.00    +0.023 A 
ATOM     26  C   UNL A   1     -19.767   6.356  49.213  0.00  0.00    +0.002 A 
ATOM     27  C   UNL A   1     -19.257   8.193  50.688  0.00  0.00    +0.002 A 
ATOM     28  C   UNL A   1     -20.041   7.086  50.363  0.00  0.00    +0.000 A 
ENDBRANCH  20  23
ENDBRANCH   4  21
BRANCH   2  29
ATOM     29  C   UNL A   1     -14.191  11.032  47.711  0.00  0.00    +0.030 C 
ATOM     30  C   UNL A   1     -15.619  11.562  47.867  0.00  0.00    +0.014 C 
ATOM     31  C   UNL A   1     -13.557  10.726  49.068  0.00  0.00    +0.014 C 
ENDBRANCH   2  29
BRANCH   1  32
ATOM     32  C   UNL A   1     -12.812  10.932  44.986  0.00  0.00    +0.124 C 
BRANCH  32  33
ATOM     33  C   UNL A   1     -13.739  11.904  44.270  0.00  0.00    +0.053 C 
BRANCH  33  34
ATOM     34  C   UNL A   1     -13.369  11.979  42.793  0.00  0.00    +0.119 C 
BRANCH  34  35
ATOM     35  O   UNL A   1     -12.249  11.124  42.590  0.00  0.00    -0.392 OA
ATOM     36  H   UNL A   1     -12.072  10.635  43.410  0.00  0.00    +0.210 HD
ENDBRANCH  34  35
BRANCH  34  37
ATOM     37  C   UNL A   1     -14.559  11.592  41.904  0.00  0.00    +0.063 C 
BRANCH  37  38
ATOM     38  C   UNL A   1     -14.120  10.844  40.635  0.00  0.00    +0.128 C 
BRANCH  38  39
ATOM     39  O   UNL A   1     -14.969  11.197  39.552  0.00  0.00    -0.391 OA
ATOM     40  H   UNL A   1     -15.616  11.848  39.848  0.00  0.00    +0.210 HD
ENDBRANCH  38  39
BRANCH  38  41
ATOM     41  C   UNL A   1     -12.677  11.180  40.264  0.00  0.00    +0.151 C 
BRANCH  41  43
ATOM     42  O   UNL A   1     -12.392  12.299  38.095  0.00  0.00    -0.251 OA
ATOM     43  C   UNL A   1     -12.523  11.295  38.772  0.00  0.00    +0.307 C 
BRANCH  43  44
ATOM     44  O   UNL A   1     -12.572  10.086  38.175  0.00  0.00    -0.481 OA
ATOM     45  H   UNL A   1     -11.667   9.987  37.808  0.00  0.00    +0.295 HD
ENDBRANCH  43  44
ENDBRANCH  41  43
ENDBRANCH  38  41
ENDBRANCH  37  38
ENDBRANCH  34  37
ENDBRANCH  33  34
ENDBRANCH  32  33
ENDBRANCH   1  32
TORSDOF 15
ENDMDL
MODEL 8
REMARK VINA RESULT:      -7.8     16.368     22.482
REMARK  Name = D01QIN
REMARK  17 active torsions:
REMARK  status: ('A' for Active; 'I' for Inactive)
REMARK    1  A    between atoms: O_2  and  C_16
REMARK    2  A    between atoms: O_3  and  C_22
REMARK    3  A    between atoms: O_5  and  C_35
REMARK    4  A    between atoms: N_7  and  C_10
REMARK    5  A    between atoms: N_8  and  C_34
REMARK    6  A    between atoms: C_9  and  C_12
REMARK    7  A    between atoms: C_10  and  C_13
REMARK    8  A    between atoms: C_11  and  C_18
REMARK    9  A    between atoms: C_12  and  C_19
REMARK   10  A    between atoms: C_12  and  C_20
REMARK   11  A    between atoms: C_13  and  C_16
REMARK   12  A    between atoms: C_14  and  C_23
REMARK   13  A    between atoms: C_15  and  C_21
REMARK   14  A    between atoms: C_16  and  C_17
REMARK   15  A    between atoms: C_17  and  C_22
REMARK   16  A    between atoms: C_22  and  C_24
REMARK   17  A    between atoms: C_24  and  C_35
REMARK                            x       y       z     vdW  Elec       q    Type
REMARK                         _______ _______ _______ _____ _____    ______ ____
ROOT
ATOM      1  N   UNL A   1     -28.673  -6.690  52.413  0.00  0.00    -0.342 N 
ATOM      2  C   UNL A   1     -27.737  -7.058  51.456  0.00  0.00    +0.035 A 
ATOM      3  C   UNL A   1     -29.615  -7.705  52.602  0.00  0.00    +0.058 A 
ATOM      4  C   UNL A   1     -28.080  -8.337  51.036  0.00  0.00    +0.066 A 
ATOM      5  C   UNL A   1     -29.251  -8.730  51.726  0.00  0.00    +0.020 A 
ENDROOT
BRANCH   3   7
ATOM      6  F   UNL A   1     -33.952  -7.461  56.151  0.00  0.00    -0.205 F 
ATOM      7  C   UNL A   1     -30.767  -7.642  53.514  0.00  0.00    -0.001 A 
ATOM      8  C   UNL A   1     -30.630  -8.083  54.841  0.00  0.00    +0.013 A 
ATOM      9  C   UNL A   1     -31.999  -7.099  53.119  0.00  0.00    +0.013 A 
ATOM     10  C   UNL A   1     -31.694  -8.000  55.738  0.00  0.00    +0.039 A 
ATOM     11  C   UNL A   1     -33.084  -7.072  53.997  0.00  0.00    +0.039 A 
ATOM     12  C   UNL A   1     -32.921  -7.514  55.301  0.00  0.00    +0.123 A 
ENDBRANCH   3   7
BRANCH   5  13
ATOM     13  C   UNL A   1     -29.947 -10.002  51.601  0.00  0.00    -0.015 A 
ATOM     14  C   UNL A   1     -30.930 -10.156  50.612  0.00  0.00    +0.008 A 
ATOM     15  C   UNL A   1     -29.635 -11.078  52.436  0.00  0.00    +0.008 A 
ATOM     16  C   UNL A   1     -31.598 -11.365  50.472  0.00  0.00    +0.001 A 
ATOM     17  C   UNL A   1     -30.309 -12.287  52.294  0.00  0.00    +0.001 A 
ATOM     18  C   UNL A   1     -31.292 -12.436  51.315  0.00  0.00    +0.000 A 
ENDBRANCH   5  13
BRANCH   4  21
ATOM     19  O   UNL A   1     -27.688  -9.459  49.043  0.00  0.00    -0.270 OA
ATOM     20  N   UNL A   1     -26.147  -9.710  50.774  0.00  0.00    -0.281 N 
ATOM     21  C   UNL A   1     -27.286  -9.201  50.171  0.00  0.00    +0.251 C 
ATOM     22  H   UNL A   1     -26.046  -9.566  51.769  0.00  0.00    +0.155 HD
BRANCH  20  23
ATOM     23  C   UNL A   1     -25.312 -10.663  50.147  0.00  0.00    +0.034 A 
ATOM     24  C   UNL A   1     -24.735 -10.410  48.901  0.00  0.00    +0.023 A 
ATOM     25  C   UNL A   1     -25.085 -11.895  50.769  0.00  0.00    +0.023 A 
ATOM     26  C   UNL A   1     -23.976 -11.382  48.255  0.00  0.00    +0.002 A 
ATOM     27  C   UNL A   1     -24.333 -12.877  50.112  0.00  0.00    +0.002 A 
ATOM     28  C   UNL A   1     -23.782 -12.619  48.857  0.00  0.00    +0.000 A 
ENDBRANCH  20  23
ENDBRANCH   4  21
BRANCH   2  29
ATOM     29  C   UNL A   1     -26.557  -6.197  51.044  0.00  0.00    +0.030 C 
ATOM     30  C   UNL A   1     -25.301  -6.548  51.846  0.00  0.00    +0.014 C 
ATOM     31  C   UNL A   1     -26.305  -6.295  49.539  0.00  0.00    +0.014 C 
ENDBRANCH   2  29
BRANCH   1  32
ATOM     32  C   UNL A   1     -28.692  -5.392  53.075  0.00  0.00    +0.124 C 
BRANCH  32  33
ATOM     33  C   UNL A   1     -29.471  -4.365  52.265  0.00  0.00    +0.053 C 
BRANCH  33  34
ATOM     34  C   UNL A   1     -28.695  -3.054  52.208  0.00  0.00    +0.119 C 
BRANCH  34  35
ATOM     35  O   UNL A   1     -27.346  -3.342  52.558  0.00  0.00    -0.392 OA
ATOM     36  H   UNL A   1     -27.051  -2.707  53.230  0.00  0.00    +0.210 HD
ENDBRANCH  34  35
BRANCH  34  37
ATOM     37  C   UNL A   1     -28.806  -2.405  50.821  0.00  0.00    +0.063 C 
BRANCH  37  38
ATOM     38  C   UNL A   1     -27.551  -2.643  49.965  0.00  0.00    +0.128 C 
BRANCH  38  39
ATOM     39  O   UNL A   1     -27.923  -3.208  48.715  0.00  0.00    -0.391 OA
ATOM     40  H   UNL A   1     -27.227  -3.042  48.067  0.00  0.00    +0.210 HD
ENDBRANCH  38  39
BRANCH  38  41
ATOM     41  C   UNL A   1     -26.796  -1.338  49.715  0.00  0.00    +0.151 C 
BRANCH  41  43
ATOM     42  O   UNL A   1     -24.419  -0.720  49.793  0.00  0.00    -0.251 OA
ATOM     43  C   UNL A   1     -25.320  -1.526  49.940  0.00  0.00    +0.307 C 
BRANCH  43  44
ATOM     44  O   UNL A   1     -25.035  -2.786  50.330  0.00  0.00    -0.481 OA
ATOM     45  H   UNL A   1     -25.336  -3.323  49.566  0.00  0.00    +0.295 HD
ENDBRANCH  43  44
ENDBRANCH  41  43
ENDBRANCH  38  41
ENDBRANCH  37  38
ENDBRANCH  34  37
ENDBRANCH  33  34
ENDBRANCH  32  33
ENDBRANCH   1  32
TORSDOF 15
ENDMDL
MODEL 9
REMARK VINA RESULT:      -7.8      2.400      8.352
REMARK  Name = D01QIN
REMARK  17 active torsions:
REMARK  status: ('A' for Active; 'I' for Inactive)
REMARK    1  A    between atoms: O_2  and  C_16
REMARK    2  A    between atoms: O_3  and  C_22
REMARK    3  A    between atoms: O_5  and  C_35
REMARK    4  A    between atoms: N_7  and  C_10
REMARK    5  A    between atoms: N_8  and  C_34
REMARK    6  A    between atoms: C_9  and  C_12
REMARK    7  A    between atoms: C_10  and  C_13
REMARK    8  A    between atoms: C_11  and  C_18
REMARK    9  A    between atoms: C_12  and  C_19
REMARK   10  A    between atoms: C_12  and  C_20
REMARK   11  A    between atoms: C_13  and  C_16
REMARK   12  A    between atoms: C_14  and  C_23
REMARK   13  A    between atoms: C_15  and  C_21
REMARK   14  A    between atoms: C_16  and  C_17
REMARK   15  A    between atoms: C_17  and  C_22
REMARK   16  A    between atoms: C_22  and  C_24
REMARK   17  A    between atoms: C_24  and  C_35
REMARK                            x       y       z     vdW  Elec       q    Type
REMARK                         _______ _______ _______ _____ _____    ______ ____
ROOT
ATOM      1  N   UNL A   1     -14.772   6.923  46.554  0.00  0.00    -0.342 N 
ATOM      2  C   UNL A   1     -14.137   6.661  45.348  0.00  0.00    +0.035 A 
ATOM      3  C   UNL A   1     -14.506   8.225  46.985  0.00  0.00    +0.058 A 
ATOM      4  C   UNL A   1     -13.462   7.824  44.995  0.00  0.00    +0.066 A 
ATOM      5  C   UNL A   1     -13.670   8.782  46.014  0.00  0.00    +0.020 A 
ENDROOT
BRANCH   3   7
ATOM      6  F   UNL A   1     -16.430  10.523  51.726  0.00  0.00    -0.205 F 
ATOM      7  C   UNL A   1     -14.988   8.826  48.237  0.00  0.00    -0.001 A 
ATOM      8  C   UNL A   1     -16.138   9.633  48.224  0.00  0.00    +0.013 A 
ATOM      9  C   UNL A   1     -14.367   8.576  49.470  0.00  0.00    +0.013 A 
ATOM     10  C   UNL A   1     -16.639  10.186  49.402  0.00  0.00    +0.039 A 
ATOM     11  C   UNL A   1     -14.831   9.178  50.641  0.00  0.00    +0.039 A 
ATOM     12  C   UNL A   1     -15.967   9.970  50.599  0.00  0.00    +0.123 A 
ENDBRANCH   3   7
BRANCH   5  13
ATOM     13  C   UNL A   1     -13.156  10.144  46.043  0.00  0.00    -0.015 A 
ATOM     14  C   UNL A   1     -13.794  11.138  45.287  0.00  0.00    +0.008 A 
ATOM     15  C   UNL A   1     -12.051  10.479  46.830  0.00  0.00    +0.008 A 
ATOM     16  C   UNL A   1     -13.323  12.444  45.308  0.00  0.00    +0.001 A 
ATOM     17  C   UNL A   1     -11.581  11.789  46.847  0.00  0.00    +0.001 A 
ATOM     18  C   UNL A   1     -12.212  12.774  46.087  0.00  0.00    +0.000 A 
ENDBRANCH   5  13
BRANCH   4  21
ATOM     19  O   UNL A   1     -11.579   8.007  43.652  0.00  0.00    -0.270 OA
ATOM     20  N   UNL A   1     -13.661   8.466  42.706  0.00  0.00    -0.281 N 
ATOM     21  C   UNL A   1     -12.799   8.082  43.722  0.00  0.00    +0.251 C 
ATOM     22  H   UNL A   1     -14.616   8.671  42.962  0.00  0.00    +0.155 HD
BRANCH  20  23
ATOM     23  C   UNL A   1     -13.203   8.880  41.434  0.00  0.00    +0.034 A 
ATOM     24  C   UNL A   1     -13.094  10.233  41.111  0.00  0.00    +0.023 A 
ATOM     25  C   UNL A   1     -12.882   7.918  40.472  0.00  0.00    +0.023 A 
ATOM     26  C   UNL A   1     -12.715  10.635  39.833  0.00  0.00    +0.002 A 
ATOM     27  C   UNL A   1     -12.513   8.322  39.182  0.00  0.00    +0.002 A 
ATOM     28  C   UNL A   1     -12.432   9.678  38.865  0.00  0.00    +0.000 A 
ENDBRANCH  20  23
ENDBRANCH   4  21
BRANCH   2  29
ATOM     29  C   UNL A   1     -14.253   5.352  44.589  0.00  0.00    +0.030 C 
ATOM     30  C   UNL A   1     -14.141   4.149  45.529  0.00  0.00    +0.014 C 
ATOM     31  C   UNL A   1     -15.543   5.303  43.770  0.00  0.00    +0.014 C 
ENDBRANCH   2  29
BRANCH   1  32
ATOM     32  C   UNL A   1     -15.557   5.939  47.289  0.00  0.00    +0.124 C 
BRANCH  32  33
ATOM     33  C   UNL A   1     -16.952   5.785  46.700  0.00  0.00    +0.053 C 
BRANCH  33  34
ATOM     34  C   UNL A   1     -17.856   6.902  47.208  0.00  0.00    +0.119 C 
BRANCH  34  35
ATOM     35  O   UNL A   1     -18.877   7.100  46.236  0.00  0.00    -0.392 OA
ATOM     36  H   UNL A   1     -19.279   7.973  46.372  0.00  0.00    +0.210 HD
ENDBRANCH  34  35
BRANCH  34  37
ATOM     37  C   UNL A   1     -18.433   6.561  48.589  0.00  0.00    +0.063 C 
BRANCH  37  38
ATOM     38  C   UNL A   1     -19.952   6.785  48.658  0.00  0.00    +0.128 C 
BRANCH  38  39
ATOM     39  O   UNL A   1     -20.629   5.654  48.129  0.00  0.00    -0.391 OA
ATOM     40  H   UNL A   1     -21.346   5.400  48.722  0.00  0.00    +0.210 HD
ENDBRANCH  38  39
BRANCH  38  41
ATOM     41  C   UNL A   1     -20.414   7.012  50.097  0.00  0.00    +0.151 C 
BRANCH  41  43
ATOM     42  O   UNL A   1     -21.749   9.073  50.001  0.00  0.00    -0.251 OA
ATOM     43  C   UNL A   1     -20.748   8.461  50.328  0.00  0.00    +0.307 C 
BRANCH  43  44
ATOM     44  O   UNL A   1     -19.746   9.104  50.962  0.00  0.00    -0.481 OA
ATOM     45  H   UNL A   1     -20.139   9.311  51.837  0.00  0.00    +0.295 HD
ENDBRANCH  43  44
ENDBRANCH  41  43
ENDBRANCH  38  41
ENDBRANCH  37  38
ENDBRANCH  34  37
ENDBRANCH  33  34
ENDBRANCH  32  33
ENDBRANCH   1  32
TORSDOF 15
ENDMDL
MODEL 10
REMARK VINA RESULT:      -7.7     15.616     20.742
REMARK  Name = D01QIN
REMARK  17 active torsions:
REMARK  status: ('A' for Active; 'I' for Inactive)
REMARK    1  A    between atoms: O_2  and  C_16
REMARK    2  A    between atoms: O_3  and  C_22
REMARK    3  A    between atoms: O_5  and  C_35
REMARK    4  A    between atoms: N_7  and  C_10
REMARK    5  A    between atoms: N_8  and  C_34
REMARK    6  A    between atoms: C_9  and  C_12
REMARK    7  A    between atoms: C_10  and  C_13
REMARK    8  A    between atoms: C_11  and  C_18
REMARK    9  A    between atoms: C_12  and  C_19
REMARK   10  A    between atoms: C_12  and  C_20
REMARK   11  A    between atoms: C_13  and  C_16
REMARK   12  A    between atoms: C_14  and  C_23
REMARK   13  A    between atoms: C_15  and  C_21
REMARK   14  A    between atoms: C_16  and  C_17
REMARK   15  A    between atoms: C_17  and  C_22
REMARK   16  A    between atoms: C_22  and  C_24
REMARK   17  A    between atoms: C_24  and  C_35
REMARK                            x       y       z     vdW  Elec       q    Type
REMARK                         _______ _______ _______ _____ _____    ______ ____
ROOT
ATOM      1  N   UNL A   1     -27.877  -5.874  51.922  0.00  0.00    -0.342 N 
ATOM      2  C   UNL A   1     -28.596  -4.727  52.229  0.00  0.00    +0.035 A 
ATOM      3  C   UNL A   1     -26.583  -5.554  51.503  0.00  0.00    +0.058 A 
ATOM      4  C   UNL A   1     -27.739  -3.654  52.014  0.00  0.00    +0.066 A 
ATOM      5  C   UNL A   1     -26.504  -4.160  51.545  0.00  0.00    +0.020 A 
ENDROOT
BRANCH   3   7
ATOM      6  F   UNL A   1     -22.698  -9.279  49.924  0.00  0.00    -0.205 F 
ATOM      7  C   UNL A   1     -25.563  -6.519  51.068  0.00  0.00    -0.001 A 
ATOM      8  C   UNL A   1     -24.808  -7.215  52.027  0.00  0.00    +0.013 A 
ATOM      9  C   UNL A   1     -25.349  -6.817  49.714  0.00  0.00    +0.013 A 
ATOM     10  C   UNL A   1     -23.859  -8.163  51.645  0.00  0.00    +0.039 A 
ATOM     11  C   UNL A   1     -24.358  -7.719  49.326  0.00  0.00    +0.039 A 
ATOM     12  C   UNL A   1     -23.628  -8.391  50.294  0.00  0.00    +0.123 A 
ENDBRANCH   3   7
BRANCH   5  13
ATOM     13  C   UNL A   1     -25.319  -3.385  51.209  0.00  0.00    -0.015 A 
ATOM     14  C   UNL A   1     -25.441  -2.271  50.365  0.00  0.00    +0.008 A 
ATOM     15  C   UNL A   1     -24.068  -3.720  51.731  0.00  0.00    +0.008 A 
ATOM     16  C   UNL A   1     -24.323  -1.514  50.040  0.00  0.00    +0.001 A 
ATOM     17  C   UNL A   1     -22.949  -2.960  51.401  0.00  0.00    +0.001 A 
ATOM     18  C   UNL A   1     -23.071  -1.857  50.555  0.00  0.00    +0.000 A 
ENDBRANCH   5  13
BRANCH   4  21
ATOM     19  O   UNL A   1     -27.651  -1.850  53.471  0.00  0.00    -0.270 OA
ATOM     20  N   UNL A   1     -28.691  -1.553  51.405  0.00  0.00    -0.281 N 
ATOM     21  C   UNL A   1     -27.995  -2.263  52.371  0.00  0.00    +0.251 C 
ATOM     22  H   UNL A   1     -29.077  -2.078  50.633  0.00  0.00    +0.155 HD
BRANCH  20  23
ATOM     23  C   UNL A   1     -29.144  -0.230  51.611  0.00  0.00    +0.034 A 
ATOM     24  C   UNL A   1     -30.421   0.027  52.113  0.00  0.00    +0.023 A 
ATOM     25  C   UNL A   1     -28.312   0.843  51.277  0.00  0.00    +0.023 A 
ATOM     26  C   UNL A   1     -30.889   1.332  52.243  0.00  0.00    +0.002 A 
ATOM     27  C   UNL A   1     -28.788   2.155  51.394  0.00  0.00    +0.002 A 
ATOM     28  C   UNL A   1     -30.075   2.396  51.875  0.00  0.00    +0.000 A 
ENDBRANCH  20  23
ENDBRANCH   4  21
BRANCH   2  29
ATOM     29  C   UNL A   1     -30.020  -4.727  52.752  0.00  0.00    +0.030 C 
ATOM     30  C   UNL A   1     -30.107  -4.095  54.143  0.00  0.00    +0.014 C 
ATOM     31  C   UNL A   1     -30.967  -4.043  51.766  0.00  0.00    +0.014 C 
ENDBRANCH   2  29
BRANCH   1  32
ATOM     32  C   UNL A   1     -28.434  -7.220  51.976  0.00  0.00    +0.124 C 
BRANCH  32  33
ATOM     33  C   UNL A   1     -28.941  -7.668  50.612  0.00  0.00    +0.053 C 
BRANCH  33  34
ATOM     34  C   UNL A   1     -29.331  -9.141  50.662  0.00  0.00    +0.119 C 
BRANCH  34  35
ATOM     35  O   UNL A   1     -28.129  -9.897  50.768  0.00  0.00    -0.392 OA
ATOM     36  H   UNL A   1     -27.993 -10.146  51.696  0.00  0.00    +0.210 HD
ENDBRANCH  34  35
BRANCH  34  37
ATOM     37  C   UNL A   1     -30.291  -9.419  51.828  0.00  0.00    +0.063 C 
BRANCH  37  38
ATOM     38  C   UNL A   1     -30.941 -10.808  51.729  0.00  0.00    +0.128 C 
BRANCH  38  39
ATOM     39  O   UNL A   1     -30.598 -11.412  50.489  0.00  0.00    -0.391 OA
ATOM     40  H   UNL A   1     -31.169 -12.173  50.331  0.00  0.00    +0.210 HD
ENDBRANCH  38  39
BRANCH  38  41
ATOM     41  C   UNL A   1     -30.482 -11.718  52.867  0.00  0.00    +0.151 C 
BRANCH  41  43
ATOM     42  O   UNL A   1     -30.042 -14.012  52.105  0.00  0.00    -0.251 OA
ATOM     43  C   UNL A   1     -29.678 -12.874  52.335  0.00  0.00    +0.307 C 
BRANCH  43  44
ATOM     44  O   UNL A   1     -28.389 -12.529  52.136  0.00  0.00    -0.481 OA
ATOM     45  H   UNL A   1     -27.943 -12.879  52.937  0.00  0.00    +0.295 HD
ENDBRANCH  43  44
ENDBRANCH  41  43
ENDBRANCH  38  41
ENDBRANCH  37  38
ENDBRANCH  34  37
ENDBRANCH  33  34
ENDBRANCH  32  33
ENDBRANCH   1  32
TORSDOF 15
ENDMDL
