REMARK VINA RESULT:      -8.4      0.000      0.000
REMARK  Name = D01QIN
REMARK  17 active torsions:
REMARK  status: ('A' for Active; 'I' for Inactive)
REMARK    1  A    between atoms: O_2  and  C_16
REMARK    2  A    between atoms: O_3  and  C_22
REMARK    3  A    between atoms: O_5  and  C_35
REMARK    4  A    between atoms: N_7  and  C_10
REMARK    5  A    between atoms: N_8  and  C_34
REMARK    6  A    between atoms: C_9  and  C_12
REMARK    7  A    between atoms: C_10  and  C_13
REMARK    8  A    between atoms: C_11  and  C_18
REMARK    9  A    between atoms: C_12  and  C_19
REMARK   10  A    between atoms: C_12  and  C_20
REMARK   11  A    between atoms: C_13  and  C_16
REMARK   12  A    between atoms: C_14  and  C_23
REMARK   13  A    between atoms: C_15  and  C_21
REMARK   14  A    between atoms: C_16  and  C_17
REMARK   15  A    between atoms: C_17  and  C_22
REMARK   16  A    between atoms: C_22  and  C_24
REMARK   17  A    between atoms: C_24  and  C_35
REMARK                            x       y       z     vdW  Elec       q    Type
REMARK                         _______ _______ _______ _____ _____    ______ ____
ROOT
ATOM      1  N   UNL A   1     -14.646   6.762  45.291  0.00  0.00    -0.342 N 
ATOM      2  C   UNL A   1     -15.911   6.244  45.533  0.00  0.00    +0.035 A 
ATOM      3  C   UNL A   1     -14.446   7.943  46.010  0.00  0.00    +0.058 A 
ATOM      4  C   UNL A   1     -16.526   7.106  46.434  0.00  0.00    +0.066 A 
ATOM      5  C   UNL A   1     -15.633   8.166  46.712  0.00  0.00    +0.020 A 
ENDROOT
BRANCH   3   7
ATOM      6  F   UNL A   1      -9.777  11.049  45.875  0.00  0.00    -0.205 F 
ATOM      7  C   UNL A   1     -13.235   8.776  45.965  0.00  0.00    -0.001 A 
ATOM      8  C   UNL A   1     -12.165   8.496  46.832  0.00  0.00    +0.013 A 
ATOM      9  C   UNL A   1     -13.083   9.819  45.040  0.00  0.00    +0.013 A 
ATOM     10  C   UNL A   1     -10.990   9.245  46.787  0.00  0.00    +0.039 A 
ATOM     11  C   UNL A   1     -11.932  10.610  45.034  0.00  0.00    +0.039 A 
ATOM     12  C   UNL A   1     -10.892  10.311  45.901  0.00  0.00    +0.123 A 
ENDBRANCH   3   7
BRANCH   5  13
ATOM     13  C   UNL A   1     -15.866   9.283  47.616  0.00  0.00    -0.015 A 
ATOM     14  C   UNL A   1     -15.597   9.130  48.984  0.00  0.00    +0.008 A 
ATOM     15  C   UNL A   1     -16.333  10.510  47.138  0.00  0.00    +0.008 A 
ATOM     16  C   UNL A   1     -15.805  10.188  49.860  0.00  0.00    +0.001 A 
ATOM     17  C   UNL A   1     -16.543  11.566  48.020  0.00  0.00    +0.001 A 
ATOM     18  C   UNL A   1     -16.282  11.410  49.382  0.00  0.00    +0.000 A 
ENDBRANCH   5  13
BRANCH   4  21
ATOM     19  O   UNL A   1     -18.844   7.139  46.536  0.00  0.00    -0.270 OA
ATOM     20  N   UNL A   1     -17.665   6.433  48.419  0.00  0.00    -0.281 N 
ATOM     21  C   UNL A   1     -17.796   6.877  47.113  0.00  0.00    +0.251 C 
ATOM     22  H   UNL A   1     -16.738   6.448  48.822  0.00  0.00    +0.155 HD
BRANCH  20  23
ATOM     23  C   UNL A   1     -18.770   6.272  49.285  0.00  0.00    +0.034 A 
ATOM     24  C   UNL A   1     -19.441   5.052  49.382  0.00  0.00    +0.023 A 
ATOM     25  C   UNL A   1     -19.220   7.363  50.036  0.00  0.00    +0.023 A 
ATOM     26  C   UNL A   1     -20.575   4.922  50.179  0.00  0.00    +0.002 A 
ATOM     27  C   UNL A   1     -20.369   7.235  50.827  0.00  0.00    +0.002 A 
ATOM     28  C   UNL A   1     -21.044   6.016  50.896  0.00  0.00    +0.000 A 
ENDBRANCH  20  23
ENDBRANCH   4  21
BRANCH   2  29
ATOM     29  C   UNL A   1     -16.431   4.949  44.937  0.00  0.00    +0.030 C 
ATOM     30  C   UNL A   1     -17.052   5.177  43.557  0.00  0.00    +0.014 C 
ATOM     31  C   UNL A   1     -15.332   3.887  44.888  0.00  0.00    +0.014 C 
ENDBRANCH   2  29
BRANCH   1  32
ATOM     32  C   UNL A   1     -13.691   6.173  44.361  0.00  0.00    +0.124 C 
BRANCH  32  33
ATOM     33  C   UNL A   1     -13.888   6.704  42.948  0.00  0.00    +0.053 C 
BRANCH  33  34
ATOM     34  C   UNL A   1     -12.568   7.246  42.411  0.00  0.00    +0.119 C 
BRANCH  34  35
ATOM     35  O   UNL A   1     -11.701   6.135  42.212  0.00  0.00    -0.392 OA
ATOM     36  H   UNL A   1     -11.844   5.491  42.924  0.00  0.00    +0.210 HD
ENDBRANCH  34  35
BRANCH  34  37
ATOM     37  C   UNL A   1     -12.785   8.047  41.118  0.00  0.00    +0.063 C 
BRANCH  37  38
ATOM     38  C   UNL A   1     -12.907   9.556  41.381  0.00  0.00    +0.128 C 
BRANCH  38  39
ATOM     39  O   UNL A   1     -11.615  10.147  41.393  0.00  0.00    -0.391 OA
ATOM     40  H   UNL A   1     -11.094   9.769  42.111  0.00  0.00    +0.210 HD
ENDBRANCH  38  39
BRANCH  38  41
ATOM     41  C   UNL A   1     -13.755  10.239  40.309  0.00  0.00    +0.151 C 
BRANCH  41  43
ATOM     42  O   UNL A   1     -12.473  12.011  39.189  0.00  0.00    -0.251 OA
ATOM     43  C   UNL A   1     -12.880  10.866  39.257  0.00  0.00    +0.307 C 
BRANCH  43  44
ATOM     44  O   UNL A   1     -12.572   9.986  38.282  0.00  0.00    -0.481 OA
ATOM     45  H   UNL A   1     -12.344   9.174  38.785  0.00  0.00    +0.295 HD
ENDBRANCH  43  44
ENDBRANCH  41  43
ENDBRANCH  38  41
ENDBRANCH  37  38
ENDBRANCH  34  37
ENDBRANCH  33  34
ENDBRANCH  32  33
ENDBRANCH   1  32
TORSDOF 15
