REMARK  Name = D01QIN
REMARK  17 active torsions:
REMARK  status: ('A' for Active; 'I' for Inactive)
REMARK    1  A    between atoms: O_2  and  C_16
REMARK    2  A    between atoms: O_3  and  C_22
REMARK    3  A    between atoms: O_5  and  C_35
REMARK    4  A    between atoms: N_7  and  C_10
REMARK    5  A    between atoms: N_8  and  C_34
REMARK    6  A    between atoms: C_9  and  C_12
REMARK    7  A    between atoms: C_10  and  C_13
REMARK    8  A    between atoms: C_11  and  C_18
REMARK    9  A    between atoms: C_12  and  C_19
REMARK   10  A    between atoms: C_12  and  C_20
REMARK   11  A    between atoms: C_13  and  C_16
REMARK   12  A    between atoms: C_14  and  C_23
REMARK   13  A    between atoms: C_15  and  C_21
REMARK   14  A    between atoms: C_16  and  C_17
REMARK   15  A    between atoms: C_17  and  C_22
REMARK   16  A    between atoms: C_22  and  C_24
REMARK   17  A    between atoms: C_24  and  C_35
REMARK                            x       y       z     vdW  Elec       q    Type
REMARK                         _______ _______ _______ _____ _____    ______ ____
ROOT
ATOM      1  N   UNL A   1       0.761  -0.201   3.600  0.00  0.00    -0.342 N 
ATOM      2  C   UNL A   1       1.825   0.379   4.277  0.00  0.00    +0.035 A 
ATOM      3  C   UNL A   1       0.349  -1.376   4.234  0.00  0.00    +0.058 A 
ATOM      4  C   UNL A   1       2.089  -0.435   5.372  0.00  0.00    +0.066 A 
ATOM      5  C   UNL A   1       1.194  -1.530   5.335  0.00  0.00    +0.020 A 
ENDROOT
BRANCH   3   7
ATOM      6  F   UNL A   1      -3.720  -4.832   2.513  0.00  0.00    -0.205 F 
ATOM      7  C   UNL A   1      -0.728  -2.264   3.771  0.00  0.00    -0.001 A 
ATOM      8  C   UNL A   1      -0.506  -3.649   3.699  0.00  0.00    +0.013 A 
ATOM      9  C   UNL A   1      -2.004  -1.779   3.446  0.00  0.00    +0.013 A 
ATOM     10  C   UNL A   1      -1.520  -4.519   3.299  0.00  0.00    +0.039 A 
ATOM     11  C   UNL A   1      -3.002  -2.640   2.986  0.00  0.00    +0.039 A 
ATOM     12  C   UNL A   1      -2.755  -4.003   2.925  0.00  0.00    +0.123 A 
ENDBRANCH   3   7
BRANCH   5  13
ATOM     13  C   UNL A   1       1.112  -2.617   6.300  0.00  0.00    -0.015 A 
ATOM     14  C   UNL A   1       2.194  -3.499   6.438  0.00  0.00    +0.008 A 
ATOM     15  C   UNL A   1      -0.018  -2.781   7.105  0.00  0.00    +0.008 A 
ATOM     16  C   UNL A   1       2.137  -4.537   7.359  0.00  0.00    +0.001 A 
ATOM     17  C   UNL A   1      -0.072  -3.824   8.025  0.00  0.00    +0.001 A 
ATOM     18  C   UNL A   1       1.002  -4.705   8.155  0.00  0.00    +0.000 A 
ENDBRANCH   5  13
BRANCH   4  21
ATOM     19  O   UNL A   1       2.599   0.496   7.435  0.00  0.00    -0.270 OA
ATOM     20  N   UNL A   1       4.305  -0.560   6.247  0.00  0.00    -0.281 N 
ATOM     21  C   UNL A   1       3.004  -0.135   6.467  0.00  0.00    +0.251 C 
ATOM     22  H   UNL A   1       4.532  -0.894   5.321  0.00  0.00    +0.155 HD
BRANCH  20  23
ATOM     23  C   UNL A   1       5.366  -0.256   7.130  0.00  0.00    +0.034 A 
ATOM     24  C   UNL A   1       5.140  -0.072   8.495  0.00  0.00    +0.023 A 
ATOM     25  C   UNL A   1       6.661  -0.106   6.624  0.00  0.00    +0.023 A 
ATOM     26  C   UNL A   1       6.176   0.301   9.347  0.00  0.00    +0.002 A 
ATOM     27  C   UNL A   1       7.700   0.283   7.479  0.00  0.00    +0.002 A 
ATOM     28  C   UNL A   1       7.455   0.487   8.837  0.00  0.00    +0.000 A 
ENDBRANCH  20  23
ENDBRANCH   4  21
BRANCH   2  29
ATOM     29  C   UNL A   1       2.483   1.685   3.872  0.00  0.00    +0.030 C 
ATOM     30  C   UNL A   1       2.284   2.766   4.937  0.00  0.00    +0.014 C 
ATOM     31  C   UNL A   1       3.964   1.479   3.554  0.00  0.00    +0.014 C 
ENDBRANCH   2  29
BRANCH   1  32
ATOM     32  C   UNL A   1       0.202   0.325   2.361  0.00  0.00    +0.124 C 
BRANCH  32  33
ATOM     33  C   UNL A   1       0.914  -0.245   1.142  0.00  0.00    +0.053 C 
BRANCH  33  34
ATOM     34  C   UNL A   1       0.286   0.310  -0.131  0.00  0.00    +0.119 C 
BRANCH  34  35
ATOM     35  O   UNL A   1       0.448   1.724  -0.105  0.00  0.00    -0.392 OA
ATOM     36  H   UNL A   1       1.379   1.939  -0.276  0.00  0.00    +0.210 HD
ENDBRANCH  34  35
BRANCH  34  37
ATOM     37  C   UNL A   1       0.919  -0.320  -1.380  0.00  0.00    +0.063 C 
BRANCH  37  38
ATOM     38  C   UNL A   1       0.221   0.125  -2.675  0.00  0.00    +0.128 C 
BRANCH  38  39
ATOM     39  O   UNL A   1       0.432   1.515  -2.881  0.00  0.00    -0.391 OA
ATOM     40  H   UNL A   1       1.379   1.697  -2.909  0.00  0.00    +0.210 HD
ENDBRANCH  38  39
BRANCH  38  41
ATOM     41  C   UNL A   1       0.754  -0.642  -3.884  0.00  0.00    +0.151 C 
BRANCH  41  43
ATOM     42  O   UNL A   1      -1.086   0.315  -5.202  0.00  0.00    -0.251 OA
ATOM     43  C   UNL A   1      -0.060  -0.334  -5.112  0.00  0.00    +0.307 C 
BRANCH  43  44
ATOM     44  O   UNL A   1       0.468  -0.910  -6.212  0.00  0.00    -0.481 OA
ATOM     45  H   UNL A   1      -0.149  -0.631  -6.922  0.00  0.00    +0.295 HD
ENDBRANCH  43  44
ENDBRANCH  41  43
ENDBRANCH  38  41
ENDBRANCH  37  38
ENDBRANCH  34  37
ENDBRANCH  33  34
ENDBRANCH  32  33
ENDBRANCH   1  32
TORSDOF 15
