REMARK VINA RESULT:      -6.9      2.724      5.070
REMARK  Name = D03KIA
REMARK  19 active torsions:
REMARK  status: ('A' for Active; 'I' for Inactive)
REMARK    1  A    between atoms: O_2  and  C_15
REMARK    2  A    between atoms: O_2  and  C_32
REMARK    3  A    between atoms: O_3  and  C_18
REMARK    4  A    between atoms: O_4  and  C_25
REMARK    5  A    between atoms: O_5  and  C_33
REMARK    6  A    between atoms: C_8  and  C_14
REMARK    7  A    between atoms: C_9  and  C_13
REMARK    8  A    between atoms: C_10  and  C_15
REMARK    9  A    between atoms: C_11  and  C_17
REMARK   10  A    between atoms: C_12  and  C_16
REMARK   11  A    between atoms: C_13  and  C_19
REMARK   12  A    between atoms: C_13  and  C_20
REMARK   13  A    between atoms: C_14  and  C_21
REMARK   14  A    between atoms: C_14  and  C_22
REMARK   15  A    between atoms: C_18  and  C_23
REMARK   16  A    between atoms: C_18  and  C_24
REMARK   17  A    between atoms: C_23  and  C_25
REMARK   18  A    between atoms: C_25  and  C_28
REMARK   19  A    between atoms: C_28  and  C_33
REMARK                            x       y       z     vdW  Elec       q    Type
REMARK                         _______ _______ _______ _____ _____    ______ ____
ROOT
ATOM      1  N   UNL A   1     -15.609  10.405  49.031  0.00  0.00    -0.255 NA
ATOM      2  C   UNL A   1     -16.138   9.208  49.398  0.00  0.00    +0.050 A 
ATOM      3  C   UNL A   1     -14.854  10.503  47.911  0.00  0.00    +0.052 A 
ATOM      4  C   UNL A   1     -15.900   8.033  48.666  0.00  0.00    +0.008 A 
ATOM      5  C   UNL A   1     -14.591   9.392  47.095  0.00  0.00    +0.004 A 
ATOM      6  C   UNL A   1     -15.114   8.125  47.485  0.00  0.00    -0.002 A 
ENDROOT
BRANCH   6   8
ATOM      7  F   UNL A   1     -14.139   3.534  44.382  0.00  0.00    -0.205 F 
ATOM      8  C   UNL A   1     -14.845   6.925  46.654  0.00  0.00    -0.017 A 
ATOM      9  C   UNL A   1     -15.708   6.569  45.602  0.00  0.00    +0.011 A 
ATOM     10  C   UNL A   1     -13.722   6.112  46.902  0.00  0.00    +0.011 A 
ATOM     11  C   UNL A   1     -15.462   5.433  44.827  0.00  0.00    +0.039 A 
ATOM     12  C   UNL A   1     -13.492   4.960  46.144  0.00  0.00    +0.039 A 
ATOM     13  C   UNL A   1     -14.362   4.634  45.113  0.00  0.00    +0.123 A 
ENDBRANCH   6   8
BRANCH   3  14
ATOM     14  C   UNL A   1     -14.323  11.902  47.623  0.00  0.00    +0.032 C 
ATOM     15  C   UNL A   1     -15.434  12.940  47.808  0.00  0.00    +0.014 C 
ATOM     16  C   UNL A   1     -13.116  12.231  48.501  0.00  0.00    +0.014 C 
ENDBRANCH   3  14
BRANCH   2  17
ATOM     17  C   UNL A   1     -16.964   9.254  50.670  0.00  0.00    +0.032 C 
ATOM     18  C   UNL A   1     -16.370  10.273  51.645  0.00  0.00    +0.014 C 
ATOM     19  C   UNL A   1     -18.429   9.584  50.367  0.00  0.00    +0.014 C 
ENDBRANCH   2  17
BRANCH   5  20
ATOM     20  C   UNL A   1     -13.754   9.504  45.887  0.00  0.00    +0.008 C 
ATOM     21  C   UNL A   1     -14.170  10.085  44.748  0.00  0.00    +0.005 C 
BRANCH  21  22
ATOM     22  C   UNL A   1     -13.340  10.286  43.507  0.00  0.00    +0.140 C 
BRANCH  22  23
ATOM     23  O   UNL A   1     -12.906   9.028  43.019  0.00  0.00    -0.388 OA
ATOM     24  H   UNL A   1     -11.983   9.122  42.734  0.00  0.00    +0.210 HD
ENDBRANCH  22  23
BRANCH  22  25
ATOM     25  C   UNL A   1     -14.129  11.061  42.442  0.00  0.00    +0.067 C 
BRANCH  25  26
ATOM     26  C   UNL A   1     -13.332  11.314  41.149  0.00  0.00    +0.128 C 
BRANCH  26  27
ATOM     27  O   UNL A   1     -11.978  10.893  41.305  0.00  0.00    -0.391 OA
ATOM     28  H   UNL A   1     -11.466  11.604  41.725  0.00  0.00    +0.210 HD
ENDBRANCH  26  27
BRANCH  26  29
ATOM     29  C   UNL A   1     -13.942  10.530  39.987  0.00  0.00    +0.151 C 
BRANCH  29  31
ATOM     30  O   UNL A   1     -12.843   8.341  40.105  0.00  0.00    -0.251 OA
ATOM     31  C   UNL A   1     -13.050   9.402  39.545  0.00  0.00    +0.307 C 
BRANCH  31  32
ATOM     32  O   UNL A   1     -12.378   9.715  38.417  0.00  0.00    -0.481 OA
ATOM     33  H   UNL A   1     -12.695   9.050  37.770  0.00  0.00    +0.295 HD
ENDBRANCH  31  32
ENDBRANCH  29  31
ENDBRANCH  26  29
ENDBRANCH  25  26
ENDBRANCH  22  25
ENDBRANCH  21  22
ENDBRANCH   5  20
BRANCH   4  34
ATOM     34  C   UNL A   1     -16.511   6.722  49.112  0.00  0.00    +0.197 C 
BRANCH  34  35
ATOM     35  O   UNL A   1     -17.792   6.582  48.503  0.00  0.00    -0.378 OA
ATOM     36  C   UNL A   1     -18.726   5.983  49.391  0.00  0.00    +0.194 C 
ENDBRANCH  34  35
ENDBRANCH   4  34
TORSDOF 14
