REMARK VINA RESULT:      -7.0     17.835     22.366
REMARK  Name = D03KIA
REMARK  19 active torsions:
REMARK  status: ('A' for Active; 'I' for Inactive)
REMARK    1  A    between atoms: O_2  and  C_15
REMARK    2  A    between atoms: O_2  and  C_32
REMARK    3  A    between atoms: O_3  and  C_18
REMARK    4  A    between atoms: O_4  and  C_25
REMARK    5  A    between atoms: O_5  and  C_33
REMARK    6  A    between atoms: C_8  and  C_14
REMARK    7  A    between atoms: C_9  and  C_13
REMARK    8  A    between atoms: C_10  and  C_15
REMARK    9  A    between atoms: C_11  and  C_17
REMARK   10  A    between atoms: C_12  and  C_16
REMARK   11  A    between atoms: C_13  and  C_19
REMARK   12  A    between atoms: C_13  and  C_20
REMARK   13  A    between atoms: C_14  and  C_21
REMARK   14  A    between atoms: C_14  and  C_22
REMARK   15  A    between atoms: C_18  and  C_23
REMARK   16  A    between atoms: C_18  and  C_24
REMARK   17  A    between atoms: C_23  and  C_25
REMARK   18  A    between atoms: C_25  and  C_28
REMARK   19  A    between atoms: C_28  and  C_33
REMARK                            x       y       z     vdW  Elec       q    Type
REMARK                         _______ _______ _______ _____ _____    ______ ____
ROOT
ATOM      1  N   UNL A   1     -27.508  -3.455  52.169  0.00  0.00    -0.255 NA
ATOM      2  C   UNL A   1     -26.230  -3.232  51.764  0.00  0.00    +0.050 A 
ATOM      3  C   UNL A   1     -28.005  -4.714  52.196  0.00  0.00    +0.052 A 
ATOM      4  C   UNL A   1     -25.394  -4.273  51.328  0.00  0.00    +0.008 A 
ATOM      5  C   UNL A   1     -27.235  -5.823  51.813  0.00  0.00    +0.004 A 
ATOM      6  C   UNL A   1     -25.904  -5.600  51.358  0.00  0.00    -0.002 A 
ENDROOT
BRANCH   6   8
ATOM      7  F   UNL A   1     -22.778  -9.993  49.748  0.00  0.00    -0.205 F 
ATOM      8  C   UNL A   1     -25.063  -6.748  50.932  0.00  0.00    -0.017 A 
ATOM      9  C   UNL A   1     -24.951  -7.093  49.574  0.00  0.00    +0.011 A 
ATOM     10  C   UNL A   1     -24.362  -7.519  51.879  0.00  0.00    +0.011 A 
ATOM     11  C   UNL A   1     -24.169  -8.179  49.173  0.00  0.00    +0.039 A 
ATOM     12  C   UNL A   1     -23.602  -8.622  51.480  0.00  0.00    +0.039 A 
ATOM     13  C   UNL A   1     -23.510  -8.939  50.132  0.00  0.00    +0.123 A 
ENDBRANCH   6   8
BRANCH   3  14
ATOM     14  C   UNL A   1     -29.451  -4.817  52.667  0.00  0.00    +0.032 C 
ATOM     15  C   UNL A   1     -29.713  -3.818  53.798  0.00  0.00    +0.014 C 
ATOM     16  C   UNL A   1     -30.429  -4.604  51.512  0.00  0.00    +0.014 C 
ENDBRANCH   3  14
BRANCH   2  17
ATOM     17  C   UNL A   1     -25.812  -1.774  51.792  0.00  0.00    +0.032 C 
ATOM     18  C   UNL A   1     -26.925  -0.897  51.212  0.00  0.00    +0.014 C 
ATOM     19  C   UNL A   1     -25.455  -1.327  53.213  0.00  0.00    +0.014 C 
ENDBRANCH   2  17
BRANCH   5  20
ATOM     20  C   UNL A   1     -27.790  -7.190  51.829  0.00  0.00    +0.008 C 
ATOM     21  C   UNL A   1     -28.455  -7.732  50.794  0.00  0.00    +0.005 C 
BRANCH  21  22
ATOM     22  C   UNL A   1     -28.985  -9.140  50.728  0.00  0.00    +0.140 C 
BRANCH  22  23
ATOM     23  O   UNL A   1     -27.901 -10.053  50.688  0.00  0.00    -0.388 OA
ATOM     24  H   UNL A   1     -28.020 -10.620  49.910  0.00  0.00    +0.210 HD
ENDBRANCH  22  23
BRANCH  22  25
ATOM     25  C   UNL A   1     -29.918  -9.427  51.914  0.00  0.00    +0.067 C 
BRANCH  25  26
ATOM     26  C   UNL A   1     -30.764 -10.701  51.736  0.00  0.00    +0.128 C 
BRANCH  26  27
ATOM     27  O   UNL A   1     -30.485 -11.317  50.480  0.00  0.00    -0.391 OA
ATOM     28  H   UNL A   1     -29.890 -10.745  49.966  0.00  0.00    +0.210 HD
ENDBRANCH  26  27
BRANCH  26  29
ATOM     29  C   UNL A   1     -30.446 -11.709  52.840  0.00  0.00    +0.151 C 
BRANCH  29  31
ATOM     30  O   UNL A   1     -30.100 -14.020  52.096  0.00  0.00    -0.251 OA
ATOM     31  C   UNL A   1     -29.686 -12.896  52.312  0.00  0.00    +0.307 C 
BRANCH  31  32
ATOM     32  O   UNL A   1     -28.376 -12.612  52.152  0.00  0.00    -0.481 OA
ATOM     33  H   UNL A   1     -28.137 -13.092  51.332  0.00  0.00    +0.295 HD
ENDBRANCH  31  32
ENDBRANCH  29  31
ENDBRANCH  26  29
ENDBRANCH  25  26
ENDBRANCH  22  25
ENDBRANCH  21  22
ENDBRANCH   5  20
BRANCH   4  34
ATOM     34  C   UNL A   1     -23.977  -3.977  50.886  0.00  0.00    +0.197 C 
BRANCH  34  35
ATOM     35  O   UNL A   1     -23.121  -4.034  52.024  0.00  0.00    -0.378 OA
ATOM     36  C   UNL A   1     -22.156  -2.991  52.000  0.00  0.00    +0.194 C 
ENDBRANCH  34  35
ENDBRANCH   4  34
TORSDOF 14
