REMARK VINA RESULT:      -6.7      2.669      7.255
REMARK  Name = D03KIA
REMARK  19 active torsions:
REMARK  status: ('A' for Active; 'I' for Inactive)
REMARK    1  A    between atoms: O_2  and  C_15
REMARK    2  A    between atoms: O_2  and  C_32
REMARK    3  A    between atoms: O_3  and  C_18
REMARK    4  A    between atoms: O_4  and  C_25
REMARK    5  A    between atoms: O_5  and  C_33
REMARK    6  A    between atoms: C_8  and  C_14
REMARK    7  A    between atoms: C_9  and  C_13
REMARK    8  A    between atoms: C_10  and  C_15
REMARK    9  A    between atoms: C_11  and  C_17
REMARK   10  A    between atoms: C_12  and  C_16
REMARK   11  A    between atoms: C_13  and  C_19
REMARK   12  A    between atoms: C_13  and  C_20
REMARK   13  A    between atoms: C_14  and  C_21
REMARK   14  A    between atoms: C_14  and  C_22
REMARK   15  A    between atoms: C_18  and  C_23
REMARK   16  A    between atoms: C_18  and  C_24
REMARK   17  A    between atoms: C_23  and  C_25
REMARK   18  A    between atoms: C_25  and  C_28
REMARK   19  A    between atoms: C_28  and  C_33
REMARK                            x       y       z     vdW  Elec       q    Type
REMARK                         _______ _______ _______ _____ _____    ______ ____
ROOT
ATOM      1  N   UNL A   1     -13.882   7.106  44.244  0.00  0.00    -0.255 NA
ATOM      2  C   UNL A   1     -13.384   8.306  43.845  0.00  0.00    +0.050 A 
ATOM      3  C   UNL A   1     -14.670   7.025  45.342  0.00  0.00    +0.052 A 
ATOM      4  C   UNL A   1     -13.628   9.489  44.562  0.00  0.00    +0.008 A 
ATOM      5  C   UNL A   1     -14.999   8.158  46.103  0.00  0.00    +0.004 A 
ATOM      6  C   UNL A   1     -14.459   9.417  45.714  0.00  0.00    -0.002 A 
ENDROOT
BRANCH   6   8
ATOM      7  F   UNL A   1     -15.638  14.075  48.640  0.00  0.00    -0.205 F 
ATOM      8  C   UNL A   1     -14.775  10.635  46.501  0.00  0.00    -0.017 A 
ATOM      9  C   UNL A   1     -16.055  11.215  46.448  0.00  0.00    +0.011 A 
ATOM     10  C   UNL A   1     -13.800  11.240  47.318  0.00  0.00    +0.011 A 
ATOM     11  C   UNL A   1     -16.350  12.368  47.180  0.00  0.00    +0.039 A 
ATOM     12  C   UNL A   1     -14.088  12.408  48.029  0.00  0.00    +0.039 A 
ATOM     13  C   UNL A   1     -15.360  12.959  47.956  0.00  0.00    +0.123 A 
ENDBRANCH   6   8
BRANCH   3  14
ATOM     14  C   UNL A   1     -15.154   5.619  45.674  0.00  0.00    +0.032 C 
ATOM     15  C   UNL A   1     -16.367   5.257  44.812  0.00  0.00    +0.014 C 
ATOM     16  C   UNL A   1     -14.036   4.590  45.504  0.00  0.00    +0.014 C 
ENDBRANCH   3  14
BRANCH   2  17
ATOM     17  C   UNL A   1     -12.524   8.242  42.597  0.00  0.00    +0.032 C 
ATOM     18  C   UNL A   1     -11.218   7.502  42.897  0.00  0.00    +0.014 C 
ATOM     19  C   UNL A   1     -13.275   7.571  41.442  0.00  0.00    +0.014 C 
ENDBRANCH   2  17
BRANCH   5  20
ATOM     20  C   UNL A   1     -15.844   8.058  47.308  0.00  0.00    +0.008 C 
ATOM     21  C   UNL A   1     -15.364   7.751  48.526  0.00  0.00    +0.005 C 
BRANCH  21  22
ATOM     22  C   UNL A   1     -16.165   7.699  49.800  0.00  0.00    +0.140 C 
BRANCH  22  23
ATOM     23  O   UNL A   1     -15.479   8.407  50.820  0.00  0.00    -0.388 OA
ATOM     24  H   UNL A   1     -15.889   9.283  50.899  0.00  0.00    +0.210 HD
ENDBRANCH  22  23
BRANCH  22  25
ATOM     25  C   UNL A   1     -17.577   8.259  49.580  0.00  0.00    +0.067 C 
BRANCH  25  26
ATOM     26  C   UNL A   1     -18.694   7.237  49.861  0.00  0.00    +0.128 C 
BRANCH  26  27
ATOM     27  O   UNL A   1     -19.965   7.885  49.916  0.00  0.00    -0.391 OA
ATOM     28  H   UNL A   1     -20.666   7.233  49.752  0.00  0.00    +0.210 HD
ENDBRANCH  26  27
BRANCH  26  29
ATOM     29  C   UNL A   1     -18.746   6.187  48.751  0.00  0.00    +0.151 C 
BRANCH  29  31
ATOM     30  O   UNL A   1     -21.018   5.280  48.574  0.00  0.00    -0.251 OA
ATOM     31  C   UNL A   1     -20.136   6.029  48.195  0.00  0.00    +0.307 C 
BRANCH  31  32
ATOM     32  O   UNL A   1     -20.321   6.796  47.100  0.00  0.00    -0.481 OA
ATOM     33  H   UNL A   1     -19.693   7.538  47.232  0.00  0.00    +0.295 HD
ENDBRANCH  31  32
ENDBRANCH  29  31
ENDBRANCH  26  29
ENDBRANCH  25  26
ENDBRANCH  22  25
ENDBRANCH  21  22
ENDBRANCH   5  20
BRANCH   4  34
ATOM     34  C   UNL A   1     -13.054  10.803  44.080  0.00  0.00    +0.197 C 
BRANCH  34  35
ATOM     35  O   UNL A   1     -14.083  11.544  43.429  0.00  0.00    -0.378 OA
ATOM     36  C   UNL A   1     -13.935  11.509  42.017  0.00  0.00    +0.194 C 
ENDBRANCH  34  35
ENDBRANCH   4  34
TORSDOF 14
