REMARK VINA RESULT:      -7.4      1.773      2.160
REMARK  Name = D03KIA
REMARK  19 active torsions:
REMARK  status: ('A' for Active; 'I' for Inactive)
REMARK    1  A    between atoms: O_2  and  C_15
REMARK    2  A    between atoms: O_2  and  C_32
REMARK    3  A    between atoms: O_3  and  C_18
REMARK    4  A    between atoms: O_4  and  C_25
REMARK    5  A    between atoms: O_5  and  C_33
REMARK    6  A    between atoms: C_8  and  C_14
REMARK    7  A    between atoms: C_9  and  C_13
REMARK    8  A    between atoms: C_10  and  C_15
REMARK    9  A    between atoms: C_11  and  C_17
REMARK   10  A    between atoms: C_12  and  C_16
REMARK   11  A    between atoms: C_13  and  C_19
REMARK   12  A    between atoms: C_13  and  C_20
REMARK   13  A    between atoms: C_14  and  C_21
REMARK   14  A    between atoms: C_14  and  C_22
REMARK   15  A    between atoms: C_18  and  C_23
REMARK   16  A    between atoms: C_18  and  C_24
REMARK   17  A    between atoms: C_23  and  C_25
REMARK   18  A    between atoms: C_25  and  C_28
REMARK   19  A    between atoms: C_28  and  C_33
REMARK                            x       y       z     vdW  Elec       q    Type
REMARK                         _______ _______ _______ _____ _____    ______ ____
ROOT
ATOM      1  N   UNL A   1     -16.772   6.326  47.235  0.00  0.00    -0.255 NA
ATOM      2  C   UNL A   1     -17.243   7.135  48.220  0.00  0.00    +0.050 A 
ATOM      3  C   UNL A   1     -15.737   6.727  46.460  0.00  0.00    +0.052 A 
ATOM      4  C   UNL A   1     -16.712   8.414  48.452  0.00  0.00    +0.008 A 
ATOM      5  C   UNL A   1     -15.116   7.973  46.639  0.00  0.00    +0.004 A 
ATOM      6  C   UNL A   1     -15.619   8.843  47.648  0.00  0.00    -0.002 A 
ENDROOT
BRANCH   6   8
ATOM      7  F   UNL A   1     -13.220  13.878  48.382  0.00  0.00    -0.205 F 
ATOM      8  C   UNL A   1     -14.997  10.174  47.858  0.00  0.00    -0.017 A 
ATOM      9  C   UNL A   1     -15.527  11.322  47.242  0.00  0.00    +0.011 A 
ATOM     10  C   UNL A   1     -13.860  10.319  48.676  0.00  0.00    +0.011 A 
ATOM     11  C   UNL A   1     -14.935  12.573  47.429  0.00  0.00    +0.039 A 
ATOM     12  C   UNL A   1     -13.252  11.567  48.841  0.00  0.00    +0.039 A 
ATOM     13  C   UNL A   1     -13.797  12.681  48.220  0.00  0.00    +0.123 A 
ENDBRANCH   6   8
BRANCH   3  14
ATOM     14  C   UNL A   1     -15.316   5.723  45.394  0.00  0.00    +0.032 C 
ATOM     15  C   UNL A   1     -14.920   4.393  46.043  0.00  0.00    +0.014 C 
ATOM     16  C   UNL A   1     -16.419   5.517  44.356  0.00  0.00    +0.014 C 
ENDBRANCH   3  14
BRANCH   2  17
ATOM     17  C   UNL A   1     -18.401   6.551  49.008  0.00  0.00    +0.032 C 
ATOM     18  C   UNL A   1     -19.686   6.615  48.178  0.00  0.00    +0.014 C 
ATOM     19  C   UNL A   1     -18.107   5.111  49.440  0.00  0.00    +0.014 C 
ENDBRANCH   2  17
BRANCH   5  20
ATOM     20  C   UNL A   1     -14.000   8.408  45.779  0.00  0.00    +0.008 C 
ATOM     21  C   UNL A   1     -14.171   9.052  44.611  0.00  0.00    +0.005 C 
BRANCH  21  22
ATOM     22  C   UNL A   1     -13.072   9.577  43.726  0.00  0.00    +0.140 C 
BRANCH  22  23
ATOM     23  O   UNL A   1     -11.939   8.730  43.825  0.00  0.00    -0.388 OA
ATOM     24  H   UNL A   1     -12.246   7.855  44.111  0.00  0.00    +0.210 HD
ENDBRANCH  22  23
BRANCH  22  25
ATOM     25  C   UNL A   1     -13.554   9.703  42.274  0.00  0.00    +0.067 C 
BRANCH  25  26
ATOM     26  C   UNL A   1     -12.927  10.889  41.518  0.00  0.00    +0.128 C 
BRANCH  26  27
ATOM     27  O   UNL A   1     -11.572  10.604  41.174  0.00  0.00    -0.391 OA
ATOM     28  H   UNL A   1     -11.465  10.666  40.210  0.00  0.00    +0.210 HD
ENDBRANCH  26  27
BRANCH  26  29
ATOM     29  C   UNL A   1     -13.697  11.163  40.226  0.00  0.00    +0.151 C 
BRANCH  29  31
ATOM     30  O   UNL A   1     -12.225  12.169  38.541  0.00  0.00    -0.251 OA
ATOM     31  C   UNL A   1     -12.784  11.204  39.030  0.00  0.00    +0.307 C 
BRANCH  31  32
ATOM     32  O   UNL A   1     -12.684   9.993  38.443  0.00  0.00    -0.481 OA
ATOM     33  H   UNL A   1     -12.040  10.142  37.719  0.00  0.00    +0.295 HD
ENDBRANCH  31  32
ENDBRANCH  29  31
ENDBRANCH  26  29
ENDBRANCH  25  26
ENDBRANCH  22  25
ENDBRANCH  21  22
ENDBRANCH   5  20
BRANCH   4  34
ATOM     34  C   UNL A   1     -17.267   9.280  49.562  0.00  0.00    +0.197 C 
BRANCH  34  35
ATOM     35  O   UNL A   1     -16.569   8.984  50.769  0.00  0.00    -0.378 OA
ATOM     36  C   UNL A   1     -16.214  10.169  51.467  0.00  0.00    +0.194 C 
ENDBRANCH  34  35
ENDBRANCH   4  34
TORSDOF 14
