REMARK VINA RESULT:      -7.1      2.736      4.937
REMARK  Name = D03KIA
REMARK  19 active torsions:
REMARK  status: ('A' for Active; 'I' for Inactive)
REMARK    1  A    between atoms: O_2  and  C_15
REMARK    2  A    between atoms: O_2  and  C_32
REMARK    3  A    between atoms: O_3  and  C_18
REMARK    4  A    between atoms: O_4  and  C_25
REMARK    5  A    between atoms: O_5  and  C_33
REMARK    6  A    between atoms: C_8  and  C_14
REMARK    7  A    between atoms: C_9  and  C_13
REMARK    8  A    between atoms: C_10  and  C_15
REMARK    9  A    between atoms: C_11  and  C_17
REMARK   10  A    between atoms: C_12  and  C_16
REMARK   11  A    between atoms: C_13  and  C_19
REMARK   12  A    between atoms: C_13  and  C_20
REMARK   13  A    between atoms: C_14  and  C_21
REMARK   14  A    between atoms: C_14  and  C_22
REMARK   15  A    between atoms: C_18  and  C_23
REMARK   16  A    between atoms: C_18  and  C_24
REMARK   17  A    between atoms: C_23  and  C_25
REMARK   18  A    between atoms: C_25  and  C_28
REMARK   19  A    between atoms: C_28  and  C_33
REMARK                            x       y       z     vdW  Elec       q    Type
REMARK                         _______ _______ _______ _____ _____    ______ ____
ROOT
ATOM      1  N   UNL A   1     -16.519   9.995  48.916  0.00  0.00    -0.255 NA
ATOM      2  C   UNL A   1     -16.815   8.733  49.326  0.00  0.00    +0.050 A 
ATOM      3  C   UNL A   1     -15.854  10.196  47.754  0.00  0.00    +0.052 A 
ATOM      4  C   UNL A   1     -16.420   7.601  48.596  0.00  0.00    +0.008 A 
ATOM      5  C   UNL A   1     -15.449   9.129  46.938  0.00  0.00    +0.004 A 
ATOM      6  C   UNL A   1     -15.725   7.801  47.371  0.00  0.00    -0.002 A 
ENDROOT
BRANCH   6   8
ATOM      7  F   UNL A   1     -14.078   3.470  44.179  0.00  0.00    -0.205 F 
ATOM      8  C   UNL A   1     -15.300   6.646  46.540  0.00  0.00    -0.017 A 
ATOM      9  C   UNL A   1     -14.069   6.007  46.772  0.00  0.00    +0.011 A 
ATOM     10  C   UNL A   1     -16.119   6.165  45.500  0.00  0.00    +0.011 A 
ATOM     11  C   UNL A   1     -13.663   4.927  45.984  0.00  0.00    +0.039 A 
ATOM     12  C   UNL A   1     -15.699   5.102  44.694  0.00  0.00    +0.039 A 
ATOM     13  C   UNL A   1     -14.478   4.492  44.946  0.00  0.00    +0.123 A 
ENDBRANCH   6   8
BRANCH   3  14
ATOM     14  C   UNL A   1     -15.587  11.659  47.420  0.00  0.00    +0.032 C 
ATOM     15  C   UNL A   1     -16.837  12.502  47.686  0.00  0.00    +0.014 C 
ATOM     16  C   UNL A   1     -14.388  12.198  48.200  0.00  0.00    +0.014 C 
ENDBRANCH   3  14
BRANCH   2  17
ATOM     17  C   UNL A   1     -17.567   8.665  50.642  0.00  0.00    +0.032 C 
ATOM     18  C   UNL A   1     -16.987   9.679  51.631  0.00  0.00    +0.014 C 
ATOM     19  C   UNL A   1     -19.066   8.905  50.436  0.00  0.00    +0.014 C 
ENDBRANCH   2  17
BRANCH   5  20
ATOM     20  C   UNL A   1     -14.709   9.357  45.682  0.00  0.00    +0.008 C 
ATOM     21  C   UNL A   1     -13.367   9.403  45.611  0.00  0.00    +0.005 C 
BRANCH  21  22
ATOM     22  C   UNL A   1     -12.558   9.566  44.351  0.00  0.00    +0.140 C 
BRANCH  22  23
ATOM     23  O   UNL A   1     -11.406   8.742  44.418  0.00  0.00    -0.388 OA
ATOM     24  H   UNL A   1     -11.077   8.618  43.513  0.00  0.00    +0.210 HD
ENDBRANCH  22  23
BRANCH  22  25
ATOM     25  C   UNL A   1     -13.407   9.247  43.112  0.00  0.00    +0.067 C 
BRANCH  25  26
ATOM     26  C   UNL A   1     -13.235  10.264  41.969  0.00  0.00    +0.128 C 
BRANCH  26  27
ATOM     27  O   UNL A   1     -11.949  10.879  42.035  0.00  0.00    -0.391 OA
ATOM     28  H   UNL A   1     -11.991  11.759  41.624  0.00  0.00    +0.210 HD
ENDBRANCH  26  27
BRANCH  26  29
ATOM     29  C   UNL A   1     -13.359   9.568  40.614  0.00  0.00    +0.151 C 
BRANCH  29  31
ATOM     30  O   UNL A   1     -12.674  11.635  39.486  0.00  0.00    -0.251 OA
ATOM     31  C   UNL A   1     -12.840  10.429  39.494  0.00  0.00    +0.307 C 
BRANCH  31  32
ATOM     32  O   UNL A   1     -12.625   9.707  38.374  0.00  0.00    -0.481 OA
ATOM     33  H   UNL A   1     -11.660   9.794  38.227  0.00  0.00    +0.295 HD
ENDBRANCH  31  32
ENDBRANCH  29  31
ENDBRANCH  26  29
ENDBRANCH  25  26
ENDBRANCH  22  25
ENDBRANCH  21  22
ENDBRANCH   5  20
BRANCH   4  34
ATOM     34  C   UNL A   1     -16.772   6.215  49.091  0.00  0.00    +0.197 C 
BRANCH  34  35
ATOM     35  O   UNL A   1     -18.021   5.829  48.523  0.00  0.00    -0.378 OA
ATOM     36  C   UNL A   1     -18.862   5.213  49.488  0.00  0.00    +0.194 C 
ENDBRANCH  34  35
ENDBRANCH   4  34
TORSDOF 14
