REMARK VINA RESULT:      -6.9     16.608     19.780
REMARK  Name = D03KIA
REMARK  19 active torsions:
REMARK  status: ('A' for Active; 'I' for Inactive)
REMARK    1  A    between atoms: O_2  and  C_15
REMARK    2  A    between atoms: O_2  and  C_32
REMARK    3  A    between atoms: O_3  and  C_18
REMARK    4  A    between atoms: O_4  and  C_25
REMARK    5  A    between atoms: O_5  and  C_33
REMARK    6  A    between atoms: C_8  and  C_14
REMARK    7  A    between atoms: C_9  and  C_13
REMARK    8  A    between atoms: C_10  and  C_15
REMARK    9  A    between atoms: C_11  and  C_17
REMARK   10  A    between atoms: C_12  and  C_16
REMARK   11  A    between atoms: C_13  and  C_19
REMARK   12  A    between atoms: C_13  and  C_20
REMARK   13  A    between atoms: C_14  and  C_21
REMARK   14  A    between atoms: C_14  and  C_22
REMARK   15  A    between atoms: C_18  and  C_23
REMARK   16  A    between atoms: C_18  and  C_24
REMARK   17  A    between atoms: C_23  and  C_25
REMARK   18  A    between atoms: C_25  and  C_28
REMARK   19  A    between atoms: C_28  and  C_33
REMARK                            x       y       z     vdW  Elec       q    Type
REMARK                         _______ _______ _______ _____ _____    ______ ____
ROOT
ATOM      1  N   UNL A   1     -27.812  -3.396  52.347  0.00  0.00    -0.255 NA
ATOM      2  C   UNL A   1     -28.328  -4.645  52.194  0.00  0.00    +0.050 A 
ATOM      3  C   UNL A   1     -26.506  -3.160  52.078  0.00  0.00    +0.052 A 
ATOM      4  C   UNL A   1     -27.537  -5.734  51.793  0.00  0.00    +0.008 A 
ATOM      5  C   UNL A   1     -25.645  -4.177  51.637  0.00  0.00    +0.004 A 
ATOM      6  C   UNL A   1     -26.165  -5.496  51.502  0.00  0.00    -0.002 A 
ENDROOT
BRANCH   6   8
ATOM      7  F   UNL A   1     -22.756  -9.633  49.794  0.00  0.00    -0.205 F 
ATOM      8  C   UNL A   1     -25.281  -6.600  51.051  0.00  0.00    -0.017 A 
ATOM      9  C   UNL A   1     -24.597  -7.401  51.982  0.00  0.00    +0.011 A 
ATOM     10  C   UNL A   1     -25.104  -6.868  49.679  0.00  0.00    +0.011 A 
ATOM     11  C   UNL A   1     -23.756  -8.433  51.559  0.00  0.00    +0.039 A 
ATOM     12  C   UNL A   1     -24.240  -7.883  49.256  0.00  0.00    +0.039 A 
ATOM     13  C   UNL A   1     -23.578  -8.657  50.199  0.00  0.00    +0.123 A 
ENDBRANCH   6   8
BRANCH   3  14
ATOM     14  C   UNL A   1     -26.064  -1.718  52.295  0.00  0.00    +0.032 C 
ATOM     15  C   UNL A   1     -26.481  -0.849  51.106  0.00  0.00    +0.014 C 
ATOM     16  C   UNL A   1     -26.619  -1.157  53.604  0.00  0.00    +0.014 C 
ENDBRANCH   3  14
BRANCH   2  17
ATOM     17  C   UNL A   1     -29.804  -4.756  52.528  0.00  0.00    +0.032 C 
ATOM     18  C   UNL A   1     -29.992  -4.868  54.043  0.00  0.00    +0.014 C 
ATOM     19  C   UNL A   1     -30.589  -3.564  51.971  0.00  0.00    +0.014 C 
ENDBRANCH   2  17
BRANCH   5  20
ATOM     20  C   UNL A   1     -24.220  -3.914  51.362  0.00  0.00    +0.008 C 
ATOM     21  C   UNL A   1     -23.289  -3.795  52.325  0.00  0.00    +0.005 C 
BRANCH  21  22
ATOM     22  C   UNL A   1     -21.814  -3.592  52.103  0.00  0.00    +0.140 C 
BRANCH  22  23
ATOM     23  O   UNL A   1     -21.610  -2.878  50.895  0.00  0.00    -0.388 OA
ATOM     24  H   UNL A   1     -21.185  -3.479  50.263  0.00  0.00    +0.210 HD
ENDBRANCH  22  23
BRANCH  22  25
ATOM     25  C   UNL A   1     -21.176  -2.869  53.298  0.00  0.00    +0.067 C 
BRANCH  25  26
ATOM     26  C   UNL A   1     -20.237  -3.762  54.128  0.00  0.00    +0.128 C 
BRANCH  26  27
ATOM     27  O   UNL A   1     -20.753  -5.090  54.213  0.00  0.00    -0.391 OA
ATOM     28  H   UNL A   1     -21.589  -5.079  54.710  0.00  0.00    +0.210 HD
ENDBRANCH  26  27
BRANCH  26  29
ATOM     29  C   UNL A   1     -18.855  -3.832  53.477  0.00  0.00    +0.151 C 
BRANCH  29  31
ATOM     30  O   UNL A   1     -17.163  -4.705  55.022  0.00  0.00    -0.251 OA
ATOM     31  C   UNL A   1     -17.980  -4.865  54.134  0.00  0.00    +0.307 C 
BRANCH  31  32
ATOM     32  O   UNL A   1     -18.128  -6.077  53.558  0.00  0.00    -0.481 OA
ATOM     33  H   UNL A   1     -17.436  -6.087  52.864  0.00  0.00    +0.295 HD
ENDBRANCH  31  32
ENDBRANCH  29  31
ENDBRANCH  26  29
ENDBRANCH  25  26
ENDBRANCH  22  25
ENDBRANCH  21  22
ENDBRANCH   5  20
BRANCH   4  34
ATOM     34  C   UNL A   1     -28.154  -7.106  51.636  0.00  0.00    +0.197 C 
BRANCH  34  35
ATOM     35  O   UNL A   1     -28.673  -7.227  50.313  0.00  0.00    -0.378 OA
ATOM     36  C   UNL A   1     -28.410  -8.513  49.769  0.00  0.00    +0.194 C 
ENDBRANCH  34  35
ENDBRANCH   4  34
TORSDOF 14
