REMARK VINA RESULT:      -6.3     23.744     25.297
REMARK  Name = D0CC8L
REMARK  6 active torsions:
REMARK  status: ('A' for Active; 'I' for Inactive)
REMARK    1  A    between atoms: C_2  and  C_3
REMARK    2  A    between atoms: C_2  and  O_5
REMARK    3  A    between atoms: O_5  and  C_6
REMARK    4  A    between atoms: C_7  and  C_16
REMARK    5  A    between atoms: C_7  and  C_17
REMARK    6  A    between atoms: C_15  and  C_18
REMARK                            x       y       z     vdW  Elec       q    Type
REMARK                         _______ _______ _______ _____ _____    ______ ____
ROOT
ATOM      1  O   UNL A   1     -13.516   7.834  42.733  0.00  0.00    -0.460 OA
ENDROOT
BRANCH   1   2
ATOM      2  C   UNL A   1     -13.245   6.542  43.313  0.00  0.00    +0.177 C 
ATOM      3  C   UNL A   1     -13.798   7.368  45.699  0.00  0.00    -0.031 C 
ATOM      4  C   UNL A   1     -12.739   6.759  44.745  0.00  0.00    +0.051 C 
ATOM      5  C   UNL A   1     -15.063   6.480  45.665  0.00  0.00    +0.010 C 
ATOM      6  C   UNL A   1     -14.521   5.691  43.315  0.00  0.00    +0.048 C 
ATOM      7  C   UNL A   1     -15.607   6.268  44.239  0.00  0.00    -0.010 C 
ATOM      8  C   UNL A   1     -13.225   7.395  47.130  0.00  0.00    +0.011 C 
ATOM      9  C   UNL A   1     -14.140   8.826  45.328  0.00  0.00    +0.011 C 
ATOM     10  C   UNL A   1     -16.841   5.368  44.259  0.00  0.00    +0.007 C 
ENDBRANCH   1   2
BRANCH   1  11
ATOM     11  C   UNL A   1     -12.852   8.161  41.596  0.00  0.00    +0.328 C 
ATOM     12  O   UNL A   1     -12.514   7.372  40.725  0.00  0.00    -0.249 OA
BRANCH  11  14
ATOM     13  N   UNL A   1     -12.569  10.126  40.178  0.00  0.00    -0.302 N 
ATOM     14  C   UNL A   1     -12.601   9.670  41.547  0.00  0.00    +0.182 C 
ATOM     15  C   UNL A   1     -13.423  11.172  39.936  0.00  0.00    +0.214 C 
ATOM     16  O   UNL A   1     -13.654  11.651  38.838  0.00  0.00    -0.276 OA
ATOM     17  C   UNL A   1     -13.741  10.460  42.178  0.00  0.00    +0.043 C 
ATOM     18  C   UNL A   1     -13.970  11.651  41.250  0.00  0.00    +0.098 C 
ATOM     19  H   UNL A   1     -12.201   9.584  39.406  0.00  0.00    +0.149 HD
ENDBRANCH  11  14
ENDBRANCH   1  11
TORSDOF 3
