REMARK VINA RESULT:      -6.4     34.675     36.026
REMARK  Name = D0CC8L
REMARK  6 active torsions:
REMARK  status: ('A' for Active; 'I' for Inactive)
REMARK    1  A    between atoms: C_2  and  C_3
REMARK    2  A    between atoms: C_2  and  O_5
REMARK    3  A    between atoms: O_5  and  C_6
REMARK    4  A    between atoms: C_7  and  C_16
REMARK    5  A    between atoms: C_7  and  C_17
REMARK    6  A    between atoms: C_15  and  C_18
REMARK                            x       y       z     vdW  Elec       q    Type
REMARK                         _______ _______ _______ _____ _____    ______ ____
ROOT
ATOM      1  O   UNL A   1     -30.358  21.912  35.000  0.00  0.00    -0.460 OA
ENDROOT
BRANCH   1   2
ATOM      2  C   UNL A   1     -31.632  22.588  34.965  0.00  0.00    +0.177 C 
ATOM      3  C   UNL A   1     -32.642  20.852  33.339  0.00  0.00    -0.031 C 
ATOM      4  C   UNL A   1     -32.269  22.335  33.593  0.00  0.00    +0.051 C 
ATOM      5  C   UNL A   1     -33.549  20.365  34.493  0.00  0.00    +0.010 C 
ATOM      6  C   UNL A   1     -32.536  22.061  36.086  0.00  0.00    +0.048 C 
ATOM      7  C   UNL A   1     -32.919  20.585  35.882  0.00  0.00    -0.010 C 
ATOM      8  C   UNL A   1     -33.406  20.751  32.004  0.00  0.00    +0.011 C 
ATOM      9  C   UNL A   1     -31.393  19.956  33.207  0.00  0.00    +0.011 C 
ATOM     10  C   UNL A   1     -33.863  20.109  36.985  0.00  0.00    +0.007 C 
ENDBRANCH   1   2
BRANCH   1  11
ATOM     11  C   UNL A   1     -29.385  22.452  35.774  0.00  0.00    +0.328 C 
ATOM     12  O   UNL A   1     -29.009  22.005  36.849  0.00  0.00    -0.249 OA
BRANCH  11  14
ATOM     13  N   UNL A   1     -27.637  24.153  35.815  0.00  0.00    -0.302 N 
ATOM     14  C   UNL A   1     -28.804  23.697  35.100  0.00  0.00    +0.182 C 
ATOM     15  C   UNL A   1     -26.536  24.310  35.012  0.00  0.00    +0.214 C 
ATOM     16  O   UNL A   1     -25.411  24.575  35.404  0.00  0.00    -0.276 OA
ATOM     17  C   UNL A   1     -28.290  23.400  33.697  0.00  0.00    +0.043 C 
ATOM     18  C   UNL A   1     -26.968  24.155  33.582  0.00  0.00    +0.098 C 
ATOM     19  H   UNL A   1     -27.525  24.093  36.820  0.00  0.00    +0.149 HD
ENDBRANCH  11  14
ENDBRANCH   1  11
TORSDOF 3
