REMARK  Name = D0CC8L
REMARK  6 active torsions:
REMARK  status: ('A' for Active; 'I' for Inactive)
REMARK    1  A    between atoms: C_2  and  C_3
REMARK    2  A    between atoms: C_2  and  O_5
REMARK    3  A    between atoms: O_5  and  C_6
REMARK    4  A    between atoms: C_7  and  C_16
REMARK    5  A    between atoms: C_7  and  C_17
REMARK    6  A    between atoms: C_15  and  C_18
REMARK                            x       y       z     vdW  Elec       q    Type
REMARK                         _______ _______ _______ _____ _____    ______ ____
ROOT
ATOM      1  O   UNL A   1      -2.012  -1.567   0.438  0.00  0.00    -0.460 OA
ENDROOT
BRANCH   1   2
ATOM      2  C   UNL A   1      -2.917  -2.108   1.422  0.00  0.00    +0.177 C 
ATOM      3  C   UNL A   1      -2.364  -4.545   0.763  0.00  0.00    -0.031 C 
ATOM      4  C   UNL A   1      -3.450  -3.447   0.896  0.00  0.00    +0.051 C 
ATOM      5  C   UNL A   1      -1.653  -4.705   2.127  0.00  0.00    +0.010 C 
ATOM      6  C   UNL A   1      -2.185  -2.305   2.755  0.00  0.00    +0.048 C 
ATOM      7  C   UNL A   1      -1.086  -3.377   2.665  0.00  0.00    -0.010 C 
ATOM      8  C   UNL A   1      -3.042  -5.874   0.376  0.00  0.00    +0.011 C 
ATOM      9  C   UNL A   1      -1.347  -4.221  -0.351  0.00  0.00    +0.011 C 
ATOM     10  C   UNL A   1      -0.415  -3.586   4.022  0.00  0.00    +0.007 C 
ENDBRANCH   1   2
BRANCH   1  11
ATOM     11  C   UNL A   1      -1.864  -0.220   0.398  0.00  0.00    +0.328 C 
ATOM     12  O   UNL A   1      -2.448   0.576   1.120  0.00  0.00    -0.249 OA
BRANCH  11  14
ATOM     13  N   UNL A   1      -1.054   1.530  -1.097  0.00  0.00    -0.302 N 
ATOM     14  C   UNL A   1      -0.841   0.167  -0.673  0.00  0.00    +0.182 C 
ATOM     15  C   UNL A   1       0.076   2.304  -1.022  0.00  0.00    +0.214 C 
ATOM     16  O   UNL A   1       0.119   3.507  -1.218  0.00  0.00    -0.276 OA
ATOM     17  C   UNL A   1       0.583   0.163  -0.130  0.00  0.00    +0.043 C 
ATOM     18  C   UNL A   1       1.243   1.409  -0.717  0.00  0.00    +0.098 C 
ATOM     19  H   UNL A   1      -1.964   1.969  -1.166  0.00  0.00    +0.149 HD
ENDBRANCH  11  14
ENDBRANCH   1  11
TORSDOF 3
