REMARK VINA RESULT:      -6.4     23.245     24.758
REMARK  Name = D0CC8L
REMARK  6 active torsions:
REMARK  status: ('A' for Active; 'I' for Inactive)
REMARK    1  A    between atoms: C_2  and  C_3
REMARK    2  A    between atoms: C_2  and  O_5
REMARK    3  A    between atoms: O_5  and  C_6
REMARK    4  A    between atoms: C_7  and  C_16
REMARK    5  A    between atoms: C_7  and  C_17
REMARK    6  A    between atoms: C_15  and  C_18
REMARK                            x       y       z     vdW  Elec       q    Type
REMARK                         _______ _______ _______ _____ _____    ______ ____
ROOT
ATOM      1  O   UNL A   1     -13.623   9.102  43.370  0.00  0.00    -0.460 OA
ENDROOT
BRANCH   1   2
ATOM      2  C   UNL A   1     -12.831   7.910  43.551  0.00  0.00    +0.177 C 
ATOM      3  C   UNL A   1     -13.469   7.722  46.048  0.00  0.00    -0.031 C 
ATOM      4  C   UNL A   1     -12.336   7.881  45.003  0.00  0.00    +0.051 C 
ATOM      5  C   UNL A   1     -14.294   6.462  45.696  0.00  0.00    +0.010 C 
ATOM      6  C   UNL A   1     -13.676   6.668  43.244  0.00  0.00    +0.048 C 
ATOM      7  C   UNL A   1     -14.824   6.480  44.250  0.00  0.00    -0.010 C 
ATOM      8  C   UNL A   1     -12.840   7.554  47.445  0.00  0.00    +0.011 C 
ATOM      9  C   UNL A   1     -14.375   8.970  46.114  0.00  0.00    +0.011 C 
ATOM     10  C   UNL A   1     -15.611   5.205  43.947  0.00  0.00    +0.007 C 
ENDBRANCH   1   2
BRANCH   1  11
ATOM     11  C   UNL A   1     -13.083  10.107  42.637  0.00  0.00    +0.328 C 
ATOM     12  O   UNL A   1     -12.249  10.905  43.041  0.00  0.00    -0.249 OA
BRANCH  11  14
ATOM     13  N   UNL A   1     -13.384  11.344  40.556  0.00  0.00    -0.302 N 
ATOM     14  C   UNL A   1     -13.654  10.090  41.217  0.00  0.00    +0.182 C 
ATOM     15  C   UNL A   1     -12.766  11.194  39.341  0.00  0.00    +0.214 C 
ATOM     16  O   UNL A   1     -12.339  12.105  38.652  0.00  0.00    -0.276 OA
ATOM     17  C   UNL A   1     -12.969   9.050  40.339  0.00  0.00    +0.043 C 
ATOM     18  C   UNL A   1     -12.760   9.734  38.990  0.00  0.00    +0.098 C 
ATOM     19  H   UNL A   1     -13.370  12.242  41.023  0.00  0.00    +0.149 HD
ENDBRANCH  11  14
ENDBRANCH   1  11
TORSDOF 3
