REMARK VINA RESULT:      -6.3     22.631     24.105
REMARK  Name = D0CC8L
REMARK  6 active torsions:
REMARK  status: ('A' for Active; 'I' for Inactive)
REMARK    1  A    between atoms: C_2  and  C_3
REMARK    2  A    between atoms: C_2  and  O_5
REMARK    3  A    between atoms: O_5  and  C_6
REMARK    4  A    between atoms: C_7  and  C_16
REMARK    5  A    between atoms: C_7  and  C_17
REMARK    6  A    between atoms: C_15  and  C_18
REMARK                            x       y       z     vdW  Elec       q    Type
REMARK                         _______ _______ _______ _____ _____    ______ ____
ROOT
ATOM      1  O   UNL A   1     -13.343   9.878  43.526  0.00  0.00    -0.460 OA
ENDROOT
BRANCH   1   2
ATOM      2  C   UNL A   1     -13.075  10.068  44.931  0.00  0.00    +0.177 C 
ATOM      3  C   UNL A   1     -13.717   7.632  45.505  0.00  0.00    -0.031 C 
ATOM      4  C   UNL A   1     -14.002   9.139  45.725  0.00  0.00    +0.051 C 
ATOM      5  C   UNL A   1     -12.227   7.360  45.816  0.00  0.00    +0.010 C 
ATOM      6  C   UNL A   1     -11.606   9.750  45.232  0.00  0.00    +0.048 C 
ATOM      7  C   UNL A   1     -11.273   8.264  45.011  0.00  0.00    -0.010 C 
ATOM      8  C   UNL A   1     -14.602   6.810  46.463  0.00  0.00    +0.011 C 
ATOM      9  C   UNL A   1     -14.069   7.179  44.072  0.00  0.00    +0.011 C 
ATOM     10  C   UNL A   1      -9.817   7.971  45.372  0.00  0.00    +0.007 C 
ENDBRANCH   1   2
BRANCH   1  11
ATOM     11  C   UNL A   1     -13.382  10.982  42.741  0.00  0.00    +0.328 C 
ATOM     12  O   UNL A   1     -13.089  12.114  43.101  0.00  0.00    -0.249 OA
BRANCH  11  14
ATOM     13  N   UNL A   1     -13.522  11.679  40.407  0.00  0.00    -0.302 N 
ATOM     14  C   UNL A   1     -13.828  10.608  41.326  0.00  0.00    +0.182 C 
ATOM     15  C   UNL A   1     -12.799  11.267  39.316  0.00  0.00    +0.214 C 
ATOM     16  O   UNL A   1     -12.329  12.004  38.465  0.00  0.00    -0.276 OA
ATOM     17  C   UNL A   1     -13.054   9.415  40.779  0.00  0.00    +0.043 C 
ATOM     18  C   UNL A   1     -12.741   9.766  39.326  0.00  0.00    +0.098 C 
ATOM     19  H   UNL A   1     -13.562  12.662  40.645  0.00  0.00    +0.149 HD
ENDBRANCH  11  14
ENDBRANCH   1  11
TORSDOF 3
