REMARK VINA RESULT:      -7.0      0.000      0.000
REMARK  Name = D0CC8L
REMARK  6 active torsions:
REMARK  status: ('A' for Active; 'I' for Inactive)
REMARK    1  A    between atoms: C_2  and  C_3
REMARK    2  A    between atoms: C_2  and  O_5
REMARK    3  A    between atoms: O_5  and  C_6
REMARK    4  A    between atoms: C_7  and  C_16
REMARK    5  A    between atoms: C_7  and  C_17
REMARK    6  A    between atoms: C_15  and  C_18
REMARK                            x       y       z     vdW  Elec       q    Type
REMARK                         _______ _______ _______ _____ _____    ______ ____
ROOT
ATOM      1  O   UNL A   1       5.243  19.630  31.539  0.00  0.00    -0.460 OA
ENDROOT
BRANCH   1   2
ATOM      2  C   UNL A   1       4.269  20.688  31.438  0.00  0.00    +0.177 C 
ATOM      3  C   UNL A   1       4.697  21.473  33.863  0.00  0.00    -0.031 C 
ATOM      4  C   UNL A   1       3.676  20.926  32.833  0.00  0.00    +0.051 C 
ATOM      5  C   UNL A   1       5.342  22.755  33.286  0.00  0.00    +0.010 C 
ATOM      6  C   UNL A   1       4.934  21.964  30.910  0.00  0.00    +0.048 C 
ATOM      7  C   UNL A   1       5.968  22.535  31.895  0.00  0.00    -0.010 C 
ATOM      8  C   UNL A   1       3.954  21.813  35.170  0.00  0.00    +0.011 C 
ATOM      9  C   UNL A   1       5.775  20.429  34.220  0.00  0.00    +0.011 C 
ATOM     10  C   UNL A   1       6.571  23.834  31.362  0.00  0.00    +0.007 C 
ENDBRANCH   1   2
BRANCH   1  11
ATOM     11  C   UNL A   1       4.824  18.366  31.281  0.00  0.00    +0.328 C 
ATOM     12  O   UNL A   1       4.704  17.479  32.114  0.00  0.00    -0.249 OA
BRANCH  11  14
ATOM     13  N   UNL A   1       5.674  17.784  29.070  0.00  0.00    -0.302 N 
ATOM     14  C   UNL A   1       4.501  18.211  29.793  0.00  0.00    +0.182 C 
ATOM     15  C   UNL A   1       5.464  16.663  28.308  0.00  0.00    +0.214 C 
ATOM     16  O   UNL A   1       6.328  16.052  27.701  0.00  0.00    -0.276 OA
ATOM     17  C   UNL A   1       3.484  17.104  29.543  0.00  0.00    +0.043 C 
ATOM     18  C   UNL A   1       3.993  16.359  28.310  0.00  0.00    +0.098 C 
ATOM     19  H   UNL A   1       6.619  18.072  29.296  0.00  0.00    +0.149 HD
ENDBRANCH  11  14
ENDBRANCH   1  11
TORSDOF 3
