REMARK VINA RESULT:      -8.2      0.920      1.268
REMARK  Name = D08GHB
REMARK  13 active torsions:
REMARK  status: ('A' for Active; 'I' for Inactive)
REMARK    1  A    between atoms: O_2  and  C_18
REMARK    2  A    between atoms: O_3  and  C_21
REMARK    3  A    between atoms: O_4  and  C_30
REMARK    4  A    between atoms: N_6  and  C_7
REMARK    5  A    between atoms: C_7  and  C_13
REMARK    6  A    between atoms: C_7  and  C_14
REMARK    7  A    between atoms: C_8  and  C_12
REMARK    8  A    between atoms: C_10  and  C_15
REMARK    9  A    between atoms: C_18  and  C_19
REMARK   10  A    between atoms: C_18  and  C_20
REMARK   11  A    between atoms: C_19  and  C_21
REMARK   12  A    between atoms: C_21  and  C_26
REMARK   13  A    between atoms: C_26  and  C_30
REMARK                            x       y       z     vdW  Elec       q    Type
REMARK                         _______ _______ _______ _____ _____    ______ ____
ROOT
ATOM      1  N   UNL A   1     -15.043   6.567  45.520  0.00  0.00    -0.337 N 
ATOM      2  C   UNL A   1     -14.182   7.630  45.264  0.00  0.00    +0.051 A 
ATOM      3  C   UNL A   1     -15.900   6.908  46.565  0.00  0.00    +0.050 A 
ATOM      4  C   UNL A   1     -14.484   8.642  46.166  0.00  0.00    +0.015 A 
ATOM      5  C   UNL A   1     -15.565   8.197  46.979  0.00  0.00    +0.008 A 
ATOM      6  C   UNL A   1     -16.945   6.196  47.192  0.00  0.00    +0.026 A 
ATOM      7  C   UNL A   1     -16.276   8.783  48.048  0.00  0.00    +0.010 A 
ATOM      8  C   UNL A   1     -17.638   6.801  48.242  0.00  0.00    +0.002 A 
ATOM      9  C   UNL A   1     -17.309   8.079  48.669  0.00  0.00    +0.001 A 
ENDROOT
BRANCH   4  11
ATOM     10  F   UNL A   1     -11.784  13.523  46.362  0.00  0.00    -0.205 F 
ATOM     11  C   UNL A   1     -13.778   9.914  46.231  0.00  0.00    -0.015 A 
ATOM     12  C   UNL A   1     -14.164  10.965  45.386  0.00  0.00    +0.011 A 
ATOM     13  C   UNL A   1     -12.710  10.097  47.121  0.00  0.00    +0.011 A 
ATOM     14  C   UNL A   1     -13.487  12.185  45.431  0.00  0.00    +0.039 A 
ATOM     15  C   UNL A   1     -12.036  11.319  47.165  0.00  0.00    +0.039 A 
ATOM     16  C   UNL A   1     -12.432  12.351  46.321  0.00  0.00    +0.123 A 
ENDBRANCH   4  11
BRANCH   1  17
ATOM     17  C   UNL A   1     -15.080   5.289  44.794  0.00  0.00    +0.082 C 
ATOM     18  C   UNL A   1     -14.546   4.123  45.631  0.00  0.00    +0.030 C 
ATOM     19  C   UNL A   1     -16.455   4.994  44.187  0.00  0.00    +0.030 C 
ENDBRANCH   1  17
BRANCH   2  20
ATOM     20  C   UNL A   1     -13.196   7.537  44.245  0.00  0.00    +0.025 C 
ATOM     21  C   UNL A   1     -13.406   8.073  43.031  0.00  0.00    +0.006 C 
BRANCH  21  22
ATOM     22  C   UNL A   1     -12.403   8.135  41.911  0.00  0.00    +0.140 C 
BRANCH  22  23
ATOM     23  O   UNL A   1     -12.930   7.451  40.783  0.00  0.00    -0.388 OA
ATOM     24  H   UNL A   1     -12.676   6.518  40.860  0.00  0.00    +0.210 HD
ENDBRANCH  22  23
BRANCH  22  25
ATOM     25  C   UNL A   1     -12.030   9.591  41.572  0.00  0.00    +0.067 C 
BRANCH  25  26
ATOM     26  C   UNL A   1     -13.235  10.547  41.628  0.00  0.00    +0.128 C 
BRANCH  26  27
ATOM     27  O   UNL A   1     -12.795  11.850  42.009  0.00  0.00    -0.391 OA
ATOM     28  H   UNL A   1     -12.085  11.771  42.666  0.00  0.00    +0.210 HD
ENDBRANCH  26  27
BRANCH  26  29
ATOM     29  C   UNL A   1     -13.929  10.647  40.269  0.00  0.00    +0.151 C 
BRANCH  29  31
ATOM     30  O   UNL A   1     -12.366  11.934  38.880  0.00  0.00    -0.251 OA
ATOM     31  C   UNL A   1     -12.935  10.898  39.163  0.00  0.00    +0.307 C 
BRANCH  31  32
ATOM     32  O   UNL A   1     -12.726   9.791  38.423  0.00  0.00    -0.481 OA
ATOM     33  H   UNL A   1     -13.544   9.269  38.574  0.00  0.00    +0.295 HD
ENDBRANCH  31  32
ENDBRANCH  29  31
ENDBRANCH  26  29
ENDBRANCH  25  26
ENDBRANCH  22  25
ENDBRANCH  21  22
ENDBRANCH   2  20
TORSDOF 11
