REMARK  Name = D08GHB
REMARK  13 active torsions:
REMARK  status: ('A' for Active; 'I' for Inactive)
REMARK    1  A    between atoms: O_2  and  C_18
REMARK    2  A    between atoms: O_3  and  C_21
REMARK    3  A    between atoms: O_4  and  C_30
REMARK    4  A    between atoms: N_6  and  C_7
REMARK    5  A    between atoms: C_7  and  C_13
REMARK    6  A    between atoms: C_7  and  C_14
REMARK    7  A    between atoms: C_8  and  C_12
REMARK    8  A    between atoms: C_10  and  C_15
REMARK    9  A    between atoms: C_18  and  C_19
REMARK   10  A    between atoms: C_18  and  C_20
REMARK   11  A    between atoms: C_19  and  C_21
REMARK   12  A    between atoms: C_21  and  C_26
REMARK   13  A    between atoms: C_26  and  C_30
REMARK                            x       y       z     vdW  Elec       q    Type
REMARK                         _______ _______ _______ _____ _____    ______ ____
ROOT
ATOM      1  N   UNL A   1       3.044   0.331   3.857  0.00  0.00    -0.337 N 
ATOM      2  C   UNL A   1       1.843  -0.180   3.375  0.00  0.00    +0.051 A 
ATOM      3  C   UNL A   1       3.425  -0.379   4.994  0.00  0.00    +0.050 A 
ATOM      4  C   UNL A   1       1.452  -1.208   4.223  0.00  0.00    +0.015 A 
ATOM      5  C   UNL A   1       2.445  -1.341   5.236  0.00  0.00    +0.008 A 
ATOM      6  C   UNL A   1       4.548  -0.262   5.841  0.00  0.00    +0.026 A 
ATOM      7  C   UNL A   1       2.579  -2.195   6.352  0.00  0.00    +0.010 A 
ATOM      8  C   UNL A   1       4.662  -1.124   6.933  0.00  0.00    +0.002 A 
ATOM      9  C   UNL A   1       3.689  -2.079   7.190  0.00  0.00    +0.001 A 
ENDROOT
BRANCH   4  11
ATOM     10  F   UNL A   1      -3.225  -4.182   3.574  0.00  0.00    -0.205 F 
ATOM     11  C   UNL A   1       0.226  -1.976   4.064  0.00  0.00    -0.015 A 
ATOM     12  C   UNL A   1       0.299  -3.348   3.779  0.00  0.00    +0.011 A 
ATOM     13  C   UNL A   1      -1.028  -1.359   4.181  0.00  0.00    +0.011 A 
ATOM     14  C   UNL A   1      -0.870  -4.092   3.612  0.00  0.00    +0.039 A 
ATOM     15  C   UNL A   1      -2.195  -2.106   4.015  0.00  0.00    +0.039 A 
ATOM     16  C   UNL A   1      -2.105  -3.465   3.734  0.00  0.00    +0.123 A 
ENDBRANCH   4  11
BRANCH   1  17
ATOM     17  C   UNL A   1       3.820   1.427   3.259  0.00  0.00    +0.082 C 
ATOM     18  C   UNL A   1       3.919   2.647   4.179  0.00  0.00    +0.030 C 
ATOM     19  C   UNL A   1       5.188   0.970   2.743  0.00  0.00    +0.030 C 
ENDBRANCH   1  17
BRANCH   2  20
ATOM     20  C   UNL A   1       1.227   0.376   2.221  0.00  0.00    +0.025 C 
ATOM     21  C   UNL A   1       0.780  -0.413   1.230  0.00  0.00    +0.006 C 
BRANCH  21  22
ATOM     22  C   UNL A   1       0.019   0.046   0.015  0.00  0.00    +0.140 C 
BRANCH  22  23
ATOM     23  O   UNL A   1      -0.100   1.461   0.054  0.00  0.00    -0.388 OA
ATOM     24  H   UNL A   1       0.764   1.835  -0.179  0.00  0.00    +0.210 HD
ENDBRANCH  22  23
BRANCH  22  25
ATOM     25  C   UNL A   1       0.695  -0.435  -1.284  0.00  0.00    +0.067 C 
BRANCH  25  26
ATOM     26  C   UNL A   1      -0.088  -0.039  -2.549  0.00  0.00    +0.128 C 
BRANCH  26  27
ATOM     27  O   UNL A   1      -0.060   1.380  -2.703  0.00  0.00    -0.391 OA
ATOM     28  H   UNL A   1       0.861   1.682  -2.742  0.00  0.00    +0.210 HD
ENDBRANCH  26  27
BRANCH  26  29
ATOM     29  C   UNL A   1       0.517  -0.676  -3.800  0.00  0.00    +0.151 C 
BRANCH  29  31
ATOM     30  O   UNL A   1      -1.485   0.004  -5.049  0.00  0.00    -0.251 OA
ATOM     31  C   UNL A   1      -0.361  -0.457  -5.006  0.00  0.00    +0.307 C 
BRANCH  31  32
ATOM     32  O   UNL A   1       0.238  -0.876  -6.139  0.00  0.00    -0.481 OA
ATOM     33  H   UNL A   1      -0.432  -0.673  -6.828  0.00  0.00    +0.295 HD
ENDBRANCH  31  32
ENDBRANCH  29  31
ENDBRANCH  26  29
ENDBRANCH  25  26
ENDBRANCH  22  25
ENDBRANCH  21  22
ENDBRANCH   2  20
TORSDOF 11
