REMARK VINA RESULT:      -7.2      4.298      7.328
REMARK  Name = D08GHB
REMARK  13 active torsions:
REMARK  status: ('A' for Active; 'I' for Inactive)
REMARK    1  A    between atoms: O_2  and  C_18
REMARK    2  A    between atoms: O_3  and  C_21
REMARK    3  A    between atoms: O_4  and  C_30
REMARK    4  A    between atoms: N_6  and  C_7
REMARK    5  A    between atoms: C_7  and  C_13
REMARK    6  A    between atoms: C_7  and  C_14
REMARK    7  A    between atoms: C_8  and  C_12
REMARK    8  A    between atoms: C_10  and  C_15
REMARK    9  A    between atoms: C_18  and  C_19
REMARK   10  A    between atoms: C_18  and  C_20
REMARK   11  A    between atoms: C_19  and  C_21
REMARK   12  A    between atoms: C_21  and  C_26
REMARK   13  A    between atoms: C_26  and  C_30
REMARK                            x       y       z     vdW  Elec       q    Type
REMARK                         _______ _______ _______ _____ _____    ______ ____
ROOT
ATOM      1  N   UNL A   1     -14.515   6.963  44.612  0.00  0.00    -0.337 N 
ATOM      2  C   UNL A   1     -14.441   7.852  45.680  0.00  0.00    +0.051 A 
ATOM      3  C   UNL A   1     -13.903   7.531  43.496  0.00  0.00    +0.050 A 
ATOM      4  C   UNL A   1     -13.795   8.997  45.232  0.00  0.00    +0.015 A 
ATOM      5  C   UNL A   1     -13.450   8.797  43.864  0.00  0.00    +0.008 A 
ATOM      6  C   UNL A   1     -13.708   7.047  42.184  0.00  0.00    +0.026 A 
ATOM      7  C   UNL A   1     -12.801   9.603  42.904  0.00  0.00    +0.010 A 
ATOM      8  C   UNL A   1     -13.055   7.859  41.256  0.00  0.00    +0.002 A 
ATOM      9  C   UNL A   1     -12.608   9.125  41.607  0.00  0.00    +0.001 A 
ENDROOT
BRANCH   4  11
ATOM     10  F   UNL A   1     -12.879  13.530  48.355  0.00  0.00    -0.205 F 
ATOM     11  C   UNL A   1     -13.550  10.171  46.056  0.00  0.00    -0.015 A 
ATOM     12  C   UNL A   1     -14.524  11.177  46.138  0.00  0.00    +0.011 A 
ATOM     13  C   UNL A   1     -12.346  10.314  46.762  0.00  0.00    +0.011 A 
ATOM     14  C   UNL A   1     -14.294  12.314  46.915  0.00  0.00    +0.039 A 
ATOM     15  C   UNL A   1     -12.120  11.451  47.539  0.00  0.00    +0.039 A 
ATOM     16  C   UNL A   1     -13.096  12.438  47.610  0.00  0.00    +0.123 A 
ENDBRANCH   4  11
BRANCH   1  17
ATOM     17  C   UNL A   1     -15.112   5.621  44.642  0.00  0.00    +0.082 C 
ATOM     18  C   UNL A   1     -16.510   5.585  44.018  0.00  0.00    +0.030 C 
ATOM     19  C   UNL A   1     -14.185   4.547  44.065  0.00  0.00    +0.030 C 
ENDBRANCH   1  17
BRANCH   2  20
ATOM     20  C   UNL A   1     -15.001   7.518  46.943  0.00  0.00    +0.025 C 
ATOM     21  C   UNL A   1     -16.301   7.738  47.201  0.00  0.00    +0.006 C 
BRANCH  21  22
ATOM     22  C   UNL A   1     -17.031   7.332  48.453  0.00  0.00    +0.140 C 
BRANCH  22  23
ATOM     23  O   UNL A   1     -17.515   8.499  49.102  0.00  0.00    -0.388 OA
ATOM     24  H   UNL A   1     -16.771   9.113  49.197  0.00  0.00    +0.210 HD
ENDBRANCH  22  23
BRANCH  22  25
ATOM     25  C   UNL A   1     -18.167   6.338  48.142  0.00  0.00    +0.067 C 
BRANCH  25  26
ATOM     26  C   UNL A   1     -19.567   6.962  48.291  0.00  0.00    +0.128 C 
BRANCH  26  27
ATOM     27  O   UNL A   1     -20.315   6.746  47.094  0.00  0.00    -0.391 OA
ATOM     28  H   UNL A   1     -21.016   7.413  47.028  0.00  0.00    +0.210 HD
ENDBRANCH  26  27
BRANCH  26  29
ATOM     29  C   UNL A   1     -20.330   6.343  49.461  0.00  0.00    +0.151 C 
BRANCH  29  31
ATOM     30  O   UNL A   1     -19.993   3.934  49.800  0.00  0.00    -0.251 OA
ATOM     31  C   UNL A   1     -20.550   4.866  49.252  0.00  0.00    +0.307 C 
BRANCH  31  32
ATOM     32  O   UNL A   1     -21.478   4.631  48.303  0.00  0.00    -0.481 OA
ATOM     33  H   UNL A   1     -20.963   4.168  47.605  0.00  0.00    +0.295 HD
ENDBRANCH  31  32
ENDBRANCH  29  31
ENDBRANCH  26  29
ENDBRANCH  25  26
ENDBRANCH  22  25
ENDBRANCH  21  22
ENDBRANCH   2  20
TORSDOF 11
