MODEL 1
REMARK VINA RESULT:      -8.5      0.000      0.000
REMARK  Name = D08GHB
REMARK  13 active torsions:
REMARK  status: ('A' for Active; 'I' for Inactive)
REMARK    1  A    between atoms: O_2  and  C_18
REMARK    2  A    between atoms: O_3  and  C_21
REMARK    3  A    between atoms: O_4  and  C_30
REMARK    4  A    between atoms: N_6  and  C_7
REMARK    5  A    between atoms: C_7  and  C_13
REMARK    6  A    between atoms: C_7  and  C_14
REMARK    7  A    between atoms: C_8  and  C_12
REMARK    8  A    between atoms: C_10  and  C_15
REMARK    9  A    between atoms: C_18  and  C_19
REMARK   10  A    between atoms: C_18  and  C_20
REMARK   11  A    between atoms: C_19  and  C_21
REMARK   12  A    between atoms: C_21  and  C_26
REMARK   13  A    between atoms: C_26  and  C_30
REMARK                            x       y       z     vdW  Elec       q    Type
REMARK                         _______ _______ _______ _____ _____    ______ ____
ROOT
ATOM      1  N   UNL A   1     -14.897   6.549  45.496  0.00  0.00    -0.337 N 
ATOM      2  C   UNL A   1     -14.028   7.591  45.185  0.00  0.00    +0.051 A 
ATOM      3  C   UNL A   1     -15.793   6.972  46.475  0.00  0.00    +0.050 A 
ATOM      4  C   UNL A   1     -14.365   8.673  45.987  0.00  0.00    +0.015 A 
ATOM      5  C   UNL A   1     -15.476   8.292  46.793  0.00  0.00    +0.008 A 
ATOM      6  C   UNL A   1     -16.860   6.310  47.120  0.00  0.00    +0.026 A 
ATOM      7  C   UNL A   1     -16.229   8.962  47.782  0.00  0.00    +0.010 A 
ATOM      8  C   UNL A   1     -17.595   6.997  48.088  0.00  0.00    +0.002 A 
ATOM      9  C   UNL A   1     -17.283   8.307  48.419  0.00  0.00    +0.001 A 
ENDROOT
BRANCH   4  11
ATOM     10  F   UNL A   1     -11.687  13.568  45.879  0.00  0.00    -0.205 F 
ATOM     11  C   UNL A   1     -13.665   9.949  45.973  0.00  0.00    -0.015 A 
ATOM     12  C   UNL A   1     -14.105  10.973  45.120  0.00  0.00    +0.011 A 
ATOM     13  C   UNL A   1     -12.548  10.164  46.793  0.00  0.00    +0.011 A 
ATOM     14  C   UNL A   1     -13.433  12.196  45.089  0.00  0.00    +0.039 A 
ATOM     15  C   UNL A   1     -11.879  11.389  46.761  0.00  0.00    +0.039 A 
ATOM     16  C   UNL A   1     -12.329  12.393  45.911  0.00  0.00    +0.123 A 
ENDBRANCH   4  11
BRANCH   1  17
ATOM     17  C   UNL A   1     -14.904   5.215  44.878  0.00  0.00    +0.082 C 
ATOM     18  C   UNL A   1     -14.508   4.110  45.861  0.00  0.00    +0.030 C 
ATOM     19  C   UNL A   1     -16.216   4.908  44.150  0.00  0.00    +0.030 C 
ENDBRANCH   1  17
BRANCH   2  20
ATOM     20  C   UNL A   1     -13.004   7.418  44.215  0.00  0.00    +0.025 C 
ATOM     21  C   UNL A   1     -13.252   7.607  42.909  0.00  0.00    +0.006 C 
BRANCH  21  22
ATOM     22  C   UNL A   1     -12.232   7.560  41.803  0.00  0.00    +0.140 C 
BRANCH  22  23
ATOM     23  O   UNL A   1     -11.549   6.315  41.859  0.00  0.00    -0.388 OA
ATOM     24  H   UNL A   1     -10.671   6.444  41.469  0.00  0.00    +0.210 HD
ENDBRANCH  22  23
BRANCH  22  25
ATOM     25  C   UNL A   1     -12.886   7.792  40.427  0.00  0.00    +0.067 C 
BRANCH  25  26
ATOM     26  C   UNL A   1     -12.305   9.009  39.685  0.00  0.00    +0.128 C 
BRANCH  26  27
ATOM     27  O   UNL A   1     -12.697   8.964  38.313  0.00  0.00    -0.391 OA
ATOM     28  H   UNL A   1     -13.653   9.113  38.246  0.00  0.00    +0.210 HD
ENDBRANCH  26  27
BRANCH  26  29
ATOM     29  C   UNL A   1     -12.805  10.320  40.290  0.00  0.00    +0.151 C 
BRANCH  29  31
ATOM     30  O   UNL A   1     -12.416  12.108  38.652  0.00  0.00    -0.251 OA
ATOM     31  C   UNL A   1     -13.151  11.323  39.218  0.00  0.00    +0.307 C 
BRANCH  31  32
ATOM     32  O   UNL A   1     -14.467  11.302  38.925  0.00  0.00    -0.481 OA
ATOM     33  H   UNL A   1     -14.835  10.706  39.615  0.00  0.00    +0.295 HD
ENDBRANCH  31  32
ENDBRANCH  29  31
ENDBRANCH  26  29
ENDBRANCH  25  26
ENDBRANCH  22  25
ENDBRANCH  21  22
ENDBRANCH   2  20
TORSDOF 11
ENDMDL
MODEL 2
REMARK VINA RESULT:      -8.2      0.920      1.268
REMARK  Name = D08GHB
REMARK  13 active torsions:
REMARK  status: ('A' for Active; 'I' for Inactive)
REMARK    1  A    between atoms: O_2  and  C_18
REMARK    2  A    between atoms: O_3  and  C_21
REMARK    3  A    between atoms: O_4  and  C_30
REMARK    4  A    between atoms: N_6  and  C_7
REMARK    5  A    between atoms: C_7  and  C_13
REMARK    6  A    between atoms: C_7  and  C_14
REMARK    7  A    between atoms: C_8  and  C_12
REMARK    8  A    between atoms: C_10  and  C_15
REMARK    9  A    between atoms: C_18  and  C_19
REMARK   10  A    between atoms: C_18  and  C_20
REMARK   11  A    between atoms: C_19  and  C_21
REMARK   12  A    between atoms: C_21  and  C_26
REMARK   13  A    between atoms: C_26  and  C_30
REMARK                            x       y       z     vdW  Elec       q    Type
REMARK                         _______ _______ _______ _____ _____    ______ ____
ROOT
ATOM      1  N   UNL A   1     -15.043   6.567  45.520  0.00  0.00    -0.337 N 
ATOM      2  C   UNL A   1     -14.182   7.630  45.264  0.00  0.00    +0.051 A 
ATOM      3  C   UNL A   1     -15.900   6.908  46.565  0.00  0.00    +0.050 A 
ATOM      4  C   UNL A   1     -14.484   8.642  46.166  0.00  0.00    +0.015 A 
ATOM      5  C   UNL A   1     -15.565   8.197  46.979  0.00  0.00    +0.008 A 
ATOM      6  C   UNL A   1     -16.945   6.196  47.192  0.00  0.00    +0.026 A 
ATOM      7  C   UNL A   1     -16.276   8.783  48.048  0.00  0.00    +0.010 A 
ATOM      8  C   UNL A   1     -17.638   6.801  48.242  0.00  0.00    +0.002 A 
ATOM      9  C   UNL A   1     -17.309   8.079  48.669  0.00  0.00    +0.001 A 
ENDROOT
BRANCH   4  11
ATOM     10  F   UNL A   1     -11.784  13.523  46.362  0.00  0.00    -0.205 F 
ATOM     11  C   UNL A   1     -13.778   9.914  46.231  0.00  0.00    -0.015 A 
ATOM     12  C   UNL A   1     -14.164  10.965  45.386  0.00  0.00    +0.011 A 
ATOM     13  C   UNL A   1     -12.710  10.097  47.121  0.00  0.00    +0.011 A 
ATOM     14  C   UNL A   1     -13.487  12.185  45.431  0.00  0.00    +0.039 A 
ATOM     15  C   UNL A   1     -12.036  11.319  47.165  0.00  0.00    +0.039 A 
ATOM     16  C   UNL A   1     -12.432  12.351  46.321  0.00  0.00    +0.123 A 
ENDBRANCH   4  11
BRANCH   1  17
ATOM     17  C   UNL A   1     -15.080   5.289  44.794  0.00  0.00    +0.082 C 
ATOM     18  C   UNL A   1     -14.546   4.123  45.631  0.00  0.00    +0.030 C 
ATOM     19  C   UNL A   1     -16.455   4.994  44.187  0.00  0.00    +0.030 C 
ENDBRANCH   1  17
BRANCH   2  20
ATOM     20  C   UNL A   1     -13.196   7.537  44.245  0.00  0.00    +0.025 C 
ATOM     21  C   UNL A   1     -13.406   8.073  43.031  0.00  0.00    +0.006 C 
BRANCH  21  22
ATOM     22  C   UNL A   1     -12.403   8.135  41.911  0.00  0.00    +0.140 C 
BRANCH  22  23
ATOM     23  O   UNL A   1     -12.930   7.451  40.783  0.00  0.00    -0.388 OA
ATOM     24  H   UNL A   1     -12.676   6.518  40.860  0.00  0.00    +0.210 HD
ENDBRANCH  22  23
BRANCH  22  25
ATOM     25  C   UNL A   1     -12.030   9.591  41.572  0.00  0.00    +0.067 C 
BRANCH  25  26
ATOM     26  C   UNL A   1     -13.235  10.547  41.628  0.00  0.00    +0.128 C 
BRANCH  26  27
ATOM     27  O   UNL A   1     -12.795  11.850  42.009  0.00  0.00    -0.391 OA
ATOM     28  H   UNL A   1     -12.085  11.771  42.666  0.00  0.00    +0.210 HD
ENDBRANCH  26  27
BRANCH  26  29
ATOM     29  C   UNL A   1     -13.929  10.647  40.269  0.00  0.00    +0.151 C 
BRANCH  29  31
ATOM     30  O   UNL A   1     -12.366  11.934  38.880  0.00  0.00    -0.251 OA
ATOM     31  C   UNL A   1     -12.935  10.898  39.163  0.00  0.00    +0.307 C 
BRANCH  31  32
ATOM     32  O   UNL A   1     -12.726   9.791  38.423  0.00  0.00    -0.481 OA
ATOM     33  H   UNL A   1     -13.544   9.269  38.574  0.00  0.00    +0.295 HD
ENDBRANCH  31  32
ENDBRANCH  29  31
ENDBRANCH  26  29
ENDBRANCH  25  26
ENDBRANCH  22  25
ENDBRANCH  21  22
ENDBRANCH   2  20
TORSDOF 11
ENDMDL
MODEL 3
REMARK VINA RESULT:      -7.8     10.135     12.815
REMARK  Name = D08GHB
REMARK  13 active torsions:
REMARK  status: ('A' for Active; 'I' for Inactive)
REMARK    1  A    between atoms: O_2  and  C_18
REMARK    2  A    between atoms: O_3  and  C_21
REMARK    3  A    between atoms: O_4  and  C_30
REMARK    4  A    between atoms: N_6  and  C_7
REMARK    5  A    between atoms: C_7  and  C_13
REMARK    6  A    between atoms: C_7  and  C_14
REMARK    7  A    between atoms: C_8  and  C_12
REMARK    8  A    between atoms: C_10  and  C_15
REMARK    9  A    between atoms: C_18  and  C_19
REMARK   10  A    between atoms: C_18  and  C_20
REMARK   11  A    between atoms: C_19  and  C_21
REMARK   12  A    between atoms: C_21  and  C_26
REMARK   13  A    between atoms: C_26  and  C_30
REMARK                            x       y       z     vdW  Elec       q    Type
REMARK                         _______ _______ _______ _____ _____    ______ ____
ROOT
ATOM      1  N   UNL A   1      -4.737   3.175  45.138  0.00  0.00    -0.337 N 
ATOM      2  C   UNL A   1      -4.921   4.113  46.148  0.00  0.00    +0.051 A 
ATOM      3  C   UNL A   1      -3.379   3.073  44.844  0.00  0.00    +0.050 A 
ATOM      4  C   UNL A   1      -3.673   4.622  46.483  0.00  0.00    +0.015 A 
ATOM      5  C   UNL A   1      -2.702   3.968  45.672  0.00  0.00    +0.008 A 
ATOM      6  C   UNL A   1      -2.676   2.273  43.917  0.00  0.00    +0.026 A 
ATOM      7  C   UNL A   1      -1.298   4.078  45.565  0.00  0.00    +0.010 A 
ATOM      8  C   UNL A   1      -1.288   2.395  43.836  0.00  0.00    +0.002 A 
ATOM      9  C   UNL A   1      -0.604   3.288  44.648  0.00  0.00    +0.001 A 
ENDROOT
BRANCH   4  11
ATOM     10  F   UNL A   1      -2.796   8.596  50.302  0.00  0.00    -0.205 F 
ATOM     11  C   UNL A   1      -3.454   5.652  47.488  0.00  0.00    -0.015 A 
ATOM     12  C   UNL A   1      -3.221   6.976  47.085  0.00  0.00    +0.011 A 
ATOM     13  C   UNL A   1      -3.461   5.336  48.854  0.00  0.00    +0.011 A 
ATOM     14  C   UNL A   1      -2.997   7.970  48.039  0.00  0.00    +0.039 A 
ATOM     15  C   UNL A   1      -3.239   6.332  49.805  0.00  0.00    +0.039 A 
ATOM     16  C   UNL A   1      -3.011   7.639  49.389  0.00  0.00    +0.123 A 
ENDBRANCH   4  11
BRANCH   1  17
ATOM     17  C   UNL A   1      -5.792   2.382  44.490  0.00  0.00    +0.082 C 
ATOM     18  C   UNL A   1      -6.000   1.021  45.160  0.00  0.00    +0.030 C 
ATOM     19  C   UNL A   1      -7.101   3.161  44.328  0.00  0.00    +0.030 C 
ENDBRANCH   1  17
BRANCH   2  20
ATOM     20  C   UNL A   1      -6.223   4.415  46.632  0.00  0.00    +0.025 C 
ATOM     21  C   UNL A   1      -6.724   3.784  47.707  0.00  0.00    +0.006 C 
BRANCH  21  22
ATOM     22  C   UNL A   1      -8.037   4.090  48.374  0.00  0.00    +0.140 C 
BRANCH  22  23
ATOM     23  O   UNL A   1      -9.067   3.364  47.718  0.00  0.00    -0.388 OA
ATOM     24  H   UNL A   1      -9.703   4.008  47.367  0.00  0.00    +0.210 HD
ENDBRANCH  22  23
BRANCH  22  25
ATOM     25  C   UNL A   1      -7.987   3.773  49.882  0.00  0.00    +0.067 C 
BRANCH  25  26
ATOM     26  C   UNL A   1      -6.550   3.658  50.422  0.00  0.00    +0.128 C 
BRANCH  26  27
ATOM     27  O   UNL A   1      -6.230   4.825  51.180  0.00  0.00    -0.391 OA
ATOM     28  H   UNL A   1      -5.735   4.568  51.973  0.00  0.00    +0.210 HD
ENDBRANCH  26  27
BRANCH  26  29
ATOM     29  C   UNL A   1      -6.390   2.434  51.324  0.00  0.00    +0.151 C 
BRANCH  29  31
ATOM     30  O   UNL A   1      -3.956   2.627  51.581  0.00  0.00    -0.251 OA
ATOM     31  C   UNL A   1      -4.956   1.970  51.370  0.00  0.00    +0.307 C 
BRANCH  31  32
ATOM     32  O   UNL A   1      -4.852   0.652  51.106  0.00  0.00    -0.481 OA
ATOM     33  H   UNL A   1      -5.743   0.312  51.339  0.00  0.00    +0.295 HD
ENDBRANCH  31  32
ENDBRANCH  29  31
ENDBRANCH  26  29
ENDBRANCH  25  26
ENDBRANCH  22  25
ENDBRANCH  21  22
ENDBRANCH   2  20
TORSDOF 11
ENDMDL
MODEL 4
REMARK VINA RESULT:      -7.7      2.456      4.772
REMARK  Name = D08GHB
REMARK  13 active torsions:
REMARK  status: ('A' for Active; 'I' for Inactive)
REMARK    1  A    between atoms: O_2  and  C_18
REMARK    2  A    between atoms: O_3  and  C_21
REMARK    3  A    between atoms: O_4  and  C_30
REMARK    4  A    between atoms: N_6  and  C_7
REMARK    5  A    between atoms: C_7  and  C_13
REMARK    6  A    between atoms: C_7  and  C_14
REMARK    7  A    between atoms: C_8  and  C_12
REMARK    8  A    between atoms: C_10  and  C_15
REMARK    9  A    between atoms: C_18  and  C_19
REMARK   10  A    between atoms: C_18  and  C_20
REMARK   11  A    between atoms: C_19  and  C_21
REMARK   12  A    between atoms: C_21  and  C_26
REMARK   13  A    between atoms: C_26  and  C_30
REMARK                            x       y       z     vdW  Elec       q    Type
REMARK                         _______ _______ _______ _____ _____    ______ ____
ROOT
ATOM      1  N   UNL A   1     -13.289  10.036  46.050  0.00  0.00    -0.337 N 
ATOM      2  C   UNL A   1     -13.429   8.773  45.482  0.00  0.00    +0.051 A 
ATOM      3  C   UNL A   1     -14.269  10.215  47.024  0.00  0.00    +0.050 A 
ATOM      4  C   UNL A   1     -14.516   8.157  46.087  0.00  0.00    +0.015 A 
ATOM      5  C   UNL A   1     -15.042   9.055  47.060  0.00  0.00    +0.008 A 
ATOM      6  C   UNL A   1     -14.553  11.300  47.881  0.00  0.00    +0.026 A 
ATOM      7  C   UNL A   1     -16.128   8.979  47.959  0.00  0.00    +0.010 A 
ATOM      8  C   UNL A   1     -15.627  11.196  48.767  0.00  0.00    +0.002 A 
ATOM      9  C   UNL A   1     -16.409  10.051  48.806  0.00  0.00    +0.001 A 
ENDROOT
BRANCH   4  11
ATOM     10  F   UNL A   1     -16.312   3.043  44.762  0.00  0.00    -0.205 F 
ATOM     11  C   UNL A   1     -14.998   6.828  45.742  0.00  0.00    -0.015 A 
ATOM     12  C   UNL A   1     -14.355   5.698  46.269  0.00  0.00    +0.011 A 
ATOM     13  C   UNL A   1     -16.091   6.662  44.878  0.00  0.00    +0.011 A 
ATOM     14  C   UNL A   1     -14.800   4.418  45.935  0.00  0.00    +0.039 A 
ATOM     15  C   UNL A   1     -16.535   5.381  44.547  0.00  0.00    +0.039 A 
ATOM     16  C   UNL A   1     -15.887   4.272  45.080  0.00  0.00    +0.123 A 
ENDBRANCH   4  11
BRANCH   1  17
ATOM     17  C   UNL A   1     -12.258  11.027  45.712  0.00  0.00    +0.082 C 
ATOM     18  C   UNL A   1     -12.853  12.347  45.214  0.00  0.00    +0.030 C 
ATOM     19  C   UNL A   1     -11.241  11.231  46.840  0.00  0.00    +0.030 C 
ENDBRANCH   1  17
BRANCH   2  20
ATOM     20  C   UNL A   1     -12.554   8.339  44.449  0.00  0.00    +0.025 C 
ATOM     21  C   UNL A   1     -13.029   8.001  43.239  0.00  0.00    +0.006 C 
BRANCH  21  22
ATOM     22  C   UNL A   1     -12.198   7.632  42.039  0.00  0.00    +0.140 C 
BRANCH  22  23
ATOM     23  O   UNL A   1     -11.822   6.266  42.143  0.00  0.00    -0.388 OA
ATOM     24  H   UNL A   1     -12.633   5.735  42.128  0.00  0.00    +0.210 HD
ENDBRANCH  22  23
BRANCH  22  25
ATOM     25  C   UNL A   1     -12.953   7.918  40.726  0.00  0.00    +0.067 C 
BRANCH  25  26
ATOM     26  C   UNL A   1     -12.433   9.171  39.997  0.00  0.00    +0.128 C 
BRANCH  26  27
ATOM     27  O   UNL A   1     -12.678   9.044  38.597  0.00  0.00    -0.391 OA
ATOM     28  H   UNL A   1     -12.024   9.565  38.106  0.00  0.00    +0.210 HD
ENDBRANCH  26  27
BRANCH  26  29
ATOM     29  C   UNL A   1     -13.128  10.436  40.500  0.00  0.00    +0.151 C 
BRANCH  29  31
ATOM     30  O   UNL A   1     -13.039  12.121  38.715  0.00  0.00    -0.251 OA
ATOM     31  C   UNL A   1     -13.635  11.275  39.354  0.00  0.00    +0.307 C 
BRANCH  31  32
ATOM     32  O   UNL A   1     -14.930  11.014  39.082  0.00  0.00    -0.481 OA
ATOM     33  H   UNL A   1     -14.878  10.194  38.544  0.00  0.00    +0.295 HD
ENDBRANCH  31  32
ENDBRANCH  29  31
ENDBRANCH  26  29
ENDBRANCH  25  26
ENDBRANCH  22  25
ENDBRANCH  21  22
ENDBRANCH   2  20
TORSDOF 11
ENDMDL
MODEL 5
REMARK VINA RESULT:      -7.5     22.942     24.536
REMARK  Name = D08GHB
REMARK  13 active torsions:
REMARK  status: ('A' for Active; 'I' for Inactive)
REMARK    1  A    between atoms: O_2  and  C_18
REMARK    2  A    between atoms: O_3  and  C_21
REMARK    3  A    between atoms: O_4  and  C_30
REMARK    4  A    between atoms: N_6  and  C_7
REMARK    5  A    between atoms: C_7  and  C_13
REMARK    6  A    between atoms: C_7  and  C_14
REMARK    7  A    between atoms: C_8  and  C_12
REMARK    8  A    between atoms: C_10  and  C_15
REMARK    9  A    between atoms: C_18  and  C_19
REMARK   10  A    between atoms: C_18  and  C_20
REMARK   11  A    between atoms: C_19  and  C_21
REMARK   12  A    between atoms: C_21  and  C_26
REMARK   13  A    between atoms: C_26  and  C_30
REMARK                            x       y       z     vdW  Elec       q    Type
REMARK                         _______ _______ _______ _____ _____    ______ ____
ROOT
ATOM      1  N   UNL A   1       5.662  21.068  36.493  0.00  0.00    -0.337 N 
ATOM      2  C   UNL A   1       4.506  21.277  35.748  0.00  0.00    +0.051 A 
ATOM      3  C   UNL A   1       5.847  22.137  37.368  0.00  0.00    +0.050 A 
ATOM      4  C   UNL A   1       3.966  22.495  36.141  0.00  0.00    +0.015 A 
ATOM      5  C   UNL A   1       4.800  23.034  37.162  0.00  0.00    +0.008 A 
ATOM      6  C   UNL A   1       6.848  22.402  38.327  0.00  0.00    +0.026 A 
ATOM      7  C   UNL A   1       4.756  24.227  37.916  0.00  0.00    +0.010 A 
ATOM      8  C   UNL A   1       6.778  23.583  39.067  0.00  0.00    +0.002 A 
ATOM      9  C   UNL A   1       5.746  24.489  38.865  0.00  0.00    +0.001 A 
ENDROOT
BRANCH   4  11
ATOM     10  F   UNL A   1      -0.624  24.760  33.917  0.00  0.00    -0.205 F 
ATOM     11  C   UNL A   1       2.761  23.077  35.568  0.00  0.00    -0.015 A 
ATOM     12  C   UNL A   1       2.765  23.506  34.232  0.00  0.00    +0.011 A 
ATOM     13  C   UNL A   1       1.598  23.224  36.339  0.00  0.00    +0.011 A 
ATOM     14  C   UNL A   1       1.619  24.077  33.676  0.00  0.00    +0.039 A 
ATOM     15  C   UNL A   1       0.454  23.794  35.779  0.00  0.00    +0.039 A 
ATOM     16  C   UNL A   1       0.474  24.213  34.454  0.00  0.00    +0.123 A 
ENDBRANCH   4  11
BRANCH   1  17
ATOM     17  C   UNL A   1       6.547  19.897  36.407  0.00  0.00    +0.082 C 
ATOM     18  C   UNL A   1       7.929  20.245  35.849  0.00  0.00    +0.030 C 
ATOM     19  C   UNL A   1       6.625  19.118  37.724  0.00  0.00    +0.030 C 
ENDBRANCH   1  17
BRANCH   2  20
ATOM     20  C   UNL A   1       4.091  20.334  34.769  0.00  0.00    +0.025 C 
ATOM     21  C   UNL A   1       4.531  20.415  33.503  0.00  0.00    +0.006 C 
BRANCH  21  22
ATOM     22  C   UNL A   1       4.251  19.420  32.408  0.00  0.00    +0.140 C 
BRANCH  22  23
ATOM     23  O   UNL A   1       3.635  20.095  31.320  0.00  0.00    -0.388 OA
ATOM     24  H   UNL A   1       4.223  20.818  31.052  0.00  0.00    +0.210 HD
ENDBRANCH  22  23
BRANCH  22  25
ATOM     25  C   UNL A   1       5.536  18.689  31.973  0.00  0.00    +0.067 C 
BRANCH  25  26
ATOM     26  C   UNL A   1       5.253  17.393  31.191  0.00  0.00    +0.128 C 
BRANCH  26  27
ATOM     27  O   UNL A   1       3.860  17.089  31.260  0.00  0.00    -0.391 OA
ATOM     28  H   UNL A   1       3.743  16.133  31.368  0.00  0.00    +0.210 HD
ENDBRANCH  26  27
BRANCH  26  29
ATOM     29  C   UNL A   1       5.649  17.533  29.721  0.00  0.00    +0.151 C 
BRANCH  29  31
ATOM     30  O   UNL A   1       3.869  16.755  28.218  0.00  0.00    -0.251 OA
ATOM     31  C   UNL A   1       4.434  17.638  28.834  0.00  0.00    +0.307 C 
BRANCH  31  32
ATOM     32  O   UNL A   1       3.995  18.909  28.742  0.00  0.00    -0.481 OA
ATOM     33  H   UNL A   1       3.071  18.799  28.427  0.00  0.00    +0.295 HD
ENDBRANCH  31  32
ENDBRANCH  29  31
ENDBRANCH  26  29
ENDBRANCH  25  26
ENDBRANCH  22  25
ENDBRANCH  21  22
ENDBRANCH   2  20
TORSDOF 11
ENDMDL
MODEL 6
REMARK VINA RESULT:      -7.4      3.939      6.284
REMARK  Name = D08GHB
REMARK  13 active torsions:
REMARK  status: ('A' for Active; 'I' for Inactive)
REMARK    1  A    between atoms: O_2  and  C_18
REMARK    2  A    between atoms: O_3  and  C_21
REMARK    3  A    between atoms: O_4  and  C_30
REMARK    4  A    between atoms: N_6  and  C_7
REMARK    5  A    between atoms: C_7  and  C_13
REMARK    6  A    between atoms: C_7  and  C_14
REMARK    7  A    between atoms: C_8  and  C_12
REMARK    8  A    between atoms: C_10  and  C_15
REMARK    9  A    between atoms: C_18  and  C_19
REMARK   10  A    between atoms: C_18  and  C_20
REMARK   11  A    between atoms: C_19  and  C_21
REMARK   12  A    between atoms: C_21  and  C_26
REMARK   13  A    between atoms: C_26  and  C_30
REMARK                            x       y       z     vdW  Elec       q    Type
REMARK                         _______ _______ _______ _____ _____    ______ ____
ROOT
ATOM      1  N   UNL A   1     -12.770   7.773  45.809  0.00  0.00    -0.337 N 
ATOM      2  C   UNL A   1     -12.628   8.818  44.901  0.00  0.00    +0.051 A 
ATOM      3  C   UNL A   1     -13.519   6.753  45.226  0.00  0.00    +0.050 A 
ATOM      4  C   UNL A   1     -13.307   8.463  43.742  0.00  0.00    +0.015 A 
ATOM      5  C   UNL A   1     -13.861   7.166  43.939  0.00  0.00    +0.008 A 
ATOM      6  C   UNL A   1     -13.933   5.495  45.716  0.00  0.00    +0.026 A 
ATOM      7  C   UNL A   1     -14.644   6.315  43.128  0.00  0.00    +0.010 A 
ATOM      8  C   UNL A   1     -14.698   4.669  44.891  0.00  0.00    +0.002 A 
ATOM      9  C   UNL A   1     -15.054   5.072  43.612  0.00  0.00    +0.001 A 
ENDROOT
BRANCH   4  11
ATOM     10  F   UNL A   1     -13.756  11.734  39.243  0.00  0.00    -0.205 F 
ATOM     11  C   UNL A   1     -13.411   9.312  42.564  0.00  0.00    -0.015 A 
ATOM     12  C   UNL A   1     -14.076  10.545  42.654  0.00  0.00    +0.011 A 
ATOM     13  C   UNL A   1     -12.864   8.909  41.338  0.00  0.00    +0.011 A 
ATOM     14  C   UNL A   1     -14.193  11.362  41.529  0.00  0.00    +0.039 A 
ATOM     15  C   UNL A   1     -12.981   9.729  40.214  0.00  0.00    +0.039 A 
ATOM     16  C   UNL A   1     -13.643  10.947  40.321  0.00  0.00    +0.123 A 
ENDBRANCH   4  11
BRANCH   1  17
ATOM     17  C   UNL A   1     -12.203   7.722  47.164  0.00  0.00    +0.082 C 
ATOM     18  C   UNL A   1     -13.280   7.655  48.250  0.00  0.00    +0.030 C 
ATOM     19  C   UNL A   1     -11.145   6.626  47.321  0.00  0.00    +0.030 C 
ENDBRANCH   1  17
BRANCH   2  20
ATOM     20  C   UNL A   1     -11.910   9.993  45.250  0.00  0.00    +0.025 C 
ATOM     21  C   UNL A   1     -12.475  10.945  46.012  0.00  0.00    +0.006 C 
BRANCH  21  22
ATOM     22  C   UNL A   1     -11.786  12.177  46.536  0.00  0.00    +0.140 C 
BRANCH  22  23
ATOM     23  O   UNL A   1     -11.690  13.131  45.488  0.00  0.00    -0.388 OA
ATOM     24  H   UNL A   1     -12.055  13.967  45.818  0.00  0.00    +0.210 HD
ENDBRANCH  22  23
BRANCH  22  25
ATOM     25  C   UNL A   1     -12.519  12.749  47.765  0.00  0.00    +0.067 C 
BRANCH  25  26
ATOM     26  C   UNL A   1     -13.977  12.267  47.870  0.00  0.00    +0.128 C 
BRANCH  26  27
ATOM     27  O   UNL A   1     -14.113  11.397  48.993  0.00  0.00    -0.391 OA
ATOM     28  H   UNL A   1     -13.601  11.749  49.738  0.00  0.00    +0.210 HD
ENDBRANCH  26  27
BRANCH  26  29
ATOM     29  C   UNL A   1     -14.940  13.442  48.047  0.00  0.00    +0.151 C 
BRANCH  29  31
ATOM     30  O   UNL A   1     -16.833  11.893  47.832  0.00  0.00    -0.251 OA
ATOM     31  C   UNL A   1     -16.370  13.017  47.828  0.00  0.00    +0.307 C 
BRANCH  31  32
ATOM     32  O   UNL A   1     -17.169  14.073  47.576  0.00  0.00    -0.481 OA
ATOM     33  H   UNL A   1     -17.009  14.658  48.349  0.00  0.00    +0.295 HD
ENDBRANCH  31  32
ENDBRANCH  29  31
ENDBRANCH  26  29
ENDBRANCH  25  26
ENDBRANCH  22  25
ENDBRANCH  21  22
ENDBRANCH   2  20
TORSDOF 11
ENDMDL
MODEL 7
REMARK VINA RESULT:      -7.4      4.171      6.875
REMARK  Name = D08GHB
REMARK  13 active torsions:
REMARK  status: ('A' for Active; 'I' for Inactive)
REMARK    1  A    between atoms: O_2  and  C_18
REMARK    2  A    between atoms: O_3  and  C_21
REMARK    3  A    between atoms: O_4  and  C_30
REMARK    4  A    between atoms: N_6  and  C_7
REMARK    5  A    between atoms: C_7  and  C_13
REMARK    6  A    between atoms: C_7  and  C_14
REMARK    7  A    between atoms: C_8  and  C_12
REMARK    8  A    between atoms: C_10  and  C_15
REMARK    9  A    between atoms: C_18  and  C_19
REMARK   10  A    between atoms: C_18  and  C_20
REMARK   11  A    between atoms: C_19  and  C_21
REMARK   12  A    between atoms: C_21  and  C_26
REMARK   13  A    between atoms: C_26  and  C_30
REMARK                            x       y       z     vdW  Elec       q    Type
REMARK                         _______ _______ _______ _____ _____    ______ ____
ROOT
ATOM      1  N   UNL A   1     -12.713   7.671  45.747  0.00  0.00    -0.337 N 
ATOM      2  C   UNL A   1     -12.559   8.701  44.825  0.00  0.00    +0.051 A 
ATOM      3  C   UNL A   1     -13.510   6.670  45.194  0.00  0.00    +0.050 A 
ATOM      4  C   UNL A   1     -13.278   8.359  43.687  0.00  0.00    +0.015 A 
ATOM      5  C   UNL A   1     -13.870   7.083  43.911  0.00  0.00    +0.008 A 
ATOM      6  C   UNL A   1     -13.954   5.433  45.707  0.00  0.00    +0.026 A 
ATOM      7  C   UNL A   1     -14.701   6.252  43.129  0.00  0.00    +0.010 A 
ATOM      8  C   UNL A   1     -14.767   4.625  44.910  0.00  0.00    +0.002 A 
ATOM      9  C   UNL A   1     -15.140   5.028  43.636  0.00  0.00    +0.001 A 
ENDROOT
BRANCH   4  11
ATOM     10  F   UNL A   1     -13.729  11.599  39.167  0.00  0.00    -0.205 F 
ATOM     11  C   UNL A   1     -13.382   9.200  42.504  0.00  0.00    -0.015 A 
ATOM     12  C   UNL A   1     -14.026  10.443  42.592  0.00  0.00    +0.011 A 
ATOM     13  C   UNL A   1     -12.858   8.777  41.274  0.00  0.00    +0.011 A 
ATOM     14  C   UNL A   1     -14.144  11.253  41.461  0.00  0.00    +0.039 A 
ATOM     15  C   UNL A   1     -12.975   9.589  40.145  0.00  0.00    +0.039 A 
ATOM     16  C   UNL A   1     -13.615  10.820  40.250  0.00  0.00    +0.123 A 
ENDBRANCH   4  11
BRANCH   1  17
ATOM     17  C   UNL A   1     -12.114   7.613  47.089  0.00  0.00    +0.082 C 
ATOM     18  C   UNL A   1     -13.152   7.773  48.203  0.00  0.00    +0.030 C 
ATOM     19  C   UNL A   1     -11.226   6.381  47.287  0.00  0.00    +0.030 C 
ENDBRANCH   1  17
BRANCH   2  20
ATOM     20  C   UNL A   1     -11.793   9.855  45.145  0.00  0.00    +0.025 C 
ATOM     21  C   UNL A   1     -12.334  10.872  45.835  0.00  0.00    +0.006 C 
BRANCH  21  22
ATOM     22  C   UNL A   1     -11.601  12.092  46.324  0.00  0.00    +0.140 C 
BRANCH  22  23
ATOM     23  O   UNL A   1     -11.976  13.206  45.525  0.00  0.00    -0.388 OA
ATOM     24  H   UNL A   1     -11.321  13.291  44.815  0.00  0.00    +0.210 HD
ENDBRANCH  22  23
BRANCH  22  25
ATOM     25  C   UNL A   1     -11.871  12.346  47.820  0.00  0.00    +0.067 C 
BRANCH  25  26
ATOM     26  C   UNL A   1     -11.091  11.389  48.740  0.00  0.00    +0.128 C 
BRANCH  26  27
ATOM     27  O   UNL A   1      -9.763  11.226  48.243  0.00  0.00    -0.391 OA
ATOM     28  H   UNL A   1      -9.356  10.450  48.659  0.00  0.00    +0.210 HD
ENDBRANCH  26  27
BRANCH  26  29
ATOM     29  C   UNL A   1     -11.013  11.931  50.168  0.00  0.00    +0.151 C 
BRANCH  29  31
ATOM     30  O   UNL A   1      -9.043  10.864  51.175  0.00  0.00    -0.251 OA
ATOM     31  C   UNL A   1      -9.611  11.835  50.714  0.00  0.00    +0.307 C 
BRANCH  31  32
ATOM     32  O   UNL A   1      -8.981  13.027  50.677  0.00  0.00    -0.481 OA
ATOM     33  H   UNL A   1      -8.879  13.190  49.713  0.00  0.00    +0.295 HD
ENDBRANCH  31  32
ENDBRANCH  29  31
ENDBRANCH  26  29
ENDBRANCH  25  26
ENDBRANCH  22  25
ENDBRANCH  21  22
ENDBRANCH   2  20
TORSDOF 11
ENDMDL
MODEL 8
REMARK VINA RESULT:      -7.3      2.826      4.977
REMARK  Name = D08GHB
REMARK  13 active torsions:
REMARK  status: ('A' for Active; 'I' for Inactive)
REMARK    1  A    between atoms: O_2  and  C_18
REMARK    2  A    between atoms: O_3  and  C_21
REMARK    3  A    between atoms: O_4  and  C_30
REMARK    4  A    between atoms: N_6  and  C_7
REMARK    5  A    between atoms: C_7  and  C_13
REMARK    6  A    between atoms: C_7  and  C_14
REMARK    7  A    between atoms: C_8  and  C_12
REMARK    8  A    between atoms: C_10  and  C_15
REMARK    9  A    between atoms: C_18  and  C_19
REMARK   10  A    between atoms: C_18  and  C_20
REMARK   11  A    between atoms: C_19  and  C_21
REMARK   12  A    between atoms: C_21  and  C_26
REMARK   13  A    between atoms: C_26  and  C_30
REMARK                            x       y       z     vdW  Elec       q    Type
REMARK                         _______ _______ _______ _____ _____    ______ ____
ROOT
ATOM      1  N   UNL A   1     -15.663  10.464  47.572  0.00  0.00    -0.337 N 
ATOM      2  C   UNL A   1     -15.174   9.477  46.722  0.00  0.00    +0.051 A 
ATOM      3  C   UNL A   1     -16.332   9.865  48.638  0.00  0.00    +0.050 A 
ATOM      4  C   UNL A   1     -15.552   8.246  47.243  0.00  0.00    +0.015 A 
ATOM      5  C   UNL A   1     -16.272   8.484  48.448  0.00  0.00    +0.008 A 
ATOM      6  C   UNL A   1     -16.992  10.412  49.759  0.00  0.00    +0.026 A 
ATOM      7  C   UNL A   1     -16.894   7.633  49.387  0.00  0.00    +0.010 A 
ATOM      8  C   UNL A   1     -17.592   9.549  50.677  0.00  0.00    +0.002 A 
ATOM      9  C   UNL A   1     -17.548   8.174  50.495  0.00  0.00    +0.001 A 
ENDROOT
BRANCH   4  11
ATOM     10  F   UNL A   1     -14.332   3.359  44.842  0.00  0.00    -0.205 F 
ATOM     11  C   UNL A   1     -15.247   6.967  46.619  0.00  0.00    -0.015 A 
ATOM     12  C   UNL A   1     -13.990   6.378  46.823  0.00  0.00    +0.011 A 
ATOM     13  C   UNL A   1     -16.190   6.322  45.806  0.00  0.00    +0.011 A 
ATOM     14  C   UNL A   1     -13.682   5.158  46.219  0.00  0.00    +0.039 A 
ATOM     15  C   UNL A   1     -15.880   5.101  45.205  0.00  0.00    +0.039 A 
ATOM     16  C   UNL A   1     -14.630   4.530  45.419  0.00  0.00    +0.123 A 
ENDBRANCH   4  11
BRANCH   1  17
ATOM     17  C   UNL A   1     -15.487  11.914  47.407  0.00  0.00    +0.082 C 
ATOM     18  C   UNL A   1     -16.799  12.687  47.569  0.00  0.00    +0.030 C 
ATOM     19  C   UNL A   1     -14.364  12.477  48.283  0.00  0.00    +0.030 C 
ENDBRANCH   1  17
BRANCH   2  20
ATOM     20  C   UNL A   1     -14.456   9.823  45.545  0.00  0.00    +0.025 C 
ATOM     21  C   UNL A   1     -13.133   9.607  45.456  0.00  0.00    +0.006 C 
BRANCH  21  22
ATOM     22  C   UNL A   1     -12.286   9.829  44.232  0.00  0.00    +0.140 C 
BRANCH  22  23
ATOM     23  O   UNL A   1     -11.246   8.861  44.210  0.00  0.00    -0.388 OA
ATOM     24  H   UNL A   1     -11.636   8.006  44.449  0.00  0.00    +0.210 HD
ENDBRANCH  22  23
BRANCH  22  25
ATOM     25  C   UNL A   1     -13.135   9.783  42.946  0.00  0.00    +0.067 C 
BRANCH  25  26
ATOM     26  C   UNL A   1     -12.923  11.012  42.044  0.00  0.00    +0.128 C 
BRANCH  26  27
ATOM     27  O   UNL A   1     -11.812  10.783  41.178  0.00  0.00    -0.391 OA
ATOM     28  H   UNL A   1     -11.543   9.853  41.238  0.00  0.00    +0.210 HD
ENDBRANCH  26  27
BRANCH  26  29
ATOM     29  C   UNL A   1     -14.158  11.293  41.187  0.00  0.00    +0.151 C 
BRANCH  29  31
ATOM     30  O   UNL A   1     -13.635  11.827  38.848  0.00  0.00    -0.251 OA
ATOM     31  C   UNL A   1     -13.884  11.027  39.728  0.00  0.00    +0.307 C 
BRANCH  31  32
ATOM     32  O   UNL A   1     -13.972   9.713  39.438  0.00  0.00    -0.481 OA
ATOM     33  H   UNL A   1     -14.921   9.603  39.210  0.00  0.00    +0.295 HD
ENDBRANCH  31  32
ENDBRANCH  29  31
ENDBRANCH  26  29
ENDBRANCH  25  26
ENDBRANCH  22  25
ENDBRANCH  21  22
ENDBRANCH   2  20
TORSDOF 11
ENDMDL
MODEL 9
REMARK VINA RESULT:      -7.2      4.298      7.328
REMARK  Name = D08GHB
REMARK  13 active torsions:
REMARK  status: ('A' for Active; 'I' for Inactive)
REMARK    1  A    between atoms: O_2  and  C_18
REMARK    2  A    between atoms: O_3  and  C_21
REMARK    3  A    between atoms: O_4  and  C_30
REMARK    4  A    between atoms: N_6  and  C_7
REMARK    5  A    between atoms: C_7  and  C_13
REMARK    6  A    between atoms: C_7  and  C_14
REMARK    7  A    between atoms: C_8  and  C_12
REMARK    8  A    between atoms: C_10  and  C_15
REMARK    9  A    between atoms: C_18  and  C_19
REMARK   10  A    between atoms: C_18  and  C_20
REMARK   11  A    between atoms: C_19  and  C_21
REMARK   12  A    between atoms: C_21  and  C_26
REMARK   13  A    between atoms: C_26  and  C_30
REMARK                            x       y       z     vdW  Elec       q    Type
REMARK                         _______ _______ _______ _____ _____    ______ ____
ROOT
ATOM      1  N   UNL A   1     -14.515   6.963  44.612  0.00  0.00    -0.337 N 
ATOM      2  C   UNL A   1     -14.441   7.852  45.680  0.00  0.00    +0.051 A 
ATOM      3  C   UNL A   1     -13.903   7.531  43.496  0.00  0.00    +0.050 A 
ATOM      4  C   UNL A   1     -13.795   8.997  45.232  0.00  0.00    +0.015 A 
ATOM      5  C   UNL A   1     -13.450   8.797  43.864  0.00  0.00    +0.008 A 
ATOM      6  C   UNL A   1     -13.708   7.047  42.184  0.00  0.00    +0.026 A 
ATOM      7  C   UNL A   1     -12.801   9.603  42.904  0.00  0.00    +0.010 A 
ATOM      8  C   UNL A   1     -13.055   7.859  41.256  0.00  0.00    +0.002 A 
ATOM      9  C   UNL A   1     -12.608   9.125  41.607  0.00  0.00    +0.001 A 
ENDROOT
BRANCH   4  11
ATOM     10  F   UNL A   1     -12.879  13.530  48.355  0.00  0.00    -0.205 F 
ATOM     11  C   UNL A   1     -13.550  10.171  46.056  0.00  0.00    -0.015 A 
ATOM     12  C   UNL A   1     -14.524  11.177  46.138  0.00  0.00    +0.011 A 
ATOM     13  C   UNL A   1     -12.346  10.314  46.762  0.00  0.00    +0.011 A 
ATOM     14  C   UNL A   1     -14.294  12.314  46.915  0.00  0.00    +0.039 A 
ATOM     15  C   UNL A   1     -12.120  11.451  47.539  0.00  0.00    +0.039 A 
ATOM     16  C   UNL A   1     -13.096  12.438  47.610  0.00  0.00    +0.123 A 
ENDBRANCH   4  11
BRANCH   1  17
ATOM     17  C   UNL A   1     -15.112   5.621  44.642  0.00  0.00    +0.082 C 
ATOM     18  C   UNL A   1     -16.510   5.585  44.018  0.00  0.00    +0.030 C 
ATOM     19  C   UNL A   1     -14.185   4.547  44.065  0.00  0.00    +0.030 C 
ENDBRANCH   1  17
BRANCH   2  20
ATOM     20  C   UNL A   1     -15.001   7.518  46.943  0.00  0.00    +0.025 C 
ATOM     21  C   UNL A   1     -16.301   7.738  47.201  0.00  0.00    +0.006 C 
BRANCH  21  22
ATOM     22  C   UNL A   1     -17.031   7.332  48.453  0.00  0.00    +0.140 C 
BRANCH  22  23
ATOM     23  O   UNL A   1     -17.515   8.499  49.102  0.00  0.00    -0.388 OA
ATOM     24  H   UNL A   1     -16.771   9.113  49.197  0.00  0.00    +0.210 HD
ENDBRANCH  22  23
BRANCH  22  25
ATOM     25  C   UNL A   1     -18.167   6.338  48.142  0.00  0.00    +0.067 C 
BRANCH  25  26
ATOM     26  C   UNL A   1     -19.567   6.962  48.291  0.00  0.00    +0.128 C 
BRANCH  26  27
ATOM     27  O   UNL A   1     -20.315   6.746  47.094  0.00  0.00    -0.391 OA
ATOM     28  H   UNL A   1     -21.016   7.413  47.028  0.00  0.00    +0.210 HD
ENDBRANCH  26  27
BRANCH  26  29
ATOM     29  C   UNL A   1     -20.330   6.343  49.461  0.00  0.00    +0.151 C 
BRANCH  29  31
ATOM     30  O   UNL A   1     -19.993   3.934  49.800  0.00  0.00    -0.251 OA
ATOM     31  C   UNL A   1     -20.550   4.866  49.252  0.00  0.00    +0.307 C 
BRANCH  31  32
ATOM     32  O   UNL A   1     -21.478   4.631  48.303  0.00  0.00    -0.481 OA
ATOM     33  H   UNL A   1     -20.963   4.168  47.605  0.00  0.00    +0.295 HD
ENDBRANCH  31  32
ENDBRANCH  29  31
ENDBRANCH  26  29
ENDBRANCH  25  26
ENDBRANCH  22  25
ENDBRANCH  21  22
ENDBRANCH   2  20
TORSDOF 11
ENDMDL
MODEL 10
REMARK VINA RESULT:      -7.2     17.250     21.151
REMARK  Name = D08GHB
REMARK  13 active torsions:
REMARK  status: ('A' for Active; 'I' for Inactive)
REMARK    1  A    between atoms: O_2  and  C_18
REMARK    2  A    between atoms: O_3  and  C_21
REMARK    3  A    between atoms: O_4  and  C_30
REMARK    4  A    between atoms: N_6  and  C_7
REMARK    5  A    between atoms: C_7  and  C_13
REMARK    6  A    between atoms: C_7  and  C_14
REMARK    7  A    between atoms: C_8  and  C_12
REMARK    8  A    between atoms: C_10  and  C_15
REMARK    9  A    between atoms: C_18  and  C_19
REMARK   10  A    between atoms: C_18  and  C_20
REMARK   11  A    between atoms: C_19  and  C_21
REMARK   12  A    between atoms: C_21  and  C_26
REMARK   13  A    between atoms: C_26  and  C_30
REMARK                            x       y       z     vdW  Elec       q    Type
REMARK                         _______ _______ _______ _____ _____    ______ ____
ROOT
ATOM      1  N   UNL A   1     -24.433  -3.734  51.670  0.00  0.00    -0.337 N 
ATOM      2  C   UNL A   1     -25.218  -4.880  51.580  0.00  0.00    +0.051 A 
ATOM      3  C   UNL A   1     -25.221  -2.667  52.096  0.00  0.00    +0.050 A 
ATOM      4  C   UNL A   1     -26.515  -4.530  51.933  0.00  0.00    +0.015 A 
ATOM      5  C   UNL A   1     -26.520  -3.145  52.264  0.00  0.00    +0.008 A 
ATOM      6  C   UNL A   1     -24.910  -1.313  52.349  0.00  0.00    +0.026 A 
ATOM      7  C   UNL A   1     -27.534  -2.254  52.679  0.00  0.00    +0.010 A 
ATOM      8  C   UNL A   1     -25.928  -0.454  52.766  0.00  0.00    +0.002 A 
ATOM      9  C   UNL A   1     -27.227  -0.915  52.928  0.00  0.00    +0.001 A 
ENDROOT
BRANCH   4  11
ATOM     10  F   UNL A   1     -30.850  -8.045  51.916  0.00  0.00    -0.205 F 
ATOM     11  C   UNL A   1     -27.638  -5.456  51.936  0.00  0.00    -0.015 A 
ATOM     12  C   UNL A   1     -28.464  -5.548  50.805  0.00  0.00    +0.011 A 
ATOM     13  C   UNL A   1     -27.911  -6.250  53.059  0.00  0.00    +0.011 A 
ATOM     14  C   UNL A   1     -29.552  -6.423  50.802  0.00  0.00    +0.039 A 
ATOM     15  C   UNL A   1     -28.998  -7.125  53.052  0.00  0.00    +0.039 A 
ATOM     16  C   UNL A   1     -29.806  -7.205  51.923  0.00  0.00    +0.123 A 
ENDBRANCH   4  11
BRANCH   1  17
ATOM     17  C   UNL A   1     -22.992  -3.649  51.394  0.00  0.00    +0.082 C 
ATOM     18  C   UNL A   1     -22.649  -2.537  50.399  0.00  0.00    +0.030 C 
ATOM     19  C   UNL A   1     -22.148  -3.574  52.670  0.00  0.00    +0.030 C 
ENDBRANCH   1  17
BRANCH   2  20
ATOM     20  C   UNL A   1     -24.657  -6.115  51.156  0.00  0.00    +0.025 C 
ATOM     21  C   UNL A   1     -24.995  -6.657  49.974  0.00  0.00    +0.006 C 
BRANCH  21  22
ATOM     22  C   UNL A   1     -24.392  -7.897  49.370  0.00  0.00    +0.140 C 
BRANCH  22  23
ATOM     23  O   UNL A   1     -23.369  -7.516  48.462  0.00  0.00    -0.388 OA
ATOM     24  H   UNL A   1     -23.107  -8.307  47.965  0.00  0.00    +0.210 HD
ENDBRANCH  22  23
BRANCH  22  25
ATOM     25  C   UNL A   1     -23.863  -8.850  50.460  0.00  0.00    +0.067 C 
BRANCH  25  26
ATOM     26  C   UNL A   1     -24.424 -10.278  50.330  0.00  0.00    +0.128 C 
BRANCH  26  27
ATOM     27  O   UNL A   1     -25.807 -10.218  49.981  0.00  0.00    -0.391 OA
ATOM     28  H   UNL A   1     -25.940 -10.637  49.116  0.00  0.00    +0.210 HD
ENDBRANCH  26  27
BRANCH  26  29
ATOM     29  C   UNL A   1     -23.684 -11.070  49.251  0.00  0.00    +0.151 C 
BRANCH  29  31
ATOM     30  O   UNL A   1     -25.280 -12.598  48.180  0.00  0.00    -0.251 OA
ATOM     31  C   UNL A   1     -24.632 -11.569  48.191  0.00  0.00    +0.307 C 
BRANCH  31  32
ATOM     32  O   UNL A   1     -24.694 -10.724  47.142  0.00  0.00    -0.481 OA
ATOM     33  H   UNL A   1     -23.751 -10.493  46.993  0.00  0.00    +0.295 HD
ENDBRANCH  31  32
ENDBRANCH  29  31
ENDBRANCH  26  29
ENDBRANCH  25  26
ENDBRANCH  22  25
ENDBRANCH  21  22
ENDBRANCH   2  20
TORSDOF 11
ENDMDL
