REMARK VINA RESULT:      -7.4      4.171      6.875
REMARK  Name = D08GHB
REMARK  13 active torsions:
REMARK  status: ('A' for Active; 'I' for Inactive)
REMARK    1  A    between atoms: O_2  and  C_18
REMARK    2  A    between atoms: O_3  and  C_21
REMARK    3  A    between atoms: O_4  and  C_30
REMARK    4  A    between atoms: N_6  and  C_7
REMARK    5  A    between atoms: C_7  and  C_13
REMARK    6  A    between atoms: C_7  and  C_14
REMARK    7  A    between atoms: C_8  and  C_12
REMARK    8  A    between atoms: C_10  and  C_15
REMARK    9  A    between atoms: C_18  and  C_19
REMARK   10  A    between atoms: C_18  and  C_20
REMARK   11  A    between atoms: C_19  and  C_21
REMARK   12  A    between atoms: C_21  and  C_26
REMARK   13  A    between atoms: C_26  and  C_30
REMARK                            x       y       z     vdW  Elec       q    Type
REMARK                         _______ _______ _______ _____ _____    ______ ____
ROOT
ATOM      1  N   UNL A   1     -12.713   7.671  45.747  0.00  0.00    -0.337 N 
ATOM      2  C   UNL A   1     -12.559   8.701  44.825  0.00  0.00    +0.051 A 
ATOM      3  C   UNL A   1     -13.510   6.670  45.194  0.00  0.00    +0.050 A 
ATOM      4  C   UNL A   1     -13.278   8.359  43.687  0.00  0.00    +0.015 A 
ATOM      5  C   UNL A   1     -13.870   7.083  43.911  0.00  0.00    +0.008 A 
ATOM      6  C   UNL A   1     -13.954   5.433  45.707  0.00  0.00    +0.026 A 
ATOM      7  C   UNL A   1     -14.701   6.252  43.129  0.00  0.00    +0.010 A 
ATOM      8  C   UNL A   1     -14.767   4.625  44.910  0.00  0.00    +0.002 A 
ATOM      9  C   UNL A   1     -15.140   5.028  43.636  0.00  0.00    +0.001 A 
ENDROOT
BRANCH   4  11
ATOM     10  F   UNL A   1     -13.729  11.599  39.167  0.00  0.00    -0.205 F 
ATOM     11  C   UNL A   1     -13.382   9.200  42.504  0.00  0.00    -0.015 A 
ATOM     12  C   UNL A   1     -14.026  10.443  42.592  0.00  0.00    +0.011 A 
ATOM     13  C   UNL A   1     -12.858   8.777  41.274  0.00  0.00    +0.011 A 
ATOM     14  C   UNL A   1     -14.144  11.253  41.461  0.00  0.00    +0.039 A 
ATOM     15  C   UNL A   1     -12.975   9.589  40.145  0.00  0.00    +0.039 A 
ATOM     16  C   UNL A   1     -13.615  10.820  40.250  0.00  0.00    +0.123 A 
ENDBRANCH   4  11
BRANCH   1  17
ATOM     17  C   UNL A   1     -12.114   7.613  47.089  0.00  0.00    +0.082 C 
ATOM     18  C   UNL A   1     -13.152   7.773  48.203  0.00  0.00    +0.030 C 
ATOM     19  C   UNL A   1     -11.226   6.381  47.287  0.00  0.00    +0.030 C 
ENDBRANCH   1  17
BRANCH   2  20
ATOM     20  C   UNL A   1     -11.793   9.855  45.145  0.00  0.00    +0.025 C 
ATOM     21  C   UNL A   1     -12.334  10.872  45.835  0.00  0.00    +0.006 C 
BRANCH  21  22
ATOM     22  C   UNL A   1     -11.601  12.092  46.324  0.00  0.00    +0.140 C 
BRANCH  22  23
ATOM     23  O   UNL A   1     -11.976  13.206  45.525  0.00  0.00    -0.388 OA
ATOM     24  H   UNL A   1     -11.321  13.291  44.815  0.00  0.00    +0.210 HD
ENDBRANCH  22  23
BRANCH  22  25
ATOM     25  C   UNL A   1     -11.871  12.346  47.820  0.00  0.00    +0.067 C 
BRANCH  25  26
ATOM     26  C   UNL A   1     -11.091  11.389  48.740  0.00  0.00    +0.128 C 
BRANCH  26  27
ATOM     27  O   UNL A   1      -9.763  11.226  48.243  0.00  0.00    -0.391 OA
ATOM     28  H   UNL A   1      -9.356  10.450  48.659  0.00  0.00    +0.210 HD
ENDBRANCH  26  27
BRANCH  26  29
ATOM     29  C   UNL A   1     -11.013  11.931  50.168  0.00  0.00    +0.151 C 
BRANCH  29  31
ATOM     30  O   UNL A   1      -9.043  10.864  51.175  0.00  0.00    -0.251 OA
ATOM     31  C   UNL A   1      -9.611  11.835  50.714  0.00  0.00    +0.307 C 
BRANCH  31  32
ATOM     32  O   UNL A   1      -8.981  13.027  50.677  0.00  0.00    -0.481 OA
ATOM     33  H   UNL A   1      -8.879  13.190  49.713  0.00  0.00    +0.295 HD
ENDBRANCH  31  32
ENDBRANCH  29  31
ENDBRANCH  26  29
ENDBRANCH  25  26
ENDBRANCH  22  25
ENDBRANCH  21  22
ENDBRANCH   2  20
TORSDOF 11
