MODEL 1
REMARK VINA RESULT:      -7.5      0.000      0.000
REMARK  Name = D0WL5V
REMARK  7 active torsions:
REMARK  status: ('A' for Active; 'I' for Inactive)
REMARK    1  A    between atoms: S_2  and  C_18
REMARK    2  A    between atoms: S_2  and  C_24
REMARK    3  A    between atoms: O_4  and  C_21
REMARK    4  A    between atoms: N_8  and  C_17
REMARK    5  A    between atoms: C_9  and  C_16
REMARK    6  A    between atoms: C_16  and  C_21
REMARK    7  A    between atoms: C_17  and  C_22
REMARK                            x       y       z     vdW  Elec       q    Type
REMARK                         _______ _______ _______ _____ _____    ______ ____
ROOT
ATOM      1  F   UNL A   1     -17.134   4.388  43.884  0.00  0.00    -0.205 F 
ATOM      2  N   UNL A   1     -13.817   8.240  46.100  0.00  0.00    -0.337 N 
ATOM      3  C   UNL A   1     -11.785   9.180  44.621  0.00  0.00    +0.047 C 
ATOM      4  C   UNL A   1     -12.970   8.351  45.021  0.00  0.00    +0.027 A 
ATOM      5  C   UNL A   1     -13.448   7.598  43.992  0.00  0.00    -0.018 A 
ATOM      6  C   UNL A   1     -11.410   8.503  43.243  0.00  0.00    +0.015 C 
ATOM      7  C   UNL A   1     -12.688   7.778  42.738  0.00  0.00    +0.038 C 
ATOM      8  C   UNL A   1     -14.543   6.864  44.444  0.00  0.00    +0.008 A 
ATOM      9  C   UNL A   1     -14.742   7.198  45.813  0.00  0.00    +0.075 A 
ATOM     10  C   UNL A   1     -15.750   6.484  46.545  0.00  0.00    +0.115 A 
ATOM     11  C   UNL A   1     -15.359   5.922  43.790  0.00  0.00    +0.048 A 
ATOM     12  C   UNL A   1     -16.551   5.553  45.839  0.00  0.00    +0.067 A 
ATOM     13  C   UNL A   1     -16.359   5.293  44.499  0.00  0.00    +0.126 A 
ENDROOT
BRANCH  10  14
ATOM     14  S   UNL A   1     -16.131   6.575  48.294  0.00  0.00    -0.004 S 
ATOM     15  O   UNL A   1     -14.915   6.246  49.008  0.00  0.00    -0.170 OA
ATOM     16  O   UNL A   1     -16.798   7.835  48.555  0.00  0.00    -0.170 OA
ATOM     17  C   UNL A   1     -17.339   5.304  48.568  0.00  0.00    +0.200 C 
ENDBRANCH  10  14
BRANCH   3  18
ATOM     18  C   UNL A   1     -10.600   9.159  45.581  0.00  0.00    +0.130 C 
BRANCH  18  20
ATOM     19  O   UNL A   1     -10.885  11.548  46.021  0.00  0.00    -0.251 OA
ATOM     20  C   UNL A   1     -10.187  10.551  45.972  0.00  0.00    +0.305 C 
BRANCH  20  21
ATOM     21  O   UNL A   1      -8.887  10.604  46.327  0.00  0.00    -0.481 OA
ATOM     22  H   UNL A   1      -8.824  10.019  47.113  0.00  0.00    +0.295 HD
ENDBRANCH  20  21
ENDBRANCH  18  20
ENDBRANCH   3  18
BRANCH   2  23
ATOM     23  C   UNL A   1     -13.677   9.026  47.332  0.00  0.00    +0.157 C 
BRANCH  23  25
ATOM     24 CL   UNL A   1     -16.722  14.258  47.516  0.00  0.00    -0.084 Cl
ATOM     25  C   UNL A   1     -14.418  10.345  47.369  0.00  0.00    -0.028 A 
ATOM     26  C   UNL A   1     -15.710  10.453  46.829  0.00  0.00    +0.007 A 
ATOM     27  C   UNL A   1     -13.894  11.479  48.008  0.00  0.00    +0.007 A 
ATOM     28  C   UNL A   1     -16.427  11.652  46.883  0.00  0.00    +0.020 A 
ATOM     29  C   UNL A   1     -14.591  12.690  48.037  0.00  0.00    +0.020 A 
ATOM     30  C   UNL A   1     -15.853  12.772  47.470  0.00  0.00    +0.041 A 
ENDBRANCH  23  25
ENDBRANCH   2  23
TORSDOF 6
ENDMDL
MODEL 2
REMARK VINA RESULT:      -7.5      3.604      6.100
REMARK  Name = D0WL5V
REMARK  7 active torsions:
REMARK  status: ('A' for Active; 'I' for Inactive)
REMARK    1  A    between atoms: S_2  and  C_18
REMARK    2  A    between atoms: S_2  and  C_24
REMARK    3  A    between atoms: O_4  and  C_21
REMARK    4  A    between atoms: N_8  and  C_17
REMARK    5  A    between atoms: C_9  and  C_16
REMARK    6  A    between atoms: C_16  and  C_21
REMARK    7  A    between atoms: C_17  and  C_22
REMARK                            x       y       z     vdW  Elec       q    Type
REMARK                         _______ _______ _______ _____ _____    ______ ____
ROOT
ATOM      1  F   UNL A   1     -16.280  11.229  50.761  0.00  0.00    -0.205 F 
ATOM      2  N   UNL A   1     -14.055   8.920  46.238  0.00  0.00    -0.337 N 
ATOM      3  C   UNL A   1     -15.243   6.752  45.194  0.00  0.00    +0.047 C 
ATOM      4  C   UNL A   1     -14.959   7.887  46.133  0.00  0.00    +0.027 A 
ATOM      5  C   UNL A   1     -15.940   8.050  47.062  0.00  0.00    -0.018 A 
ATOM      6  C   UNL A   1     -16.413   6.023  45.967  0.00  0.00    +0.015 C 
ATOM      7  C   UNL A   1     -17.041   7.075  46.923  0.00  0.00    +0.038 C 
ATOM      8  C   UNL A   1     -15.603   9.121  47.889  0.00  0.00    +0.008 A 
ATOM      9  C   UNL A   1     -14.359   9.636  47.428  0.00  0.00    +0.075 A 
ATOM     10  C   UNL A   1     -13.736  10.681  48.189  0.00  0.00    +0.115 A 
ATOM     11  C   UNL A   1     -16.257   9.667  49.009  0.00  0.00    +0.048 A 
ATOM     12  C   UNL A   1     -14.438  11.204  49.303  0.00  0.00    +0.067 A 
ATOM     13  C   UNL A   1     -15.666  10.710  49.688  0.00  0.00    +0.126 A 
ENDROOT
BRANCH  10  14
ATOM     14  S   UNL A   1     -12.121  11.424  47.950  0.00  0.00    -0.004 S 
ATOM     15  O   UNL A   1     -11.146  10.361  48.078  0.00  0.00    -0.170 OA
ATOM     16  O   UNL A   1     -12.157  12.223  46.741  0.00  0.00    -0.170 OA
ATOM     17  C   UNL A   1     -11.935  12.563  49.297  0.00  0.00    +0.200 C 
ENDBRANCH  10  14
BRANCH   3  18
ATOM     18  C   UNL A   1     -14.084   5.796  44.931  0.00  0.00    +0.130 C 
BRANCH  18  20
ATOM     19  O   UNL A   1     -14.530   5.764  42.526  0.00  0.00    -0.251 OA
ATOM     20  C   UNL A   1     -14.159   5.213  43.547  0.00  0.00    +0.305 C 
BRANCH  20  21
ATOM     21  O   UNL A   1     -13.712   3.940  43.517  0.00  0.00    -0.481 OA
ATOM     22  H   UNL A   1     -13.031   3.938  42.810  0.00  0.00    +0.295 HD
ENDBRANCH  20  21
ENDBRANCH  18  20
ENDBRANCH   3  18
BRANCH   2  23
ATOM     23  C   UNL A   1     -12.945   9.131  45.300  0.00  0.00    +0.157 C 
BRANCH  23  25
ATOM     24 CL   UNL A   1     -14.401  11.273  39.826  0.00  0.00    -0.084 Cl
ATOM     25  C   UNL A   1     -13.321   9.645  43.928  0.00  0.00    -0.028 A 
ATOM     26  C   UNL A   1     -13.880  10.924  43.773  0.00  0.00    +0.007 A 
ATOM     27  C   UNL A   1     -13.055   8.917  42.758  0.00  0.00    +0.007 A 
ATOM     28  C   UNL A   1     -14.203  11.434  42.511  0.00  0.00    +0.020 A 
ATOM     29  C   UNL A   1     -13.405   9.406  41.497  0.00  0.00    +0.020 A 
ATOM     30  C   UNL A   1     -13.981  10.661  41.379  0.00  0.00    +0.041 A 
ENDBRANCH  23  25
ENDBRANCH   2  23
TORSDOF 6
ENDMDL
MODEL 3
REMARK VINA RESULT:      -7.4      2.868      4.849
REMARK  Name = D0WL5V
REMARK  7 active torsions:
REMARK  status: ('A' for Active; 'I' for Inactive)
REMARK    1  A    between atoms: S_2  and  C_18
REMARK    2  A    between atoms: S_2  and  C_24
REMARK    3  A    between atoms: O_4  and  C_21
REMARK    4  A    between atoms: N_8  and  C_17
REMARK    5  A    between atoms: C_9  and  C_16
REMARK    6  A    between atoms: C_16  and  C_21
REMARK    7  A    between atoms: C_17  and  C_22
REMARK                            x       y       z     vdW  Elec       q    Type
REMARK                         _______ _______ _______ _____ _____    ______ ____
ROOT
ATOM      1  F   UNL A   1     -18.791   6.342  47.934  0.00  0.00    -0.205 F 
ATOM      2  N   UNL A   1     -14.133   8.958  46.450  0.00  0.00    -0.337 N 
ATOM      3  C   UNL A   1     -13.824  11.525  47.169  0.00  0.00    +0.047 C 
ATOM      4  C   UNL A   1     -14.464  10.179  46.994  0.00  0.00    +0.027 A 
ATOM      5  C   UNL A   1     -15.631  10.065  47.684  0.00  0.00    -0.018 A 
ATOM      6  C   UNL A   1     -15.023  12.334  47.807  0.00  0.00    +0.015 C 
ATOM      7  C   UNL A   1     -15.985  11.287  48.434  0.00  0.00    +0.038 C 
ATOM      8  C   UNL A   1     -16.156   8.791  47.471  0.00  0.00    +0.008 A 
ATOM      9  C   UNL A   1     -15.254   8.099  46.615  0.00  0.00    +0.075 A 
ATOM     10  C   UNL A   1     -15.628   6.793  46.152  0.00  0.00    +0.115 A 
ATOM     11  C   UNL A   1     -17.347   8.193  47.925  0.00  0.00    +0.048 A 
ATOM     12  C   UNL A   1     -16.831   6.230  46.645  0.00  0.00    +0.067 A 
ATOM     13  C   UNL A   1     -17.655   6.915  47.512  0.00  0.00    +0.126 A 
ENDROOT
BRANCH  10  14
ATOM     14  S   UNL A   1     -14.783   5.746  44.966  0.00  0.00    -0.004 S 
ATOM     15  O   UNL A   1     -14.946   6.365  43.667  0.00  0.00    -0.170 OA
ATOM     16  O   UNL A   1     -13.451   5.468  45.465  0.00  0.00    -0.170 OA
ATOM     17  C   UNL A   1     -15.663   4.207  45.002  0.00  0.00    +0.200 C 
ENDBRANCH  10  14
BRANCH   3  18
ATOM     18  C   UNL A   1     -13.326  12.200  45.896  0.00  0.00    +0.130 C 
BRANCH  18  20
ATOM     19  O   UNL A   1     -10.966  11.610  46.145  0.00  0.00    -0.251 OA
ATOM     20  C   UNL A   1     -11.842  12.432  45.944  0.00  0.00    +0.305 C 
BRANCH  20  21
ATOM     21  O   UNL A   1     -11.530  13.720  45.689  0.00  0.00    -0.481 OA
ATOM     22  H   UNL A   1     -11.914  14.218  46.442  0.00  0.00    +0.295 HD
ENDBRANCH  20  21
ENDBRANCH  18  20
ENDBRANCH   3  18
BRANCH   2  23
ATOM     23  C   UNL A   1     -12.868   8.690  45.756  0.00  0.00    +0.157 C 
BRANCH  23  25
ATOM     24 CL   UNL A   1     -12.895   9.460  39.749  0.00  0.00    -0.084 Cl
ATOM     25  C   UNL A   1     -12.871   8.907  44.258  0.00  0.00    -0.028 A 
ATOM     26  C   UNL A   1     -12.057   8.126  43.422  0.00  0.00    +0.007 A 
ATOM     27  C   UNL A   1     -13.735   9.822  43.638  0.00  0.00    +0.007 A 
ATOM     28  C   UNL A   1     -12.070   8.285  42.032  0.00  0.00    +0.020 A 
ATOM     29  C   UNL A   1     -13.730  10.009  42.253  0.00  0.00    +0.020 A 
ATOM     30  C   UNL A   1     -12.894   9.243  41.456  0.00  0.00    +0.041 A 
ENDBRANCH  23  25
ENDBRANCH   2  23
TORSDOF 6
ENDMDL
MODEL 4
REMARK VINA RESULT:      -7.4      3.776      5.689
REMARK  Name = D0WL5V
REMARK  7 active torsions:
REMARK  status: ('A' for Active; 'I' for Inactive)
REMARK    1  A    between atoms: S_2  and  C_18
REMARK    2  A    between atoms: S_2  and  C_24
REMARK    3  A    between atoms: O_4  and  C_21
REMARK    4  A    between atoms: N_8  and  C_17
REMARK    5  A    between atoms: C_9  and  C_16
REMARK    6  A    between atoms: C_16  and  C_21
REMARK    7  A    between atoms: C_17  and  C_22
REMARK                            x       y       z     vdW  Elec       q    Type
REMARK                         _______ _______ _______ _____ _____    ______ ____
ROOT
ATOM      1  F   UNL A   1     -14.104  11.747  40.138  0.00  0.00    -0.205 F 
ATOM      2  N   UNL A   1     -13.195   9.065  44.905  0.00  0.00    -0.337 N 
ATOM      3  C   UNL A   1     -13.253  10.468  47.192  0.00  0.00    +0.047 C 
ATOM      4  C   UNL A   1     -13.290  10.169  45.722  0.00  0.00    +0.027 A 
ATOM      5  C   UNL A   1     -13.669  11.247  44.982  0.00  0.00    -0.018 A 
ATOM      6  C   UNL A   1     -13.328  12.046  47.167  0.00  0.00    +0.015 C 
ATOM      7  C   UNL A   1     -13.949  12.444  45.800  0.00  0.00    +0.038 C 
ATOM      8  C   UNL A   1     -13.679  10.886  43.635  0.00  0.00    +0.008 A 
ATOM      9  C   UNL A   1     -13.297   9.517  43.560  0.00  0.00    +0.075 A 
ATOM     10  C   UNL A   1     -13.122   8.933  42.261  0.00  0.00    +0.115 A 
ATOM     11  C   UNL A   1     -13.962  11.636  42.478  0.00  0.00    +0.048 A 
ATOM     12  C   UNL A   1     -13.429   9.726  41.127  0.00  0.00    +0.067 A 
ATOM     13  C   UNL A   1     -13.843  11.036  41.244  0.00  0.00    +0.126 A 
ENDROOT
BRANCH  10  14
ATOM     14  S   UNL A   1     -12.513   7.298  41.846  0.00  0.00    -0.004 S 
ATOM     15  O   UNL A   1     -13.322   6.349  42.582  0.00  0.00    -0.170 OA
ATOM     16  O   UNL A   1     -12.419   7.195  40.403  0.00  0.00    -0.170 OA
ATOM     17  C   UNL A   1     -10.849   7.259  42.460  0.00  0.00    +0.200 C 
ENDBRANCH  10  14
BRANCH   3  18
ATOM     18  C   UNL A   1     -12.014   9.990  47.941  0.00  0.00    +0.130 C 
BRANCH  18  20
ATOM     19  O   UNL A   1     -10.398  11.069  46.454  0.00  0.00    -0.251 OA
ATOM     20  C   UNL A   1     -10.804  10.803  47.571  0.00  0.00    +0.305 C 
BRANCH  20  21
ATOM     21  O   UNL A   1     -10.173  11.283  48.663  0.00  0.00    -0.481 OA
ATOM     22  H   UNL A   1     -10.711  12.058  48.934  0.00  0.00    +0.295 HD
ENDBRANCH  20  21
ENDBRANCH  18  20
ENDBRANCH   3  18
BRANCH   2  23
ATOM     23  C   UNL A   1     -12.941   7.705  45.397  0.00  0.00    +0.157 C 
BRANCH  23  25
ATOM     24 CL   UNL A   1     -17.484   5.146  48.478  0.00  0.00    -0.084 Cl
ATOM     25  C   UNL A   1     -14.076   7.047  46.150  0.00  0.00    -0.028 A 
ATOM     26  C   UNL A   1     -13.993   6.852  47.539  0.00  0.00    +0.007 A 
ATOM     27  C   UNL A   1     -15.279   6.685  45.523  0.00  0.00    +0.007 A 
ATOM     28  C   UNL A   1     -15.045   6.278  48.261  0.00  0.00    +0.020 A 
ATOM     29  C   UNL A   1     -16.321   6.082  46.233  0.00  0.00    +0.020 A 
ATOM     30  C   UNL A   1     -16.197   5.877  47.598  0.00  0.00    +0.041 A 
ENDBRANCH  23  25
ENDBRANCH   2  23
TORSDOF 6
ENDMDL
MODEL 5
REMARK VINA RESULT:      -7.3      3.575      6.578
REMARK  Name = D0WL5V
REMARK  7 active torsions:
REMARK  status: ('A' for Active; 'I' for Inactive)
REMARK    1  A    between atoms: S_2  and  C_18
REMARK    2  A    between atoms: S_2  and  C_24
REMARK    3  A    between atoms: O_4  and  C_21
REMARK    4  A    between atoms: N_8  and  C_17
REMARK    5  A    between atoms: C_9  and  C_16
REMARK    6  A    between atoms: C_16  and  C_21
REMARK    7  A    between atoms: C_17  and  C_22
REMARK                            x       y       z     vdW  Elec       q    Type
REMARK                         _______ _______ _______ _____ _____    ______ ____
ROOT
ATOM      1  F   UNL A   1     -16.680  13.340  48.327  0.00  0.00    -0.205 F 
ATOM      2  N   UNL A   1     -14.144   8.955  46.072  0.00  0.00    -0.337 N 
ATOM      3  C   UNL A   1     -15.474   6.627  45.960  0.00  0.00    +0.047 C 
ATOM      4  C   UNL A   1     -15.171   8.062  46.278  0.00  0.00    +0.027 A 
ATOM      5  C   UNL A   1     -16.252   8.723  46.775  0.00  0.00    -0.018 A 
ATOM      6  C   UNL A   1     -16.855   6.451  46.708  0.00  0.00    +0.015 C 
ATOM      7  C   UNL A   1     -17.455   7.874  46.882  0.00  0.00    +0.038 C 
ATOM      8  C   UNL A   1     -15.888  10.043  47.040  0.00  0.00    +0.008 A 
ATOM      9  C   UNL A   1     -14.520  10.186  46.676  0.00  0.00    +0.075 A 
ATOM     10  C   UNL A   1     -13.871  11.435  46.960  0.00  0.00    +0.115 A 
ATOM     11  C   UNL A   1     -16.621  11.112  47.589  0.00  0.00    +0.048 A 
ATOM     12  C   UNL A   1     -14.654  12.484  47.503  0.00  0.00    +0.067 A 
ATOM     13  C   UNL A   1     -15.990  12.319  47.797  0.00  0.00    +0.126 A 
ENDROOT
BRANCH  10  14
ATOM     14  S   UNL A   1     -12.143  11.865  46.755  0.00  0.00    -0.004 S 
ATOM     15  O   UNL A   1     -11.375  10.884  47.494  0.00  0.00    -0.170 OA
ATOM     16  O   UNL A   1     -11.882  12.066  45.344  0.00  0.00    -0.170 OA
ATOM     17  C   UNL A   1     -11.970  13.454  47.527  0.00  0.00    +0.200 C 
ENDBRANCH  10  14
BRANCH   3  18
ATOM     18  C   UNL A   1     -14.454   5.604  46.447  0.00  0.00    +0.130 C 
BRANCH  18  20
ATOM     19  O   UNL A   1     -14.050   4.809  44.169  0.00  0.00    -0.251 OA
ATOM     20  C   UNL A   1     -14.117   4.611  45.369  0.00  0.00    +0.305 C 
BRANCH  20  21
ATOM     21  O   UNL A   1     -13.834   3.396  45.882  0.00  0.00    -0.481 OA
ATOM     22  H   UNL A   1     -12.884   3.448  46.124  0.00  0.00    +0.295 HD
ENDBRANCH  20  21
ENDBRANCH  18  20
ENDBRANCH   3  18
BRANCH   2  23
ATOM     23  C   UNL A   1     -12.877   8.605  45.418  0.00  0.00    +0.157 C 
BRANCH  23  25
ATOM     24 CL   UNL A   1     -12.849   8.893  39.368  0.00  0.00    -0.084 Cl
ATOM     25  C   UNL A   1     -12.859   8.700  43.907  0.00  0.00    -0.028 A 
ATOM     26  C   UNL A   1     -12.341   7.649  43.132  0.00  0.00    +0.007 A 
ATOM     27  C   UNL A   1     -13.427   9.783  43.220  0.00  0.00    +0.007 A 
ATOM     28  C   UNL A   1     -12.347   7.700  41.734  0.00  0.00    +0.020 A 
ATOM     29  C   UNL A   1     -13.407   9.855  41.824  0.00  0.00    +0.020 A 
ATOM     30  C   UNL A   1     -12.863   8.815  41.088  0.00  0.00    +0.041 A 
ENDBRANCH  23  25
ENDBRANCH   2  23
TORSDOF 6
ENDMDL
MODEL 6
REMARK VINA RESULT:      -7.2     15.157     17.999
REMARK  Name = D0WL5V
REMARK  7 active torsions:
REMARK  status: ('A' for Active; 'I' for Inactive)
REMARK    1  A    between atoms: S_2  and  C_18
REMARK    2  A    between atoms: S_2  and  C_24
REMARK    3  A    between atoms: O_4  and  C_21
REMARK    4  A    between atoms: N_8  and  C_17
REMARK    5  A    between atoms: C_9  and  C_16
REMARK    6  A    between atoms: C_16  and  C_21
REMARK    7  A    between atoms: C_17  and  C_22
REMARK                            x       y       z     vdW  Elec       q    Type
REMARK                         _______ _______ _______ _____ _____    ______ ____
ROOT
ATOM      1  F   UNL A   1     -29.233  -7.410  53.138  0.00  0.00    -0.205 F 
ATOM      2  N   UNL A   1     -25.732  -3.386  51.625  0.00  0.00    -0.337 N 
ATOM      3  C   UNL A   1     -26.619  -0.853  51.623  0.00  0.00    +0.047 C 
ATOM      4  C   UNL A   1     -26.628  -2.348  51.751  0.00  0.00    +0.027 A 
ATOM      5  C   UNL A   1     -27.791  -2.818  52.279  0.00  0.00    -0.018 A 
ATOM      6  C   UNL A   1     -28.153  -0.536  51.836  0.00  0.00    +0.015 C 
ATOM      7  C   UNL A   1     -28.759  -1.748  52.596  0.00  0.00    +0.038 C 
ATOM      8  C   UNL A   1     -27.717  -4.207  52.365  0.00  0.00    +0.008 A 
ATOM      9  C   UNL A   1     -26.439  -4.594  51.873  0.00  0.00    +0.075 A 
ATOM     10  C   UNL A   1     -26.157  -5.997  51.751  0.00  0.00    +0.115 A 
ATOM     11  C   UNL A   1     -28.657  -5.159  52.803  0.00  0.00    +0.048 A 
ATOM     12  C   UNL A   1     -27.131  -6.915  52.214  0.00  0.00    +0.067 A 
ATOM     13  C   UNL A   1     -28.339  -6.497  52.731  0.00  0.00    +0.126 A 
ENDROOT
BRANCH  10  14
ATOM     14  S   UNL A   1     -24.713  -6.785  51.038  0.00  0.00    -0.004 S 
ATOM     15  O   UNL A   1     -24.571  -6.266  49.693  0.00  0.00    -0.170 OA
ATOM     16  O   UNL A   1     -23.613  -6.665  51.973  0.00  0.00    -0.170 OA
ATOM     17  C   UNL A   1     -25.121  -8.510  50.965  0.00  0.00    +0.200 C 
ENDBRANCH  10  14
BRANCH   3  18
ATOM     18  C   UNL A   1     -26.126  -0.298  50.292  0.00  0.00    +0.130 C 
BRANCH  18  20
ATOM     19  O   UNL A   1     -24.531   1.361  51.123  0.00  0.00    -0.251 OA
ATOM     20  C   UNL A   1     -24.795   0.385  50.442  0.00  0.00    +0.305 C 
BRANCH  20  21
ATOM     21  O   UNL A   1     -23.831  -0.240  49.736  0.00  0.00    -0.481 OA
ATOM     22  H   UNL A   1     -23.446  -0.886  50.368  0.00  0.00    +0.295 HD
ENDBRANCH  20  21
ENDBRANCH  18  20
ENDBRANCH   3  18
BRANCH   2  23
ATOM     23  C   UNL A   1     -24.333  -3.210  51.216  0.00  0.00    +0.157 C 
BRANCH  23  25
ATOM     24 CL   UNL A   1     -20.372  -1.691  55.538  0.00  0.00    -0.084 Cl
ATOM     25  C   UNL A   1     -23.360  -2.835  52.313  0.00  0.00    -0.028 A 
ATOM     26  C   UNL A   1     -22.082  -3.414  52.363  0.00  0.00    +0.007 A 
ATOM     27  C   UNL A   1     -23.653  -1.845  53.264  0.00  0.00    +0.007 A 
ATOM     28  C   UNL A   1     -21.155  -3.056  53.347  0.00  0.00    +0.020 A 
ATOM     29  C   UNL A   1     -22.744  -1.506  54.270  0.00  0.00    +0.020 A 
ATOM     30  C   UNL A   1     -21.500  -2.116  54.309  0.00  0.00    +0.041 A 
ENDBRANCH  23  25
ENDBRANCH   2  23
TORSDOF 6
ENDMDL
MODEL 7
REMARK VINA RESULT:      -7.1      3.387      5.632
REMARK  Name = D0WL5V
REMARK  7 active torsions:
REMARK  status: ('A' for Active; 'I' for Inactive)
REMARK    1  A    between atoms: S_2  and  C_18
REMARK    2  A    between atoms: S_2  and  C_24
REMARK    3  A    between atoms: O_4  and  C_21
REMARK    4  A    between atoms: N_8  and  C_17
REMARK    5  A    between atoms: C_9  and  C_16
REMARK    6  A    between atoms: C_16  and  C_21
REMARK    7  A    between atoms: C_17  and  C_22
REMARK                            x       y       z     vdW  Elec       q    Type
REMARK                         _______ _______ _______ _____ _____    ______ ____
ROOT
ATOM      1  F   UNL A   1     -12.256  13.223  46.028  0.00  0.00    -0.205 F 
ATOM      2  N   UNL A   1     -13.722   7.882  45.759  0.00  0.00    -0.337 N 
ATOM      3  C   UNL A   1     -13.860   6.715  43.347  0.00  0.00    +0.047 C 
ATOM      4  C   UNL A   1     -13.681   7.781  44.387  0.00  0.00    +0.027 A 
ATOM      5  C   UNL A   1     -13.199   8.942  43.863  0.00  0.00    -0.018 A 
ATOM      6  C   UNL A   1     -13.740   7.575  42.027  0.00  0.00    +0.015 C 
ATOM      7  C   UNL A   1     -12.971   8.871  42.406  0.00  0.00    +0.038 C 
ATOM      8  C   UNL A   1     -13.060   9.874  44.890  0.00  0.00    +0.008 A 
ATOM      9  C   UNL A   1     -13.470   9.240  46.096  0.00  0.00    +0.075 A 
ATOM     10  C   UNL A   1     -13.527  10.033  47.292  0.00  0.00    +0.115 A 
ATOM     11  C   UNL A   1     -12.640  11.217  44.870  0.00  0.00    +0.048 A 
ATOM     12  C   UNL A   1     -13.084  11.377  47.222  0.00  0.00    +0.067 A 
ATOM     13  C   UNL A   1     -12.648  11.940  46.042  0.00  0.00    +0.126 A 
ENDROOT
BRANCH  10  14
ATOM     14  S   UNL A   1     -14.135   9.564  48.912  0.00  0.00    -0.004 S 
ATOM     15  O   UNL A   1     -15.580   9.527  48.825  0.00  0.00    -0.170 OA
ATOM     16  O   UNL A   1     -13.413   8.387  49.352  0.00  0.00    -0.170 OA
ATOM     17  C   UNL A   1     -13.642  10.885  49.988  0.00  0.00    +0.200 C 
ENDBRANCH  10  14
BRANCH   3  18
ATOM     18  C   UNL A   1     -15.182   5.956  43.387  0.00  0.00    +0.130 C 
BRANCH  18  20
ATOM     19  O   UNL A   1     -15.808   3.973  44.675  0.00  0.00    -0.251 OA
ATOM     20  C   UNL A   1     -15.012   4.589  43.988  0.00  0.00    +0.305 C 
BRANCH  20  21
ATOM     21  O   UNL A   1     -13.827   4.039  43.649  0.00  0.00    -0.481 OA
ATOM     22  H   UNL A   1     -13.172   4.753  43.809  0.00  0.00    +0.295 HD
ENDBRANCH  20  21
ENDBRANCH  18  20
ENDBRANCH   3  18
BRANCH   2  23
ATOM     23  C   UNL A   1     -14.063   6.766  46.650  0.00  0.00    +0.157 C 
BRANCH  23  25
ATOM     24 CL   UNL A   1     -19.859   6.369  48.361  0.00  0.00    -0.084 Cl
ATOM     25  C   UNL A   1     -15.517   6.658  47.055  0.00  0.00    -0.028 A 
ATOM     26  C   UNL A   1     -15.879   6.021  48.254  0.00  0.00    +0.007 A 
ATOM     27  C   UNL A   1     -16.546   7.252  46.309  0.00  0.00    +0.007 A 
ATOM     28  C   UNL A   1     -17.213   5.941  48.665  0.00  0.00    +0.020 A 
ATOM     29  C   UNL A   1     -17.885   7.147  46.697  0.00  0.00    +0.020 A 
ATOM     30  C   UNL A   1     -18.212   6.488  47.872  0.00  0.00    +0.041 A 
ENDBRANCH  23  25
ENDBRANCH   2  23
TORSDOF 6
ENDMDL
MODEL 8
REMARK VINA RESULT:      -7.1     10.416     12.263
REMARK  Name = D0WL5V
REMARK  7 active torsions:
REMARK  status: ('A' for Active; 'I' for Inactive)
REMARK    1  A    between atoms: S_2  and  C_18
REMARK    2  A    between atoms: S_2  and  C_24
REMARK    3  A    between atoms: O_4  and  C_21
REMARK    4  A    between atoms: N_8  and  C_17
REMARK    5  A    between atoms: C_9  and  C_16
REMARK    6  A    between atoms: C_16  and  C_21
REMARK    7  A    between atoms: C_17  and  C_22
REMARK                            x       y       z     vdW  Elec       q    Type
REMARK                         _______ _______ _______ _____ _____    ______ ____
ROOT
ATOM      1  F   UNL A   1      -6.686   1.780  52.685  0.00  0.00    -0.205 F 
ATOM      2  N   UNL A   1      -4.338   5.141  48.953  0.00  0.00    -0.337 N 
ATOM      3  C   UNL A   1      -2.217   6.603  49.706  0.00  0.00    +0.047 C 
ATOM      4  C   UNL A   1      -3.379   5.658  49.795  0.00  0.00    +0.027 A 
ATOM      5  C   UNL A   1      -3.429   5.007  50.990  0.00  0.00    -0.018 A 
ATOM      6  C   UNL A   1      -1.781   6.670  51.224  0.00  0.00    +0.015 C 
ATOM      7  C   UNL A   1      -2.333   5.387  51.905  0.00  0.00    +0.038 C 
ATOM      8  C   UNL A   1      -4.530   4.153  50.990  0.00  0.00    +0.008 A 
ATOM      9  C   UNL A   1      -5.172   4.288  49.727  0.00  0.00    +0.075 A 
ATOM     10  C   UNL A   1      -6.408   3.589  49.517  0.00  0.00    +0.115 A 
ATOM     11  C   UNL A   1      -5.037   3.297  51.985  0.00  0.00    +0.048 A 
ATOM     12  C   UNL A   1      -6.871   2.732  50.546  0.00  0.00    +0.067 A 
ATOM     13  C   UNL A   1      -6.194   2.591  51.738  0.00  0.00    +0.126 A 
ENDROOT
BRANCH  10  14
ATOM     14  S   UNL A   1      -7.512   3.675  48.106  0.00  0.00    -0.004 S 
ATOM     15  O   UNL A   1      -8.838   3.349  48.589  0.00  0.00    -0.170 OA
ATOM     16  O   UNL A   1      -7.286   4.932  47.421  0.00  0.00    -0.170 OA
ATOM     17  C   UNL A   1      -6.953   2.399  47.008  0.00  0.00    +0.200 C 
ENDBRANCH  10  14
BRANCH   3  18
ATOM     18  C   UNL A   1      -2.525   7.994  49.164  0.00  0.00    +0.130 C 
BRANCH  18  20
ATOM     19  O   UNL A   1      -0.897   9.456  50.258  0.00  0.00    -0.251 OA
ATOM     20  C   UNL A   1      -2.041   9.066  50.100  0.00  0.00    +0.305 C 
BRANCH  20  21
ATOM     21  O   UNL A   1      -3.059   9.634  50.778  0.00  0.00    -0.481 OA
ATOM     22  H   UNL A   1      -2.623  10.259  51.396  0.00  0.00    +0.295 HD
ENDBRANCH  20  21
ENDBRANCH  18  20
ENDBRANCH   3  18
BRANCH   2  23
ATOM     23  C   UNL A   1      -4.473   5.519  47.541  0.00  0.00    +0.157 C 
BRANCH  23  25
ATOM     24 CL   UNL A   1      -1.405   2.206  43.504  0.00  0.00    -0.084 Cl
ATOM     25  C   UNL A   1      -3.693   4.681  46.551  0.00  0.00    -0.028 A 
ATOM     26  C   UNL A   1      -4.361   3.926  45.572  0.00  0.00    +0.007 A 
ATOM     27  C   UNL A   1      -2.290   4.685  46.510  0.00  0.00    +0.007 A 
ATOM     28  C   UNL A   1      -3.660   3.173  44.625  0.00  0.00    +0.020 A 
ATOM     29  C   UNL A   1      -1.583   3.909  45.587  0.00  0.00    +0.020 A 
ATOM     30  C   UNL A   1      -2.272   3.152  44.652  0.00  0.00    +0.041 A 
ENDBRANCH  23  25
ENDBRANCH   2  23
TORSDOF 6
ENDMDL
MODEL 9
REMARK VINA RESULT:      -7.0      8.961     11.147
REMARK  Name = D0WL5V
REMARK  7 active torsions:
REMARK  status: ('A' for Active; 'I' for Inactive)
REMARK    1  A    between atoms: S_2  and  C_18
REMARK    2  A    between atoms: S_2  and  C_24
REMARK    3  A    between atoms: O_4  and  C_21
REMARK    4  A    between atoms: N_8  and  C_17
REMARK    5  A    between atoms: C_9  and  C_16
REMARK    6  A    between atoms: C_16  and  C_21
REMARK    7  A    between atoms: C_17  and  C_22
REMARK                            x       y       z     vdW  Elec       q    Type
REMARK                         _______ _______ _______ _____ _____    ______ ____
ROOT
ATOM      1  F   UNL A   1      -1.217   2.670  42.725  0.00  0.00    -0.205 F 
ATOM      2  N   UNL A   1      -4.738   4.019  46.791  0.00  0.00    -0.337 N 
ATOM      3  C   UNL A   1      -3.896   5.702  48.704  0.00  0.00    +0.047 C 
ATOM      4  C   UNL A   1      -3.865   4.824  47.488  0.00  0.00    +0.027 A 
ATOM      5  C   UNL A   1      -2.712   4.961  46.778  0.00  0.00    -0.018 A 
ATOM      6  C   UNL A   1      -2.376   6.127  48.793  0.00  0.00    +0.015 C 
ATOM      7  C   UNL A   1      -1.774   5.934  47.373  0.00  0.00    +0.038 C 
ATOM      8  C   UNL A   1      -2.764   4.117  45.669  0.00  0.00    +0.008 A 
ATOM      9  C   UNL A   1      -4.018   3.444  45.708  0.00  0.00    +0.075 A 
ATOM     10  C   UNL A   1      -4.271   2.427  44.726  0.00  0.00    +0.115 A 
ATOM     11  C   UNL A   1      -1.823   3.863  44.655  0.00  0.00    +0.048 A 
ATOM     12  C   UNL A   1      -3.296   2.216  43.720  0.00  0.00    +0.067 A 
ATOM     13  C   UNL A   1      -2.114   2.923  43.690  0.00  0.00    +0.126 A 
ENDROOT
BRANCH  10  14
ATOM     14  S   UNL A   1      -5.675   1.319  44.606  0.00  0.00    -0.004 S 
ATOM     15  O   UNL A   1      -5.414   0.427  43.496  0.00  0.00    -0.170 OA
ATOM     16  O   UNL A   1      -5.942   0.770  45.920  0.00  0.00    -0.170 OA
ATOM     17  C   UNL A   1      -7.053   2.365  44.212  0.00  0.00    +0.200 C 
ENDBRANCH  10  14
BRANCH   3  18
ATOM     18  C   UNL A   1      -4.354   5.037  49.998  0.00  0.00    +0.130 C 
BRANCH  18  20
ATOM     19  O   UNL A   1      -4.696   7.029  51.377  0.00  0.00    -0.251 OA
ATOM     20  C   UNL A   1      -4.167   5.949  51.178  0.00  0.00    +0.305 C 
BRANCH  20  21
ATOM     21  O   UNL A   1      -3.328   5.418  52.091  0.00  0.00    -0.481 OA
ATOM     22  H   UNL A   1      -3.801   5.519  52.946  0.00  0.00    +0.295 HD
ENDBRANCH  20  21
ENDBRANCH  18  20
ENDBRANCH   3  18
BRANCH   2  23
ATOM     23  C   UNL A   1      -6.125   3.771  47.203  0.00  0.00    +0.157 C 
BRANCH  23  25
ATOM     24 CL   UNL A   1     -10.139   8.009  45.588  0.00  0.00    -0.084 Cl
ATOM     25  C   UNL A   1      -7.132   4.836  46.823  0.00  0.00    -0.028 A 
ATOM     26  C   UNL A   1      -6.817   5.804  45.856  0.00  0.00    +0.007 A 
ATOM     27  C   UNL A   1      -8.434   4.854  47.347  0.00  0.00    +0.007 A 
ATOM     28  C   UNL A   1      -7.744   6.776  45.464  0.00  0.00    +0.020 A 
ATOM     29  C   UNL A   1      -9.354   5.841  46.985  0.00  0.00    +0.020 A 
ATOM     30  C   UNL A   1      -9.003   6.800  46.048  0.00  0.00    +0.041 A 
ENDBRANCH  23  25
ENDBRANCH   2  23
TORSDOF 6
ENDMDL
MODEL 10
REMARK VINA RESULT:      -7.0      2.248      5.383
REMARK  Name = D0WL5V
REMARK  7 active torsions:
REMARK  status: ('A' for Active; 'I' for Inactive)
REMARK    1  A    between atoms: S_2  and  C_18
REMARK    2  A    between atoms: S_2  and  C_24
REMARK    3  A    between atoms: O_4  and  C_21
REMARK    4  A    between atoms: N_8  and  C_17
REMARK    5  A    between atoms: C_9  and  C_16
REMARK    6  A    between atoms: C_16  and  C_21
REMARK    7  A    between atoms: C_17  and  C_22
REMARK                            x       y       z     vdW  Elec       q    Type
REMARK                         _______ _______ _______ _____ _____    ______ ____
ROOT
ATOM      1  F   UNL A   1     -10.768   7.514  42.281  0.00  0.00    -0.205 F 
ATOM      2  N   UNL A   1     -14.533   7.790  46.343  0.00  0.00    -0.337 N 
ATOM      3  C   UNL A   1     -16.804   6.386  46.078  0.00  0.00    +0.047 C 
ATOM      4  C   UNL A   1     -15.466   6.974  45.742  0.00  0.00    +0.027 A 
ATOM      5  C   UNL A   1     -14.942   6.456  44.598  0.00  0.00    -0.018 A 
ATOM      6  C   UNL A   1     -17.157   5.674  44.711  0.00  0.00    +0.015 C 
ATOM      7  C   UNL A   1     -15.813   5.445  43.966  0.00  0.00    +0.038 C 
ATOM      8  C   UNL A   1     -13.704   7.051  44.361  0.00  0.00    +0.008 A 
ATOM      9  C   UNL A   1     -13.465   7.969  45.422  0.00  0.00    +0.075 A 
ATOM     10  C   UNL A   1     -12.295   8.798  45.349  0.00  0.00    +0.115 A 
ATOM     11  C   UNL A   1     -12.787   6.890  43.305  0.00  0.00    +0.048 A 
ATOM     12  C   UNL A   1     -11.398   8.591  44.272  0.00  0.00    +0.067 A 
ATOM     13  C   UNL A   1     -11.642   7.657  43.288  0.00  0.00    +0.126 A 
ENDROOT
BRANCH  10  14
ATOM     14  S   UNL A   1     -11.805  10.133  46.441  0.00  0.00    -0.004 S 
ATOM     15  O   UNL A   1     -12.667  11.257  46.145  0.00  0.00    -0.170 OA
ATOM     16  O   UNL A   1     -11.736   9.618  47.794  0.00  0.00    -0.170 OA
ATOM     17  C   UNL A   1     -10.140  10.525  45.969  0.00  0.00    +0.200 C 
ENDBRANCH  10  14
BRANCH   3  18
ATOM     18  C   UNL A   1     -17.892   7.378  46.474  0.00  0.00    +0.130 C 
BRANCH  18  20
ATOM     19  O   UNL A   1     -18.703   6.232  48.477  0.00  0.00    -0.251 OA
ATOM     20  C   UNL A   1     -18.902   6.747  47.391  0.00  0.00    +0.305 C 
BRANCH  20  21
ATOM     21  O   UNL A   1     -20.153   6.837  46.893  0.00  0.00    -0.481 OA
ATOM     22  H   UNL A   1     -20.034   7.241  46.006  0.00  0.00    +0.295 HD
ENDBRANCH  20  21
ENDBRANCH  18  20
ENDBRANCH   3  18
BRANCH   2  23
ATOM     23  C   UNL A   1     -14.716   8.405  47.663  0.00  0.00    +0.157 C 
BRANCH  23  25
ATOM     24 CL   UNL A   1     -16.791  14.095  47.663  0.00  0.00    -0.084 Cl
ATOM     25  C   UNL A   1     -15.212   9.835  47.669  0.00  0.00    -0.028 A 
ATOM     26  C   UNL A   1     -15.982  10.327  46.603  0.00  0.00    +0.007 A 
ATOM     27  C   UNL A   1     -15.002  10.694  48.758  0.00  0.00    +0.007 A 
ATOM     28  C   UNL A   1     -16.480  11.634  46.602  0.00  0.00    +0.020 A 
ATOM     29  C   UNL A   1     -15.469  12.012  48.750  0.00  0.00    +0.020 A 
ATOM     30  C   UNL A   1     -16.202  12.477  47.670  0.00  0.00    +0.041 A 
ENDBRANCH  23  25
ENDBRANCH   2  23
TORSDOF 6
ENDMDL
