REMARK VINA RESULT:      -7.1      3.387      5.632
REMARK  Name = D0WL5V
REMARK  7 active torsions:
REMARK  status: ('A' for Active; 'I' for Inactive)
REMARK    1  A    between atoms: S_2  and  C_18
REMARK    2  A    between atoms: S_2  and  C_24
REMARK    3  A    between atoms: O_4  and  C_21
REMARK    4  A    between atoms: N_8  and  C_17
REMARK    5  A    between atoms: C_9  and  C_16
REMARK    6  A    between atoms: C_16  and  C_21
REMARK    7  A    between atoms: C_17  and  C_22
REMARK                            x       y       z     vdW  Elec       q    Type
REMARK                         _______ _______ _______ _____ _____    ______ ____
ROOT
ATOM      1  F   UNL A   1     -12.256  13.223  46.028  0.00  0.00    -0.205 F 
ATOM      2  N   UNL A   1     -13.722   7.882  45.759  0.00  0.00    -0.337 N 
ATOM      3  C   UNL A   1     -13.860   6.715  43.347  0.00  0.00    +0.047 C 
ATOM      4  C   UNL A   1     -13.681   7.781  44.387  0.00  0.00    +0.027 A 
ATOM      5  C   UNL A   1     -13.199   8.942  43.863  0.00  0.00    -0.018 A 
ATOM      6  C   UNL A   1     -13.740   7.575  42.027  0.00  0.00    +0.015 C 
ATOM      7  C   UNL A   1     -12.971   8.871  42.406  0.00  0.00    +0.038 C 
ATOM      8  C   UNL A   1     -13.060   9.874  44.890  0.00  0.00    +0.008 A 
ATOM      9  C   UNL A   1     -13.470   9.240  46.096  0.00  0.00    +0.075 A 
ATOM     10  C   UNL A   1     -13.527  10.033  47.292  0.00  0.00    +0.115 A 
ATOM     11  C   UNL A   1     -12.640  11.217  44.870  0.00  0.00    +0.048 A 
ATOM     12  C   UNL A   1     -13.084  11.377  47.222  0.00  0.00    +0.067 A 
ATOM     13  C   UNL A   1     -12.648  11.940  46.042  0.00  0.00    +0.126 A 
ENDROOT
BRANCH  10  14
ATOM     14  S   UNL A   1     -14.135   9.564  48.912  0.00  0.00    -0.004 S 
ATOM     15  O   UNL A   1     -15.580   9.527  48.825  0.00  0.00    -0.170 OA
ATOM     16  O   UNL A   1     -13.413   8.387  49.352  0.00  0.00    -0.170 OA
ATOM     17  C   UNL A   1     -13.642  10.885  49.988  0.00  0.00    +0.200 C 
ENDBRANCH  10  14
BRANCH   3  18
ATOM     18  C   UNL A   1     -15.182   5.956  43.387  0.00  0.00    +0.130 C 
BRANCH  18  20
ATOM     19  O   UNL A   1     -15.808   3.973  44.675  0.00  0.00    -0.251 OA
ATOM     20  C   UNL A   1     -15.012   4.589  43.988  0.00  0.00    +0.305 C 
BRANCH  20  21
ATOM     21  O   UNL A   1     -13.827   4.039  43.649  0.00  0.00    -0.481 OA
ATOM     22  H   UNL A   1     -13.172   4.753  43.809  0.00  0.00    +0.295 HD
ENDBRANCH  20  21
ENDBRANCH  18  20
ENDBRANCH   3  18
BRANCH   2  23
ATOM     23  C   UNL A   1     -14.063   6.766  46.650  0.00  0.00    +0.157 C 
BRANCH  23  25
ATOM     24 CL   UNL A   1     -19.859   6.369  48.361  0.00  0.00    -0.084 Cl
ATOM     25  C   UNL A   1     -15.517   6.658  47.055  0.00  0.00    -0.028 A 
ATOM     26  C   UNL A   1     -15.879   6.021  48.254  0.00  0.00    +0.007 A 
ATOM     27  C   UNL A   1     -16.546   7.252  46.309  0.00  0.00    +0.007 A 
ATOM     28  C   UNL A   1     -17.213   5.941  48.665  0.00  0.00    +0.020 A 
ATOM     29  C   UNL A   1     -17.885   7.147  46.697  0.00  0.00    +0.020 A 
ATOM     30  C   UNL A   1     -18.212   6.488  47.872  0.00  0.00    +0.041 A 
ENDBRANCH  23  25
ENDBRANCH   2  23
TORSDOF 6
