REMARK  Name = D0WL5V
REMARK  7 active torsions:
REMARK  status: ('A' for Active; 'I' for Inactive)
REMARK    1  A    between atoms: S_2  and  C_18
REMARK    2  A    between atoms: S_2  and  C_24
REMARK    3  A    between atoms: O_4  and  C_21
REMARK    4  A    between atoms: N_8  and  C_17
REMARK    5  A    between atoms: C_9  and  C_16
REMARK    6  A    between atoms: C_16  and  C_21
REMARK    7  A    between atoms: C_17  and  C_22
REMARK                            x       y       z     vdW  Elec       q    Type
REMARK                         _______ _______ _______ _____ _____    ______ ____
ROOT
ATOM      1  F   UNL A   1      -2.193   1.927  -5.192  0.00  0.00    -0.205 F 
ATOM      2  N   UNL A   1      -2.615  -1.068  -0.545  0.00  0.00    -0.337 N 
ATOM      3  C   UNL A   1      -4.293  -3.162  -0.522  0.00  0.00    +0.047 C 
ATOM      4  C   UNL A   1      -3.569  -1.943  -1.013  0.00  0.00    +0.027 A 
ATOM      5  C   UNL A   1      -3.790  -1.705  -2.335  0.00  0.00    -0.018 A 
ATOM      6  C   UNL A   1      -5.293  -3.407  -1.721  0.00  0.00    +0.015 C 
ATOM      7  C   UNL A   1      -4.685  -2.698  -2.963  0.00  0.00    +0.038 C 
ATOM      8  C   UNL A   1      -3.084  -0.563  -2.710  0.00  0.00    +0.008 A 
ATOM      9  C   UNL A   1      -2.394  -0.094  -1.557  0.00  0.00    +0.075 A 
ATOM     10  C   UNL A   1      -1.677   1.146  -1.655  0.00  0.00    +0.115 A 
ATOM     11  C   UNL A   1      -3.007   0.115  -3.941  0.00  0.00    +0.048 A 
ATOM     12  C   UNL A   1      -1.621   1.785  -2.918  0.00  0.00    +0.067 A 
ATOM     13  C   UNL A   1      -2.264   1.272  -4.024  0.00  0.00    +0.126 A 
ENDROOT
BRANCH  10  14
ATOM     14  S   UNL A   1      -0.843   2.057  -0.355  0.00  0.00    -0.004 S 
ATOM     15  O   UNL A   1       0.135   1.161   0.226  0.00  0.00    -0.170 OA
ATOM     16  O   UNL A   1      -0.417   3.335  -0.889  0.00  0.00    -0.170 OA
ATOM     17  C   UNL A   1      -2.105   2.410   0.841  0.00  0.00    +0.200 C 
ENDBRANCH  10  14
BRANCH   3  18
ATOM     18  C   UNL A   1      -5.046  -3.008   0.795  0.00  0.00    +0.130 C 
BRANCH  18  20
ATOM     19  O   UNL A   1      -5.389  -5.430   0.793  0.00  0.00    -0.251 OA
ATOM     20  C   UNL A   1      -5.504  -4.339   1.323  0.00  0.00    +0.305 C 
BRANCH  20  21
ATOM     21  O   UNL A   1      -6.064  -4.225   2.545  0.00  0.00    -0.481 OA
ATOM     22  H   UNL A   1      -6.294  -5.146   2.795  0.00  0.00    +0.295 HD
ENDBRANCH  20  21
ENDBRANCH  18  20
ENDBRANCH   3  18
BRANCH   2  23
ATOM     23  C   UNL A   1      -2.039  -1.134   0.804  0.00  0.00    +0.157 C 
BRANCH  23  25
ATOM     24 CL   UNL A   1       2.072  -5.463   1.824  0.00  0.00    -0.084 Cl
ATOM     25  C   UNL A   1      -1.021  -2.229   1.040  0.00  0.00    -0.028 A 
ATOM     26  C   UNL A   1       0.344  -1.921   1.160  0.00  0.00    +0.007 A 
ATOM     27  C   UNL A   1      -1.395  -3.568   1.232  0.00  0.00    +0.007 A 
ATOM     28  C   UNL A   1       1.298  -2.912   1.413  0.00  0.00    +0.020 A 
ATOM     29  C   UNL A   1      -0.444  -4.568   1.453  0.00  0.00    +0.020 A 
ATOM     30  C   UNL A   1       0.899  -4.236   1.538  0.00  0.00    +0.041 A 
ENDBRANCH  23  25
ENDBRANCH   2  23
TORSDOF 6
