REMARK VINA RESULT:      -7.4      3.776      5.689
REMARK  Name = D0WL5V
REMARK  7 active torsions:
REMARK  status: ('A' for Active; 'I' for Inactive)
REMARK    1  A    between atoms: S_2  and  C_18
REMARK    2  A    between atoms: S_2  and  C_24
REMARK    3  A    between atoms: O_4  and  C_21
REMARK    4  A    between atoms: N_8  and  C_17
REMARK    5  A    between atoms: C_9  and  C_16
REMARK    6  A    between atoms: C_16  and  C_21
REMARK    7  A    between atoms: C_17  and  C_22
REMARK                            x       y       z     vdW  Elec       q    Type
REMARK                         _______ _______ _______ _____ _____    ______ ____
ROOT
ATOM      1  F   UNL A   1     -14.104  11.747  40.138  0.00  0.00    -0.205 F 
ATOM      2  N   UNL A   1     -13.195   9.065  44.905  0.00  0.00    -0.337 N 
ATOM      3  C   UNL A   1     -13.253  10.468  47.192  0.00  0.00    +0.047 C 
ATOM      4  C   UNL A   1     -13.290  10.169  45.722  0.00  0.00    +0.027 A 
ATOM      5  C   UNL A   1     -13.669  11.247  44.982  0.00  0.00    -0.018 A 
ATOM      6  C   UNL A   1     -13.328  12.046  47.167  0.00  0.00    +0.015 C 
ATOM      7  C   UNL A   1     -13.949  12.444  45.800  0.00  0.00    +0.038 C 
ATOM      8  C   UNL A   1     -13.679  10.886  43.635  0.00  0.00    +0.008 A 
ATOM      9  C   UNL A   1     -13.297   9.517  43.560  0.00  0.00    +0.075 A 
ATOM     10  C   UNL A   1     -13.122   8.933  42.261  0.00  0.00    +0.115 A 
ATOM     11  C   UNL A   1     -13.962  11.636  42.478  0.00  0.00    +0.048 A 
ATOM     12  C   UNL A   1     -13.429   9.726  41.127  0.00  0.00    +0.067 A 
ATOM     13  C   UNL A   1     -13.843  11.036  41.244  0.00  0.00    +0.126 A 
ENDROOT
BRANCH  10  14
ATOM     14  S   UNL A   1     -12.513   7.298  41.846  0.00  0.00    -0.004 S 
ATOM     15  O   UNL A   1     -13.322   6.349  42.582  0.00  0.00    -0.170 OA
ATOM     16  O   UNL A   1     -12.419   7.195  40.403  0.00  0.00    -0.170 OA
ATOM     17  C   UNL A   1     -10.849   7.259  42.460  0.00  0.00    +0.200 C 
ENDBRANCH  10  14
BRANCH   3  18
ATOM     18  C   UNL A   1     -12.014   9.990  47.941  0.00  0.00    +0.130 C 
BRANCH  18  20
ATOM     19  O   UNL A   1     -10.398  11.069  46.454  0.00  0.00    -0.251 OA
ATOM     20  C   UNL A   1     -10.804  10.803  47.571  0.00  0.00    +0.305 C 
BRANCH  20  21
ATOM     21  O   UNL A   1     -10.173  11.283  48.663  0.00  0.00    -0.481 OA
ATOM     22  H   UNL A   1     -10.711  12.058  48.934  0.00  0.00    +0.295 HD
ENDBRANCH  20  21
ENDBRANCH  18  20
ENDBRANCH   3  18
BRANCH   2  23
ATOM     23  C   UNL A   1     -12.941   7.705  45.397  0.00  0.00    +0.157 C 
BRANCH  23  25
ATOM     24 CL   UNL A   1     -17.484   5.146  48.478  0.00  0.00    -0.084 Cl
ATOM     25  C   UNL A   1     -14.076   7.047  46.150  0.00  0.00    -0.028 A 
ATOM     26  C   UNL A   1     -13.993   6.852  47.539  0.00  0.00    +0.007 A 
ATOM     27  C   UNL A   1     -15.279   6.685  45.523  0.00  0.00    +0.007 A 
ATOM     28  C   UNL A   1     -15.045   6.278  48.261  0.00  0.00    +0.020 A 
ATOM     29  C   UNL A   1     -16.321   6.082  46.233  0.00  0.00    +0.020 A 
ATOM     30  C   UNL A   1     -16.197   5.877  47.598  0.00  0.00    +0.041 A 
ENDBRANCH  23  25
ENDBRANCH   2  23
TORSDOF 6
