REMARK VINA RESULT:      -7.0      8.961     11.147
REMARK  Name = D0WL5V
REMARK  7 active torsions:
REMARK  status: ('A' for Active; 'I' for Inactive)
REMARK    1  A    between atoms: S_2  and  C_18
REMARK    2  A    between atoms: S_2  and  C_24
REMARK    3  A    between atoms: O_4  and  C_21
REMARK    4  A    between atoms: N_8  and  C_17
REMARK    5  A    between atoms: C_9  and  C_16
REMARK    6  A    between atoms: C_16  and  C_21
REMARK    7  A    between atoms: C_17  and  C_22
REMARK                            x       y       z     vdW  Elec       q    Type
REMARK                         _______ _______ _______ _____ _____    ______ ____
ROOT
ATOM      1  F   UNL A   1      -1.217   2.670  42.725  0.00  0.00    -0.205 F 
ATOM      2  N   UNL A   1      -4.738   4.019  46.791  0.00  0.00    -0.337 N 
ATOM      3  C   UNL A   1      -3.896   5.702  48.704  0.00  0.00    +0.047 C 
ATOM      4  C   UNL A   1      -3.865   4.824  47.488  0.00  0.00    +0.027 A 
ATOM      5  C   UNL A   1      -2.712   4.961  46.778  0.00  0.00    -0.018 A 
ATOM      6  C   UNL A   1      -2.376   6.127  48.793  0.00  0.00    +0.015 C 
ATOM      7  C   UNL A   1      -1.774   5.934  47.373  0.00  0.00    +0.038 C 
ATOM      8  C   UNL A   1      -2.764   4.117  45.669  0.00  0.00    +0.008 A 
ATOM      9  C   UNL A   1      -4.018   3.444  45.708  0.00  0.00    +0.075 A 
ATOM     10  C   UNL A   1      -4.271   2.427  44.726  0.00  0.00    +0.115 A 
ATOM     11  C   UNL A   1      -1.823   3.863  44.655  0.00  0.00    +0.048 A 
ATOM     12  C   UNL A   1      -3.296   2.216  43.720  0.00  0.00    +0.067 A 
ATOM     13  C   UNL A   1      -2.114   2.923  43.690  0.00  0.00    +0.126 A 
ENDROOT
BRANCH  10  14
ATOM     14  S   UNL A   1      -5.675   1.319  44.606  0.00  0.00    -0.004 S 
ATOM     15  O   UNL A   1      -5.414   0.427  43.496  0.00  0.00    -0.170 OA
ATOM     16  O   UNL A   1      -5.942   0.770  45.920  0.00  0.00    -0.170 OA
ATOM     17  C   UNL A   1      -7.053   2.365  44.212  0.00  0.00    +0.200 C 
ENDBRANCH  10  14
BRANCH   3  18
ATOM     18  C   UNL A   1      -4.354   5.037  49.998  0.00  0.00    +0.130 C 
BRANCH  18  20
ATOM     19  O   UNL A   1      -4.696   7.029  51.377  0.00  0.00    -0.251 OA
ATOM     20  C   UNL A   1      -4.167   5.949  51.178  0.00  0.00    +0.305 C 
BRANCH  20  21
ATOM     21  O   UNL A   1      -3.328   5.418  52.091  0.00  0.00    -0.481 OA
ATOM     22  H   UNL A   1      -3.801   5.519  52.946  0.00  0.00    +0.295 HD
ENDBRANCH  20  21
ENDBRANCH  18  20
ENDBRANCH   3  18
BRANCH   2  23
ATOM     23  C   UNL A   1      -6.125   3.771  47.203  0.00  0.00    +0.157 C 
BRANCH  23  25
ATOM     24 CL   UNL A   1     -10.139   8.009  45.588  0.00  0.00    -0.084 Cl
ATOM     25  C   UNL A   1      -7.132   4.836  46.823  0.00  0.00    -0.028 A 
ATOM     26  C   UNL A   1      -6.817   5.804  45.856  0.00  0.00    +0.007 A 
ATOM     27  C   UNL A   1      -8.434   4.854  47.347  0.00  0.00    +0.007 A 
ATOM     28  C   UNL A   1      -7.744   6.776  45.464  0.00  0.00    +0.020 A 
ATOM     29  C   UNL A   1      -9.354   5.841  46.985  0.00  0.00    +0.020 A 
ATOM     30  C   UNL A   1      -9.003   6.800  46.048  0.00  0.00    +0.041 A 
ENDBRANCH  23  25
ENDBRANCH   2  23
TORSDOF 6
