REMARK VINA RESULT:      -7.1     10.416     12.263
REMARK  Name = D0WL5V
REMARK  7 active torsions:
REMARK  status: ('A' for Active; 'I' for Inactive)
REMARK    1  A    between atoms: S_2  and  C_18
REMARK    2  A    between atoms: S_2  and  C_24
REMARK    3  A    between atoms: O_4  and  C_21
REMARK    4  A    between atoms: N_8  and  C_17
REMARK    5  A    between atoms: C_9  and  C_16
REMARK    6  A    between atoms: C_16  and  C_21
REMARK    7  A    between atoms: C_17  and  C_22
REMARK                            x       y       z     vdW  Elec       q    Type
REMARK                         _______ _______ _______ _____ _____    ______ ____
ROOT
ATOM      1  F   UNL A   1      -6.686   1.780  52.685  0.00  0.00    -0.205 F 
ATOM      2  N   UNL A   1      -4.338   5.141  48.953  0.00  0.00    -0.337 N 
ATOM      3  C   UNL A   1      -2.217   6.603  49.706  0.00  0.00    +0.047 C 
ATOM      4  C   UNL A   1      -3.379   5.658  49.795  0.00  0.00    +0.027 A 
ATOM      5  C   UNL A   1      -3.429   5.007  50.990  0.00  0.00    -0.018 A 
ATOM      6  C   UNL A   1      -1.781   6.670  51.224  0.00  0.00    +0.015 C 
ATOM      7  C   UNL A   1      -2.333   5.387  51.905  0.00  0.00    +0.038 C 
ATOM      8  C   UNL A   1      -4.530   4.153  50.990  0.00  0.00    +0.008 A 
ATOM      9  C   UNL A   1      -5.172   4.288  49.727  0.00  0.00    +0.075 A 
ATOM     10  C   UNL A   1      -6.408   3.589  49.517  0.00  0.00    +0.115 A 
ATOM     11  C   UNL A   1      -5.037   3.297  51.985  0.00  0.00    +0.048 A 
ATOM     12  C   UNL A   1      -6.871   2.732  50.546  0.00  0.00    +0.067 A 
ATOM     13  C   UNL A   1      -6.194   2.591  51.738  0.00  0.00    +0.126 A 
ENDROOT
BRANCH  10  14
ATOM     14  S   UNL A   1      -7.512   3.675  48.106  0.00  0.00    -0.004 S 
ATOM     15  O   UNL A   1      -8.838   3.349  48.589  0.00  0.00    -0.170 OA
ATOM     16  O   UNL A   1      -7.286   4.932  47.421  0.00  0.00    -0.170 OA
ATOM     17  C   UNL A   1      -6.953   2.399  47.008  0.00  0.00    +0.200 C 
ENDBRANCH  10  14
BRANCH   3  18
ATOM     18  C   UNL A   1      -2.525   7.994  49.164  0.00  0.00    +0.130 C 
BRANCH  18  20
ATOM     19  O   UNL A   1      -0.897   9.456  50.258  0.00  0.00    -0.251 OA
ATOM     20  C   UNL A   1      -2.041   9.066  50.100  0.00  0.00    +0.305 C 
BRANCH  20  21
ATOM     21  O   UNL A   1      -3.059   9.634  50.778  0.00  0.00    -0.481 OA
ATOM     22  H   UNL A   1      -2.623  10.259  51.396  0.00  0.00    +0.295 HD
ENDBRANCH  20  21
ENDBRANCH  18  20
ENDBRANCH   3  18
BRANCH   2  23
ATOM     23  C   UNL A   1      -4.473   5.519  47.541  0.00  0.00    +0.157 C 
BRANCH  23  25
ATOM     24 CL   UNL A   1      -1.405   2.206  43.504  0.00  0.00    -0.084 Cl
ATOM     25  C   UNL A   1      -3.693   4.681  46.551  0.00  0.00    -0.028 A 
ATOM     26  C   UNL A   1      -4.361   3.926  45.572  0.00  0.00    +0.007 A 
ATOM     27  C   UNL A   1      -2.290   4.685  46.510  0.00  0.00    +0.007 A 
ATOM     28  C   UNL A   1      -3.660   3.173  44.625  0.00  0.00    +0.020 A 
ATOM     29  C   UNL A   1      -1.583   3.909  45.587  0.00  0.00    +0.020 A 
ATOM     30  C   UNL A   1      -2.272   3.152  44.652  0.00  0.00    +0.041 A 
ENDBRANCH  23  25
ENDBRANCH   2  23
TORSDOF 6
