REMARK VINA RESULT:      -7.2     15.157     17.999
REMARK  Name = D0WL5V
REMARK  7 active torsions:
REMARK  status: ('A' for Active; 'I' for Inactive)
REMARK    1  A    between atoms: S_2  and  C_18
REMARK    2  A    between atoms: S_2  and  C_24
REMARK    3  A    between atoms: O_4  and  C_21
REMARK    4  A    between atoms: N_8  and  C_17
REMARK    5  A    between atoms: C_9  and  C_16
REMARK    6  A    between atoms: C_16  and  C_21
REMARK    7  A    between atoms: C_17  and  C_22
REMARK                            x       y       z     vdW  Elec       q    Type
REMARK                         _______ _______ _______ _____ _____    ______ ____
ROOT
ATOM      1  F   UNL A   1     -29.233  -7.410  53.138  0.00  0.00    -0.205 F 
ATOM      2  N   UNL A   1     -25.732  -3.386  51.625  0.00  0.00    -0.337 N 
ATOM      3  C   UNL A   1     -26.619  -0.853  51.623  0.00  0.00    +0.047 C 
ATOM      4  C   UNL A   1     -26.628  -2.348  51.751  0.00  0.00    +0.027 A 
ATOM      5  C   UNL A   1     -27.791  -2.818  52.279  0.00  0.00    -0.018 A 
ATOM      6  C   UNL A   1     -28.153  -0.536  51.836  0.00  0.00    +0.015 C 
ATOM      7  C   UNL A   1     -28.759  -1.748  52.596  0.00  0.00    +0.038 C 
ATOM      8  C   UNL A   1     -27.717  -4.207  52.365  0.00  0.00    +0.008 A 
ATOM      9  C   UNL A   1     -26.439  -4.594  51.873  0.00  0.00    +0.075 A 
ATOM     10  C   UNL A   1     -26.157  -5.997  51.751  0.00  0.00    +0.115 A 
ATOM     11  C   UNL A   1     -28.657  -5.159  52.803  0.00  0.00    +0.048 A 
ATOM     12  C   UNL A   1     -27.131  -6.915  52.214  0.00  0.00    +0.067 A 
ATOM     13  C   UNL A   1     -28.339  -6.497  52.731  0.00  0.00    +0.126 A 
ENDROOT
BRANCH  10  14
ATOM     14  S   UNL A   1     -24.713  -6.785  51.038  0.00  0.00    -0.004 S 
ATOM     15  O   UNL A   1     -24.571  -6.266  49.693  0.00  0.00    -0.170 OA
ATOM     16  O   UNL A   1     -23.613  -6.665  51.973  0.00  0.00    -0.170 OA
ATOM     17  C   UNL A   1     -25.121  -8.510  50.965  0.00  0.00    +0.200 C 
ENDBRANCH  10  14
BRANCH   3  18
ATOM     18  C   UNL A   1     -26.126  -0.298  50.292  0.00  0.00    +0.130 C 
BRANCH  18  20
ATOM     19  O   UNL A   1     -24.531   1.361  51.123  0.00  0.00    -0.251 OA
ATOM     20  C   UNL A   1     -24.795   0.385  50.442  0.00  0.00    +0.305 C 
BRANCH  20  21
ATOM     21  O   UNL A   1     -23.831  -0.240  49.736  0.00  0.00    -0.481 OA
ATOM     22  H   UNL A   1     -23.446  -0.886  50.368  0.00  0.00    +0.295 HD
ENDBRANCH  20  21
ENDBRANCH  18  20
ENDBRANCH   3  18
BRANCH   2  23
ATOM     23  C   UNL A   1     -24.333  -3.210  51.216  0.00  0.00    +0.157 C 
BRANCH  23  25
ATOM     24 CL   UNL A   1     -20.372  -1.691  55.538  0.00  0.00    -0.084 Cl
ATOM     25  C   UNL A   1     -23.360  -2.835  52.313  0.00  0.00    -0.028 A 
ATOM     26  C   UNL A   1     -22.082  -3.414  52.363  0.00  0.00    +0.007 A 
ATOM     27  C   UNL A   1     -23.653  -1.845  53.264  0.00  0.00    +0.007 A 
ATOM     28  C   UNL A   1     -21.155  -3.056  53.347  0.00  0.00    +0.020 A 
ATOM     29  C   UNL A   1     -22.744  -1.506  54.270  0.00  0.00    +0.020 A 
ATOM     30  C   UNL A   1     -21.500  -2.116  54.309  0.00  0.00    +0.041 A 
ENDBRANCH  23  25
ENDBRANCH   2  23
TORSDOF 6
