REMARK VINA RESULT:      -7.3      3.575      6.578
REMARK  Name = D0WL5V
REMARK  7 active torsions:
REMARK  status: ('A' for Active; 'I' for Inactive)
REMARK    1  A    between atoms: S_2  and  C_18
REMARK    2  A    between atoms: S_2  and  C_24
REMARK    3  A    between atoms: O_4  and  C_21
REMARK    4  A    between atoms: N_8  and  C_17
REMARK    5  A    between atoms: C_9  and  C_16
REMARK    6  A    between atoms: C_16  and  C_21
REMARK    7  A    between atoms: C_17  and  C_22
REMARK                            x       y       z     vdW  Elec       q    Type
REMARK                         _______ _______ _______ _____ _____    ______ ____
ROOT
ATOM      1  F   UNL A   1     -16.680  13.340  48.327  0.00  0.00    -0.205 F 
ATOM      2  N   UNL A   1     -14.144   8.955  46.072  0.00  0.00    -0.337 N 
ATOM      3  C   UNL A   1     -15.474   6.627  45.960  0.00  0.00    +0.047 C 
ATOM      4  C   UNL A   1     -15.171   8.062  46.278  0.00  0.00    +0.027 A 
ATOM      5  C   UNL A   1     -16.252   8.723  46.775  0.00  0.00    -0.018 A 
ATOM      6  C   UNL A   1     -16.855   6.451  46.708  0.00  0.00    +0.015 C 
ATOM      7  C   UNL A   1     -17.455   7.874  46.882  0.00  0.00    +0.038 C 
ATOM      8  C   UNL A   1     -15.888  10.043  47.040  0.00  0.00    +0.008 A 
ATOM      9  C   UNL A   1     -14.520  10.186  46.676  0.00  0.00    +0.075 A 
ATOM     10  C   UNL A   1     -13.871  11.435  46.960  0.00  0.00    +0.115 A 
ATOM     11  C   UNL A   1     -16.621  11.112  47.589  0.00  0.00    +0.048 A 
ATOM     12  C   UNL A   1     -14.654  12.484  47.503  0.00  0.00    +0.067 A 
ATOM     13  C   UNL A   1     -15.990  12.319  47.797  0.00  0.00    +0.126 A 
ENDROOT
BRANCH  10  14
ATOM     14  S   UNL A   1     -12.143  11.865  46.755  0.00  0.00    -0.004 S 
ATOM     15  O   UNL A   1     -11.375  10.884  47.494  0.00  0.00    -0.170 OA
ATOM     16  O   UNL A   1     -11.882  12.066  45.344  0.00  0.00    -0.170 OA
ATOM     17  C   UNL A   1     -11.970  13.454  47.527  0.00  0.00    +0.200 C 
ENDBRANCH  10  14
BRANCH   3  18
ATOM     18  C   UNL A   1     -14.454   5.604  46.447  0.00  0.00    +0.130 C 
BRANCH  18  20
ATOM     19  O   UNL A   1     -14.050   4.809  44.169  0.00  0.00    -0.251 OA
ATOM     20  C   UNL A   1     -14.117   4.611  45.369  0.00  0.00    +0.305 C 
BRANCH  20  21
ATOM     21  O   UNL A   1     -13.834   3.396  45.882  0.00  0.00    -0.481 OA
ATOM     22  H   UNL A   1     -12.884   3.448  46.124  0.00  0.00    +0.295 HD
ENDBRANCH  20  21
ENDBRANCH  18  20
ENDBRANCH   3  18
BRANCH   2  23
ATOM     23  C   UNL A   1     -12.877   8.605  45.418  0.00  0.00    +0.157 C 
BRANCH  23  25
ATOM     24 CL   UNL A   1     -12.849   8.893  39.368  0.00  0.00    -0.084 Cl
ATOM     25  C   UNL A   1     -12.859   8.700  43.907  0.00  0.00    -0.028 A 
ATOM     26  C   UNL A   1     -12.341   7.649  43.132  0.00  0.00    +0.007 A 
ATOM     27  C   UNL A   1     -13.427   9.783  43.220  0.00  0.00    +0.007 A 
ATOM     28  C   UNL A   1     -12.347   7.700  41.734  0.00  0.00    +0.020 A 
ATOM     29  C   UNL A   1     -13.407   9.855  41.824  0.00  0.00    +0.020 A 
ATOM     30  C   UNL A   1     -12.863   8.815  41.088  0.00  0.00    +0.041 A 
ENDBRANCH  23  25
ENDBRANCH   2  23
TORSDOF 6
