REMARK VINA RESULT:      -8.1      0.000      0.000
REMARK  Name = D06WTZ
REMARK  12 active torsions:
REMARK  status: ('A' for Active; 'I' for Inactive)
REMARK    1  A    between atoms: O_1  and  C_8
REMARK    2  A    between atoms: O_1  and  C_23
REMARK    3  A    between atoms: O_3  and  C_22
REMARK    4  A    between atoms: C_7  and  C_11
REMARK    5  A    between atoms: C_9  and  C_18
REMARK    6  A    between atoms: C_11  and  C_15
REMARK    7  A    between atoms: C_13  and  C_20
REMARK    8  A    between atoms: C_15  and  C_19
REMARK    9  A    between atoms: C_23  and  C_25
REMARK   10  A    between atoms: C_25  and  C_27
REMARK   11  A    between atoms: C_25  and  C_28
REMARK   12  A    between atoms: C_27  and  C_29
REMARK                            x       y       z     vdW  Elec       q    Type
REMARK                         _______ _______ _______ _____ _____    ______ ____
ROOT
ATOM      1  C   UNL A   1      -4.346   3.681  45.223  0.00  0.00    +0.063 C 
ATOM      2  C   UNL A   1      -5.327   3.190  46.325  0.00  0.00    +0.007 C 
ATOM      3  C   UNL A   1      -3.232   4.682  45.673  0.00  0.00    +0.185 C 
ATOM      4  C   UNL A   1      -6.475   2.376  45.661  0.00  0.00    +0.012 C 
ATOM      5  C   UNL A   1      -3.811   2.465  44.451  0.00  0.00    -0.044 C 
ATOM      6  C   UNL A   1      -1.889   3.998  45.811  0.00  0.00    +0.052 C 
ATOM      7  C   UNL A   1      -1.493   3.351  44.489  0.00  0.00    +0.012 C 
ATOM      8  C   UNL A   1      -2.532   2.346  44.081  0.00  0.00    -0.020 C 
ATOM      9  C   UNL A   1      -5.963   1.336  44.707  0.00  0.00    -0.023 C 
ATOM     10  C   UNL A   1      -4.754   1.388  44.154  0.00  0.00    -0.000 C 
ATOM     11  C   UNL A   1      -7.456   3.282  44.892  0.00  0.00    +0.012 C 
ATOM     12  C   UNL A   1      -0.125   2.703  44.647  0.00  0.00    +0.012 C 
ENDROOT
BRANCH   3  13
ATOM     13  O   UNL A   1      -3.485   5.287  46.956  0.00  0.00    -0.461 OA
BRANCH  13  15
ATOM     14  O   UNL A   1      -3.224   7.404  46.175  0.00  0.00    -0.251 OA
ATOM     15  C   UNL A   1      -3.234   6.600  47.106  0.00  0.00    +0.310 C 
BRANCH  15  16
ATOM     16  C   UNL A   1      -3.027   6.995  48.563  0.00  0.00    +0.094 C 
ATOM     17  C   UNL A   1      -1.926   6.165  49.218  0.00  0.00    +0.019 C 
BRANCH  16  18
ATOM     18  C   UNL A   1      -2.681   8.496  48.576  0.00  0.00    +0.011 C 
ATOM     19  C   UNL A   1      -2.416   9.054  49.960  0.00  0.00    +0.004 C 
ENDBRANCH  16  18
ENDBRANCH  15  16
ENDBRANCH  13  15
ENDBRANCH   3  13
BRANCH   2  20
ATOM     20  C   UNL A   1      -5.908   4.329  47.174  0.00  0.00    +0.008 C 
BRANCH  20  21
ATOM     21  C   UNL A   1      -6.701   3.883  48.385  0.00  0.00    +0.045 C 
BRANCH  21  24
ATOM     22  O   UNL A   1      -5.677   4.981  50.275  0.00  0.00    -0.461 OA
ATOM     23  O   UNL A   1      -4.250   5.876  51.784  0.00  0.00    -0.251 OA
ATOM     24  C   UNL A   1      -5.776   3.725  49.579  0.00  0.00    +0.179 C 
ATOM     25  C   UNL A   1      -6.347   2.641  50.468  0.00  0.00    +0.076 C 
ATOM     26  C   UNL A   1      -5.467   2.524  51.687  0.00  0.00    +0.129 C 
ATOM     27  C   UNL A   1      -5.404   3.863  52.394  0.00  0.00    +0.152 C 
ATOM     28  C   UNL A   1      -5.003   4.968  51.454  0.00  0.00    +0.310 C 
BRANCH  26  29
ATOM     29  O   UNL A   1      -4.169   2.105  51.271  0.00  0.00    -0.391 OA
ATOM     30  H   UNL A   1      -3.606   2.012  52.058  0.00  0.00    +0.210 HD
ENDBRANCH  26  29
ENDBRANCH  21  24
ENDBRANCH  20  21
ENDBRANCH   2  20
TORSDOF 8
