REMARK VINA RESULT:      -8.2      0.872      1.485
REMARK  Name = D0G1WL
REMARK  11 active torsions:
REMARK  status: ('A' for Active; 'I' for Inactive)
REMARK    1  A    between atoms: O_2  and  C_20
REMARK    2  A    between atoms: O_3  and  C_22
REMARK    3  A    between atoms: O_4  and  C_31
REMARK    4  A    between atoms: C_7  and  C_10
REMARK    5  A    between atoms: C_11  and  C_15
REMARK    6  A    between atoms: C_12  and  C_16
REMARK    7  A    between atoms: C_17  and  C_20
REMARK    8  A    between atoms: C_20  and  C_21
REMARK    9  A    between atoms: C_21  and  C_22
REMARK   10  A    between atoms: C_22  and  C_27
REMARK   11  A    between atoms: C_27  and  C_31
REMARK                            x       y       z     vdW  Elec       q    Type
REMARK                         _______ _______ _______ _____ _____    ______ ____
ROOT
ATOM      1  N   UNL A   1     -16.042   6.478  46.602  0.00  0.00    -0.251 NA
ATOM      2  C   UNL A   1     -15.064   6.564  45.667  0.00  0.00    +0.053 A 
ATOM      3  C   UNL A   1     -14.312   7.747  45.513  0.00  0.00    +0.005 A 
ATOM      4  C   UNL A   1     -14.577   8.855  46.367  0.00  0.00    +0.000 A 
ATOM      5  C   UNL A   1     -16.297   7.513  47.414  0.00  0.00    +0.072 A 
ATOM      6  C   UNL A   1     -15.595   8.731  47.350  0.00  0.00    +0.009 A 
ATOM      7  C   UNL A   1     -17.304   7.356  48.355  0.00  0.00    +0.028 A 
ATOM      8  C   UNL A   1     -15.942   9.749  48.280  0.00  0.00    +0.010 A 
ATOM      9  C   UNL A   1     -17.646   8.370  49.251  0.00  0.00    +0.002 A 
ATOM     10  C   UNL A   1     -16.960   9.573  49.212  0.00  0.00    +0.001 A 
ENDROOT
BRANCH   4  12
ATOM     11  F   UNL A   1     -11.596  13.583  45.711  0.00  0.00    -0.205 F 
ATOM     12  C   UNL A   1     -13.807  10.119  46.228  0.00  0.00    -0.017 A 
ATOM     13  C   UNL A   1     -14.207  11.101  45.300  0.00  0.00    +0.011 A 
ATOM     14  C   UNL A   1     -12.643  10.350  46.983  0.00  0.00    +0.011 A 
ATOM     15  C   UNL A   1     -13.466  12.273  45.132  0.00  0.00    +0.039 A 
ATOM     16  C   UNL A   1     -11.894  11.515  46.805  0.00  0.00    +0.039 A 
ATOM     17  C   UNL A   1     -12.314  12.466  45.884  0.00  0.00    +0.123 A 
ENDBRANCH   4  12
BRANCH   2  18
ATOM     18  C   UNL A   1     -14.822   5.328  44.797  0.00  0.00    +0.038 C 
ATOM     19  C   UNL A   1     -14.208   4.098  45.427  0.00  0.00    +0.010 C 
ATOM     20  C   UNL A   1     -15.637   4.068  44.976  0.00  0.00    +0.010 C 
ENDBRANCH   2  18
BRANCH   3  21
ATOM     21  C   UNL A   1     -13.247   7.785  44.492  0.00  0.00    +0.008 C 
ATOM     22  C   UNL A   1     -13.459   7.541  43.187  0.00  0.00    +0.005 C 
BRANCH  22  23
ATOM     23  C   UNL A   1     -12.430   7.639  42.096  0.00  0.00    +0.140 C 
BRANCH  23  24
ATOM     24  O   UNL A   1     -11.660   6.448  42.071  0.00  0.00    -0.388 OA
ATOM     25  H   UNL A   1     -11.053   6.503  41.316  0.00  0.00    +0.210 HD
ENDBRANCH  23  24
BRANCH  23  26
ATOM     26  C   UNL A   1     -13.106   7.925  40.744  0.00  0.00    +0.067 C 
BRANCH  26  27
ATOM     27  C   UNL A   1     -12.419   9.038  39.938  0.00  0.00    +0.128 C 
BRANCH  27  28
ATOM     28  O   UNL A   1     -12.738   8.884  38.554  0.00  0.00    -0.391 OA
ATOM     29  H   UNL A   1     -12.649   7.951  38.305  0.00  0.00    +0.210 HD
ENDBRANCH  27  28
BRANCH  27  30
ATOM     30  C   UNL A   1     -12.899  10.413  40.407  0.00  0.00    +0.151 C 
BRANCH  30  32
ATOM     31  O   UNL A   1     -12.395  12.081  38.680  0.00  0.00    -0.251 OA
ATOM     32  C   UNL A   1     -13.171  11.338  39.251  0.00  0.00    +0.307 C 
BRANCH  32  33
ATOM     33  O   UNL A   1     -14.476  11.325  38.906  0.00  0.00    -0.481 OA
ATOM     34  H   UNL A   1     -14.506  11.882  38.100  0.00  0.00    +0.295 HD
ENDBRANCH  32  33
ENDBRANCH  30  32
ENDBRANCH  27  30
ENDBRANCH  26  27
ENDBRANCH  23  26
ENDBRANCH  22  23
ENDBRANCH   3  21
TORSDOF 11
