MODEL 1
REMARK VINA RESULT:      -8.2      0.000      0.000
REMARK  Name = D0G1WL
REMARK  11 active torsions:
REMARK  status: ('A' for Active; 'I' for Inactive)
REMARK    1  A    between atoms: O_2  and  C_20
REMARK    2  A    between atoms: O_3  and  C_22
REMARK    3  A    between atoms: O_4  and  C_31
REMARK    4  A    between atoms: C_7  and  C_10
REMARK    5  A    between atoms: C_11  and  C_15
REMARK    6  A    between atoms: C_12  and  C_16
REMARK    7  A    between atoms: C_17  and  C_20
REMARK    8  A    between atoms: C_20  and  C_21
REMARK    9  A    between atoms: C_21  and  C_22
REMARK   10  A    between atoms: C_22  and  C_27
REMARK   11  A    between atoms: C_27  and  C_31
REMARK                            x       y       z     vdW  Elec       q    Type
REMARK                         _______ _______ _______ _____ _____    ______ ____
ROOT
ATOM      1  N   UNL A   1     -16.028   6.472  46.491  0.00  0.00    -0.251 NA
ATOM      2  C   UNL A   1     -15.062   6.549  45.541  0.00  0.00    +0.053 A 
ATOM      3  C   UNL A   1     -14.289   7.718  45.389  0.00  0.00    +0.005 A 
ATOM      4  C   UNL A   1     -14.516   8.820  46.260  0.00  0.00    +0.000 A 
ATOM      5  C   UNL A   1     -16.248   7.501  47.319  0.00  0.00    +0.072 A 
ATOM      6  C   UNL A   1     -15.520   8.706  47.259  0.00  0.00    +0.009 A 
ATOM      7  C   UNL A   1     -17.242   7.354  48.274  0.00  0.00    +0.028 A 
ATOM      8  C   UNL A   1     -15.831   9.719  48.206  0.00  0.00    +0.010 A 
ATOM      9  C   UNL A   1     -17.548   8.364  49.188  0.00  0.00    +0.002 A 
ATOM     10  C   UNL A   1     -16.838   9.552  49.153  0.00  0.00    +0.001 A 
ENDROOT
BRANCH   4  12
ATOM     11  F   UNL A   1     -11.571  13.601  45.884  0.00  0.00    -0.205 F 
ATOM     12  C   UNL A   1     -13.722  10.070  46.124  0.00  0.00    -0.017 A 
ATOM     13  C   UNL A   1     -12.527  10.239  46.851  0.00  0.00    +0.011 A 
ATOM     14  C   UNL A   1     -14.162  11.126  45.306  0.00  0.00    +0.011 A 
ATOM     15  C   UNL A   1     -11.797  11.427  46.762  0.00  0.00    +0.039 A 
ATOM     16  C   UNL A   1     -13.440  12.320  45.229  0.00  0.00    +0.039 A 
ATOM     17  C   UNL A   1     -12.264  12.457  45.956  0.00  0.00    +0.123 A 
ENDBRANCH   4  12
BRANCH   2  18
ATOM     18  C   UNL A   1     -14.861   5.319  44.653  0.00  0.00    +0.038 C 
ATOM     19  C   UNL A   1     -14.238   4.078  45.251  0.00  0.00    +0.010 C 
ATOM     20  C   UNL A   1     -15.682   4.064  44.847  0.00  0.00    +0.010 C 
ENDBRANCH   2  18
BRANCH   3  21
ATOM     21  C   UNL A   1     -13.239   7.746  44.351  0.00  0.00    +0.008 C 
ATOM     22  C   UNL A   1     -13.472   8.074  43.068  0.00  0.00    +0.005 C 
BRANCH  22  23
ATOM     23  C   UNL A   1     -12.432   8.192  41.989  0.00  0.00    +0.140 C 
BRANCH  23  24
ATOM     24  O   UNL A   1     -12.889   7.524  40.825  0.00  0.00    -0.388 OA
ATOM     25  H   UNL A   1     -12.172   6.948  40.513  0.00  0.00    +0.210 HD
ENDBRANCH  23  24
BRANCH  23  26
ATOM     26  C   UNL A   1     -12.100   9.670  41.723  0.00  0.00    +0.067 C 
BRANCH  26  27
ATOM     27  C   UNL A   1     -13.340  10.578  41.675  0.00  0.00    +0.128 C 
BRANCH  27  28
ATOM     28  O   UNL A   1     -12.957  11.917  41.992  0.00  0.00    -0.391 OA
ATOM     29  H   UNL A   1     -12.339  12.242  41.318  0.00  0.00    +0.210 HD
ENDBRANCH  27  28
BRANCH  27  30
ATOM     30  C   UNL A   1     -13.965  10.557  40.279  0.00  0.00    +0.151 C 
BRANCH  30  32
ATOM     31  O   UNL A   1     -12.394  11.866  38.924  0.00  0.00    -0.251 OA
ATOM     32  C   UNL A   1     -12.946  10.818  39.203  0.00  0.00    +0.307 C 
BRANCH  32  33
ATOM     33  O   UNL A   1     -12.716   9.712  38.463  0.00  0.00    -0.481 OA
ATOM     34  H   UNL A   1     -13.445   9.718  37.808  0.00  0.00    +0.295 HD
ENDBRANCH  32  33
ENDBRANCH  30  32
ENDBRANCH  27  30
ENDBRANCH  26  27
ENDBRANCH  23  26
ENDBRANCH  22  23
ENDBRANCH   3  21
TORSDOF 11
ENDMDL
MODEL 2
REMARK VINA RESULT:      -8.2      0.872      1.485
REMARK  Name = D0G1WL
REMARK  11 active torsions:
REMARK  status: ('A' for Active; 'I' for Inactive)
REMARK    1  A    between atoms: O_2  and  C_20
REMARK    2  A    between atoms: O_3  and  C_22
REMARK    3  A    between atoms: O_4  and  C_31
REMARK    4  A    between atoms: C_7  and  C_10
REMARK    5  A    between atoms: C_11  and  C_15
REMARK    6  A    between atoms: C_12  and  C_16
REMARK    7  A    between atoms: C_17  and  C_20
REMARK    8  A    between atoms: C_20  and  C_21
REMARK    9  A    between atoms: C_21  and  C_22
REMARK   10  A    between atoms: C_22  and  C_27
REMARK   11  A    between atoms: C_27  and  C_31
REMARK                            x       y       z     vdW  Elec       q    Type
REMARK                         _______ _______ _______ _____ _____    ______ ____
ROOT
ATOM      1  N   UNL A   1     -16.042   6.478  46.602  0.00  0.00    -0.251 NA
ATOM      2  C   UNL A   1     -15.064   6.564  45.667  0.00  0.00    +0.053 A 
ATOM      3  C   UNL A   1     -14.312   7.747  45.513  0.00  0.00    +0.005 A 
ATOM      4  C   UNL A   1     -14.577   8.855  46.367  0.00  0.00    +0.000 A 
ATOM      5  C   UNL A   1     -16.297   7.513  47.414  0.00  0.00    +0.072 A 
ATOM      6  C   UNL A   1     -15.595   8.731  47.350  0.00  0.00    +0.009 A 
ATOM      7  C   UNL A   1     -17.304   7.356  48.355  0.00  0.00    +0.028 A 
ATOM      8  C   UNL A   1     -15.942   9.749  48.280  0.00  0.00    +0.010 A 
ATOM      9  C   UNL A   1     -17.646   8.370  49.251  0.00  0.00    +0.002 A 
ATOM     10  C   UNL A   1     -16.960   9.573  49.212  0.00  0.00    +0.001 A 
ENDROOT
BRANCH   4  12
ATOM     11  F   UNL A   1     -11.596  13.583  45.711  0.00  0.00    -0.205 F 
ATOM     12  C   UNL A   1     -13.807  10.119  46.228  0.00  0.00    -0.017 A 
ATOM     13  C   UNL A   1     -14.207  11.101  45.300  0.00  0.00    +0.011 A 
ATOM     14  C   UNL A   1     -12.643  10.350  46.983  0.00  0.00    +0.011 A 
ATOM     15  C   UNL A   1     -13.466  12.273  45.132  0.00  0.00    +0.039 A 
ATOM     16  C   UNL A   1     -11.894  11.515  46.805  0.00  0.00    +0.039 A 
ATOM     17  C   UNL A   1     -12.314  12.466  45.884  0.00  0.00    +0.123 A 
ENDBRANCH   4  12
BRANCH   2  18
ATOM     18  C   UNL A   1     -14.822   5.328  44.797  0.00  0.00    +0.038 C 
ATOM     19  C   UNL A   1     -14.208   4.098  45.427  0.00  0.00    +0.010 C 
ATOM     20  C   UNL A   1     -15.637   4.068  44.976  0.00  0.00    +0.010 C 
ENDBRANCH   2  18
BRANCH   3  21
ATOM     21  C   UNL A   1     -13.247   7.785  44.492  0.00  0.00    +0.008 C 
ATOM     22  C   UNL A   1     -13.459   7.541  43.187  0.00  0.00    +0.005 C 
BRANCH  22  23
ATOM     23  C   UNL A   1     -12.430   7.639  42.096  0.00  0.00    +0.140 C 
BRANCH  23  24
ATOM     24  O   UNL A   1     -11.660   6.448  42.071  0.00  0.00    -0.388 OA
ATOM     25  H   UNL A   1     -11.053   6.503  41.316  0.00  0.00    +0.210 HD
ENDBRANCH  23  24
BRANCH  23  26
ATOM     26  C   UNL A   1     -13.106   7.925  40.744  0.00  0.00    +0.067 C 
BRANCH  26  27
ATOM     27  C   UNL A   1     -12.419   9.038  39.938  0.00  0.00    +0.128 C 
BRANCH  27  28
ATOM     28  O   UNL A   1     -12.738   8.884  38.554  0.00  0.00    -0.391 OA
ATOM     29  H   UNL A   1     -12.649   7.951  38.305  0.00  0.00    +0.210 HD
ENDBRANCH  27  28
BRANCH  27  30
ATOM     30  C   UNL A   1     -12.899  10.413  40.407  0.00  0.00    +0.151 C 
BRANCH  30  32
ATOM     31  O   UNL A   1     -12.395  12.081  38.680  0.00  0.00    -0.251 OA
ATOM     32  C   UNL A   1     -13.171  11.338  39.251  0.00  0.00    +0.307 C 
BRANCH  32  33
ATOM     33  O   UNL A   1     -14.476  11.325  38.906  0.00  0.00    -0.481 OA
ATOM     34  H   UNL A   1     -14.506  11.882  38.100  0.00  0.00    +0.295 HD
ENDBRANCH  32  33
ENDBRANCH  30  32
ENDBRANCH  27  30
ENDBRANCH  26  27
ENDBRANCH  23  26
ENDBRANCH  22  23
ENDBRANCH   3  21
TORSDOF 11
ENDMDL
MODEL 3
REMARK VINA RESULT:      -7.6      3.638      6.693
REMARK  Name = D0G1WL
REMARK  11 active torsions:
REMARK  status: ('A' for Active; 'I' for Inactive)
REMARK    1  A    between atoms: O_2  and  C_20
REMARK    2  A    between atoms: O_3  and  C_22
REMARK    3  A    between atoms: O_4  and  C_31
REMARK    4  A    between atoms: C_7  and  C_10
REMARK    5  A    between atoms: C_11  and  C_15
REMARK    6  A    between atoms: C_12  and  C_16
REMARK    7  A    between atoms: C_17  and  C_20
REMARK    8  A    between atoms: C_20  and  C_21
REMARK    9  A    between atoms: C_21  and  C_22
REMARK   10  A    between atoms: C_22  and  C_27
REMARK   11  A    between atoms: C_27  and  C_31
REMARK                            x       y       z     vdW  Elec       q    Type
REMARK                         _______ _______ _______ _____ _____    ______ ____
ROOT
ATOM      1  N   UNL A   1     -13.676   6.754  42.641  0.00  0.00    -0.251 NA
ATOM      2  C   UNL A   1     -13.822   6.688  43.988  0.00  0.00    +0.053 A 
ATOM      3  C   UNL A   1     -13.600   7.823  44.796  0.00  0.00    +0.005 A 
ATOM      4  C   UNL A   1     -13.239   9.054  44.181  0.00  0.00    +0.000 A 
ATOM      5  C   UNL A   1     -13.341   7.909  42.051  0.00  0.00    +0.072 A 
ATOM      6  C   UNL A   1     -13.112   9.100  42.766  0.00  0.00    +0.009 A 
ATOM      7  C   UNL A   1     -13.218   7.910  40.669  0.00  0.00    +0.028 A 
ATOM      8  C   UNL A   1     -12.782  10.268  42.026  0.00  0.00    +0.010 A 
ATOM      9  C   UNL A   1     -12.877   9.061  39.957  0.00  0.00    +0.002 A 
ATOM     10  C   UNL A   1     -12.658  10.246  40.640  0.00  0.00    +0.001 A 
ENDROOT
BRANCH   4  12
ATOM     11  F   UNL A   1     -12.318  13.561  47.422  0.00  0.00    -0.205 F 
ATOM     12  C   UNL A   1     -12.992  10.269  45.003  0.00  0.00    -0.017 A 
ATOM     13  C   UNL A   1     -11.722  10.504  45.566  0.00  0.00    +0.011 A 
ATOM     14  C   UNL A   1     -14.024  11.185  45.275  0.00  0.00    +0.011 A 
ATOM     15  C   UNL A   1     -11.493  11.620  46.374  0.00  0.00    +0.039 A 
ATOM     16  C   UNL A   1     -13.798  12.293  46.095  0.00  0.00    +0.039 A 
ATOM     17  C   UNL A   1     -12.535  12.501  46.635  0.00  0.00    +0.123 A 
ENDBRANCH   4  12
BRANCH   2  18
ATOM     18  C   UNL A   1     -14.231   5.337  44.579  0.00  0.00    +0.038 C 
ATOM     19  C   UNL A   1     -15.652   4.856  44.393  0.00  0.00    +0.010 C 
ATOM     20  C   UNL A   1     -14.531   4.149  43.693  0.00  0.00    +0.010 C 
ENDBRANCH   2  18
BRANCH   3  21
ATOM     21  C   UNL A   1     -13.787   7.704  46.255  0.00  0.00    +0.008 C 
ATOM     22  C   UNL A   1     -14.896   8.112  46.898  0.00  0.00    +0.005 C 
BRANCH  22  23
ATOM     23  C   UNL A   1     -15.171   7.948  48.366  0.00  0.00    +0.140 C 
BRANCH  23  24
ATOM     24  O   UNL A   1     -15.529   9.204  48.918  0.00  0.00    -0.388 OA
ATOM     25  H   UNL A   1     -15.418   9.148  49.881  0.00  0.00    +0.210 HD
ENDBRANCH  23  24
BRANCH  23  26
ATOM     26  C   UNL A   1     -16.254   6.879  48.593  0.00  0.00    +0.067 C 
BRANCH  26  27
ATOM     27  C   UNL A   1     -17.531   7.117  47.771  0.00  0.00    +0.128 C 
BRANCH  27  28
ATOM     28  O   UNL A   1     -17.698   6.049  46.838  0.00  0.00    -0.391 OA
ATOM     29  H   UNL A   1     -17.419   6.345  45.957  0.00  0.00    +0.210 HD
ENDBRANCH  27  28
BRANCH  27  30
ATOM     30  C   UNL A   1     -18.755   7.170  48.688  0.00  0.00    +0.151 C 
BRANCH  30  32
ATOM     31  O   UNL A   1     -20.239   5.218  48.605  0.00  0.00    -0.251 OA
ATOM     32  C   UNL A   1     -19.874   6.300  48.183  0.00  0.00    +0.307 C 
BRANCH  32  33
ATOM     33  O   UNL A   1     -20.455   6.831  47.086  0.00  0.00    -0.481 OA
ATOM     34  H   UNL A   1     -20.593   7.770  47.331  0.00  0.00    +0.295 HD
ENDBRANCH  32  33
ENDBRANCH  30  32
ENDBRANCH  27  30
ENDBRANCH  26  27
ENDBRANCH  23  26
ENDBRANCH  22  23
ENDBRANCH   3  21
TORSDOF 11
ENDMDL
MODEL 4
REMARK VINA RESULT:      -7.5      2.564      4.742
REMARK  Name = D0G1WL
REMARK  11 active torsions:
REMARK  status: ('A' for Active; 'I' for Inactive)
REMARK    1  A    between atoms: O_2  and  C_20
REMARK    2  A    between atoms: O_3  and  C_22
REMARK    3  A    between atoms: O_4  and  C_31
REMARK    4  A    between atoms: C_7  and  C_10
REMARK    5  A    between atoms: C_11  and  C_15
REMARK    6  A    between atoms: C_12  and  C_16
REMARK    7  A    between atoms: C_17  and  C_20
REMARK    8  A    between atoms: C_20  and  C_21
REMARK    9  A    between atoms: C_21  and  C_22
REMARK   10  A    between atoms: C_22  and  C_27
REMARK   11  A    between atoms: C_27  and  C_31
REMARK                            x       y       z     vdW  Elec       q    Type
REMARK                         _______ _______ _______ _____ _____    ______ ____
ROOT
ATOM      1  N   UNL A   1     -16.575   9.515  48.831  0.00  0.00    -0.251 NA
ATOM      2  C   UNL A   1     -15.538   9.726  47.984  0.00  0.00    +0.053 A 
ATOM      3  C   UNL A   1     -15.099   8.711  47.109  0.00  0.00    +0.005 A 
ATOM      4  C   UNL A   1     -15.771   7.457  47.108  0.00  0.00    +0.000 A 
ATOM      5  C   UNL A   1     -17.218   8.339  48.836  0.00  0.00    +0.072 A 
ATOM      6  C   UNL A   1     -16.867   7.268  47.993  0.00  0.00    +0.009 A 
ATOM      7  C   UNL A   1     -18.277   8.191  49.720  0.00  0.00    +0.028 A 
ATOM      8  C   UNL A   1     -17.638   6.076  48.075  0.00  0.00    +0.010 A 
ATOM      9  C   UNL A   1     -19.015   7.010  49.801  0.00  0.00    +0.002 A 
ATOM     10  C   UNL A   1     -18.693   5.946  48.974  0.00  0.00    +0.001 A 
ENDROOT
BRANCH   4  12
ATOM     11  F   UNL A   1     -13.977   3.398  43.647  0.00  0.00    -0.205 F 
ATOM     12  C   UNL A   1     -15.331   6.362  46.203  0.00  0.00    -0.017 A 
ATOM     13  C   UNL A   1     -14.332   5.456  46.611  0.00  0.00    +0.011 A 
ATOM     14  C   UNL A   1     -15.865   6.228  44.909  0.00  0.00    +0.011 A 
ATOM     15  C   UNL A   1     -13.883   4.450  45.752  0.00  0.00    +0.039 A 
ATOM     16  C   UNL A   1     -15.404   5.232  44.044  0.00  0.00    +0.039 A 
ATOM     17  C   UNL A   1     -14.420   4.352  44.475  0.00  0.00    +0.123 A 
ENDBRANCH   4  12
BRANCH   2  18
ATOM     18  C   UNL A   1     -14.876  11.105  48.026  0.00  0.00    +0.038 C 
ATOM     19  C   UNL A   1     -15.397  12.197  47.118  0.00  0.00    +0.010 C 
ATOM     20  C   UNL A   1     -15.592  12.306  48.601  0.00  0.00    +0.010 C 
ENDBRANCH   2  18
BRANCH   3  21
ATOM     21  C   UNL A   1     -13.976   8.997  46.194  0.00  0.00    +0.008 C 
ATOM     22  C   UNL A   1     -14.135   9.513  44.963  0.00  0.00    +0.005 C 
BRANCH  22  23
ATOM     23  C   UNL A   1     -13.027   9.893  44.021  0.00  0.00    +0.140 C 
BRANCH  23  24
ATOM     24  O   UNL A   1     -11.825   9.263  44.434  0.00  0.00    -0.388 OA
ATOM     25  H   UNL A   1     -11.972   8.895  45.320  0.00  0.00    +0.210 HD
ENDBRANCH  23  24
BRANCH  23  26
ATOM     26  C   UNL A   1     -13.407   9.536  42.574  0.00  0.00    +0.067 C 
BRANCH  26  27
ATOM     27  C   UNL A   1     -13.003  10.610  41.551  0.00  0.00    +0.128 C 
BRANCH  27  28
ATOM     28  O   UNL A   1     -11.584  10.604  41.395  0.00  0.00    -0.391 OA
ATOM     29  H   UNL A   1     -11.179  10.146  42.148  0.00  0.00    +0.210 HD
ENDBRANCH  27  28
BRANCH  27  30
ATOM     30  C   UNL A   1     -13.652  10.327  40.194  0.00  0.00    +0.151 C 
BRANCH  30  32
ATOM     31  O   UNL A   1     -12.375  11.944  38.862  0.00  0.00    -0.251 OA
ATOM     32  C   UNL A   1     -12.805  10.821  39.053  0.00  0.00    +0.307 C 
BRANCH  32  33
ATOM     33  O   UNL A   1     -12.592   9.850  38.140  0.00  0.00    -0.481 OA
ATOM     34  H   UNL A   1     -12.401  10.346  37.316  0.00  0.00    +0.295 HD
ENDBRANCH  32  33
ENDBRANCH  30  32
ENDBRANCH  27  30
ENDBRANCH  26  27
ENDBRANCH  23  26
ENDBRANCH  22  23
ENDBRANCH   3  21
TORSDOF 11
ENDMDL
MODEL 5
REMARK VINA RESULT:      -7.5      2.396      4.710
REMARK  Name = D0G1WL
REMARK  11 active torsions:
REMARK  status: ('A' for Active; 'I' for Inactive)
REMARK    1  A    between atoms: O_2  and  C_20
REMARK    2  A    between atoms: O_3  and  C_22
REMARK    3  A    between atoms: O_4  and  C_31
REMARK    4  A    between atoms: C_7  and  C_10
REMARK    5  A    between atoms: C_11  and  C_15
REMARK    6  A    between atoms: C_12  and  C_16
REMARK    7  A    between atoms: C_17  and  C_20
REMARK    8  A    between atoms: C_20  and  C_21
REMARK    9  A    between atoms: C_21  and  C_22
REMARK   10  A    between atoms: C_22  and  C_27
REMARK   11  A    between atoms: C_27  and  C_31
REMARK                            x       y       z     vdW  Elec       q    Type
REMARK                         _______ _______ _______ _____ _____    ______ ____
ROOT
ATOM      1  N   UNL A   1     -14.235  10.738  47.831  0.00  0.00    -0.251 NA
ATOM      2  C   UNL A   1     -13.505  10.248  46.798  0.00  0.00    +0.053 A 
ATOM      3  C   UNL A   1     -13.803   8.991  46.234  0.00  0.00    +0.005 A 
ATOM      4  C   UNL A   1     -14.898   8.240  46.746  0.00  0.00    +0.000 A 
ATOM      5  C   UNL A   1     -15.271  10.042  48.319  0.00  0.00    +0.072 A 
ATOM      6  C   UNL A   1     -15.658   8.785  47.816  0.00  0.00    +0.009 A 
ATOM      7  C   UNL A   1     -15.983  10.603  49.369  0.00  0.00    +0.028 A 
ATOM      8  C   UNL A   1     -16.788   8.152  48.403  0.00  0.00    +0.010 A 
ATOM      9  C   UNL A   1     -17.080   9.963  49.946  0.00  0.00    +0.002 A 
ATOM     10  C   UNL A   1     -17.485   8.731  49.460  0.00  0.00    +0.001 A 
ENDROOT
BRANCH   4  12
ATOM     11  F   UNL A   1     -16.306   3.195  44.688  0.00  0.00    -0.205 F 
ATOM     12  C   UNL A   1     -15.236   6.909  46.178  0.00  0.00    -0.017 A 
ATOM     13  C   UNL A   1     -16.239   6.785  45.196  0.00  0.00    +0.011 A 
ATOM     14  C   UNL A   1     -14.599   5.740  46.632  0.00  0.00    +0.011 A 
ATOM     15  C   UNL A   1     -16.593   5.533  44.687  0.00  0.00    +0.039 A 
ATOM     16  C   UNL A   1     -14.963   4.487  46.134  0.00  0.00    +0.039 A 
ATOM     17  C   UNL A   1     -15.955   4.396  45.165  0.00  0.00    +0.123 A 
ENDBRANCH   4  12
BRANCH   2  18
ATOM     18  C   UNL A   1     -12.355  11.118  46.286  0.00  0.00    +0.038 C 
ATOM     19  C   UNL A   1     -12.662  12.253  45.335  0.00  0.00    +0.010 C 
ATOM     20  C   UNL A   1     -12.198  12.556  46.728  0.00  0.00    +0.010 C 
ENDBRANCH   2  18
BRANCH   3  21
ATOM     21  C   UNL A   1     -12.988   8.510  45.100  0.00  0.00    +0.008 C 
ATOM     22  C   UNL A   1     -13.352   8.648  43.813  0.00  0.00    +0.005 C 
BRANCH  22  23
ATOM     23  C   UNL A   1     -12.530   8.247  42.620  0.00  0.00    +0.140 C 
BRANCH  23  24
ATOM     24  O   UNL A   1     -13.226   7.254  41.886  0.00  0.00    -0.388 OA
ATOM     25  H   UNL A   1     -14.109   7.600  41.682  0.00  0.00    +0.210 HD
ENDBRANCH  23  24
BRANCH  23  26
ATOM     26  C   UNL A   1     -12.191   9.478  41.763  0.00  0.00    +0.067 C 
BRANCH  26  27
ATOM     27  C   UNL A   1     -13.349  10.483  41.649  0.00  0.00    +0.128 C 
BRANCH  27  28
ATOM     28  O   UNL A   1     -12.880  11.786  41.997  0.00  0.00    -0.391 OA
ATOM     29  H   UNL A   1     -11.999  11.715  42.398  0.00  0.00    +0.210 HD
ENDBRANCH  27  28
BRANCH  27  30
ATOM     30  C   UNL A   1     -13.889  10.517  40.217  0.00  0.00    +0.151 C 
BRANCH  30  32
ATOM     31  O   UNL A   1     -12.246  11.976  39.126  0.00  0.00    -0.251 OA
ATOM     32  C   UNL A   1     -12.829  10.911  39.226  0.00  0.00    +0.307 C 
BRANCH  32  33
ATOM     33  O   UNL A   1     -12.595   9.924  38.334  0.00  0.00    -0.481 OA
ATOM     34  H   UNL A   1     -13.469   9.491  38.237  0.00  0.00    +0.295 HD
ENDBRANCH  32  33
ENDBRANCH  30  32
ENDBRANCH  27  30
ENDBRANCH  26  27
ENDBRANCH  23  26
ENDBRANCH  22  23
ENDBRANCH   3  21
TORSDOF 11
ENDMDL
MODEL 6
REMARK VINA RESULT:      -7.4     17.713     21.540
REMARK  Name = D0G1WL
REMARK  11 active torsions:
REMARK  status: ('A' for Active; 'I' for Inactive)
REMARK    1  A    between atoms: O_2  and  C_20
REMARK    2  A    between atoms: O_3  and  C_22
REMARK    3  A    between atoms: O_4  and  C_31
REMARK    4  A    between atoms: C_7  and  C_10
REMARK    5  A    between atoms: C_11  and  C_15
REMARK    6  A    between atoms: C_12  and  C_16
REMARK    7  A    between atoms: C_17  and  C_20
REMARK    8  A    between atoms: C_20  and  C_21
REMARK    9  A    between atoms: C_21  and  C_22
REMARK   10  A    between atoms: C_22  and  C_27
REMARK   11  A    between atoms: C_27  and  C_31
REMARK                            x       y       z     vdW  Elec       q    Type
REMARK                         _______ _______ _______ _____ _____    ______ ____
ROOT
ATOM      1  N   UNL A   1     -24.973  -2.251  52.438  0.00  0.00    -0.251 NA
ATOM      2  C   UNL A   1     -24.447  -3.404  51.956  0.00  0.00    +0.053 A 
ATOM      3  C   UNL A   1     -25.272  -4.509  51.662  0.00  0.00    +0.005 A 
ATOM      4  C   UNL A   1     -26.677  -4.398  51.857  0.00  0.00    +0.000 A 
ATOM      5  C   UNL A   1     -26.295  -2.134  52.621  0.00  0.00    +0.072 A 
ATOM      6  C   UNL A   1     -27.205  -3.173  52.345  0.00  0.00    +0.009 A 
ATOM      7  C   UNL A   1     -26.771  -0.925  53.107  0.00  0.00    +0.028 A 
ATOM      8  C   UNL A   1     -28.588  -2.922  52.560  0.00  0.00    +0.010 A 
ATOM      9  C   UNL A   1     -28.129  -0.698  53.330  0.00  0.00    +0.002 A 
ATOM     10  C   UNL A   1     -29.042  -1.702  53.054  0.00  0.00    +0.001 A 
ENDROOT
BRANCH   4  12
ATOM     11  F   UNL A   1     -30.202  -8.642  50.745  0.00  0.00    -0.205 F 
ATOM     12  C   UNL A   1     -27.576  -5.546  51.562  0.00  0.00    -0.017 A 
ATOM     13  C   UNL A   1     -28.074  -5.746  50.260  0.00  0.00    +0.011 A 
ATOM     14  C   UNL A   1     -27.984  -6.430  52.577  0.00  0.00    +0.011 A 
ATOM     15  C   UNL A   1     -28.953  -6.796  49.982  0.00  0.00    +0.039 A 
ATOM     16  C   UNL A   1     -28.874  -7.471  52.303  0.00  0.00    +0.039 A 
ATOM     17  C   UNL A   1     -29.348  -7.645  51.008  0.00  0.00    +0.123 A 
ENDBRANCH   4  12
BRANCH   2  18
ATOM     18  C   UNL A   1     -22.930  -3.444  51.753  0.00  0.00    +0.038 C 
ATOM     19  C   UNL A   1     -22.318  -2.624  50.640  0.00  0.00    +0.010 C 
ATOM     20  C   UNL A   1     -22.061  -2.248  52.069  0.00  0.00    +0.010 C 
ENDBRANCH   2  18
BRANCH   3  21
ATOM     21  C   UNL A   1     -24.652  -5.736  51.124  0.00  0.00    +0.008 C 
ATOM     22  C   UNL A   1     -24.397  -6.826  51.867  0.00  0.00    +0.005 C 
BRANCH  22  23
ATOM     23  C   UNL A   1     -23.838  -8.126  51.358  0.00  0.00    +0.140 C 
BRANCH  23  24
ATOM     24  O   UNL A   1     -23.143  -8.779  52.407  0.00  0.00    -0.388 OA
ATOM     25  H   UNL A   1     -23.455  -8.406  53.247  0.00  0.00    +0.210 HD
ENDBRANCH  23  24
BRANCH  23  26
ATOM     26  C   UNL A   1     -24.960  -8.998  50.768  0.00  0.00    +0.067 C 
BRANCH  26  27
ATOM     27  C   UNL A   1     -24.701 -10.506  50.905  0.00  0.00    +0.128 C 
BRANCH  27  28
ATOM     28  O   UNL A   1     -25.950 -11.198  50.952  0.00  0.00    -0.391 OA
ATOM     29  H   UNL A   1     -26.527 -10.776  51.607  0.00  0.00    +0.210 HD
ENDBRANCH  27  28
BRANCH  27  30
ATOM     30  C   UNL A   1     -23.894 -11.021  49.711  0.00  0.00    +0.151 C 
BRANCH  30  32
ATOM     31  O   UNL A   1     -25.188 -12.401  48.149  0.00  0.00    -0.251 OA
ATOM     32  C   UNL A   1     -24.484 -12.279  49.135  0.00  0.00    +0.307 C 
BRANCH  32  33
ATOM     33  O   UNL A   1     -24.197 -13.354  49.900  0.00  0.00    -0.481 OA
ATOM     34  H   UNL A   1     -24.902 -13.346  50.581  0.00  0.00    +0.295 HD
ENDBRANCH  32  33
ENDBRANCH  30  32
ENDBRANCH  27  30
ENDBRANCH  26  27
ENDBRANCH  23  26
ENDBRANCH  22  23
ENDBRANCH   3  21
TORSDOF 11
ENDMDL
MODEL 7
REMARK VINA RESULT:      -7.3     19.175     23.088
REMARK  Name = D0G1WL
REMARK  11 active torsions:
REMARK  status: ('A' for Active; 'I' for Inactive)
REMARK    1  A    between atoms: O_2  and  C_20
REMARK    2  A    between atoms: O_3  and  C_22
REMARK    3  A    between atoms: O_4  and  C_31
REMARK    4  A    between atoms: C_7  and  C_10
REMARK    5  A    between atoms: C_11  and  C_15
REMARK    6  A    between atoms: C_12  and  C_16
REMARK    7  A    between atoms: C_17  and  C_20
REMARK    8  A    between atoms: C_20  and  C_21
REMARK    9  A    between atoms: C_21  and  C_22
REMARK   10  A    between atoms: C_22  and  C_27
REMARK   11  A    between atoms: C_27  and  C_31
REMARK                            x       y       z     vdW  Elec       q    Type
REMARK                         _______ _______ _______ _____ _____    ______ ____
ROOT
ATOM      1  N   UNL A   1     -27.379  -3.534  52.319  0.00  0.00    -0.251 NA
ATOM      2  C   UNL A   1     -27.906  -4.783  52.304  0.00  0.00    +0.053 A 
ATOM      3  C   UNL A   1     -27.141  -5.887  51.872  0.00  0.00    +0.005 A 
ATOM      4  C   UNL A   1     -25.792  -5.681  51.468  0.00  0.00    +0.000 A 
ATOM      5  C   UNL A   1     -26.109  -3.330  51.944  0.00  0.00    +0.072 A 
ATOM      6  C   UNL A   1     -25.259  -4.365  51.511  0.00  0.00    +0.009 A 
ATOM      7  C   UNL A   1     -25.627  -2.030  51.992  0.00  0.00    +0.028 A 
ATOM      8  C   UNL A   1     -23.923  -4.027  51.159  0.00  0.00    +0.010 A 
ATOM      9  C   UNL A   1     -24.319  -1.709  51.628  0.00  0.00    +0.002 A 
ATOM     10  C   UNL A   1     -23.463  -2.714  51.209  0.00  0.00    +0.001 A 
ENDROOT
BRANCH   4  12
ATOM     11  F   UNL A   1     -22.770 -10.083  49.689  0.00  0.00    -0.205 F 
ATOM     12  C   UNL A   1     -24.959  -6.822  51.002  0.00  0.00    -0.017 A 
ATOM     13  C   UNL A   1     -24.876  -7.132  49.630  0.00  0.00    +0.011 A 
ATOM     14  C   UNL A   1     -24.271  -7.641  51.914  0.00  0.00    +0.011 A 
ATOM     15  C   UNL A   1     -24.130  -8.227  49.187  0.00  0.00    +0.039 A 
ATOM     16  C   UNL A   1     -23.537  -8.744  51.473  0.00  0.00    +0.039 A 
ATOM     17  C   UNL A   1     -23.472  -9.025  50.113  0.00  0.00    +0.123 A 
ENDBRANCH   4  12
BRANCH   2  18
ATOM     18  C   UNL A   1     -29.356  -4.932  52.770  0.00  0.00    +0.038 C 
ATOM     19  C   UNL A   1     -29.627  -5.351  54.198  0.00  0.00    +0.010 C 
ATOM     20  C   UNL A   1     -29.970  -3.961  53.753  0.00  0.00    +0.010 C 
ENDBRANCH   2  18
BRANCH   3  21
ATOM     21  C   UNL A   1     -27.756  -7.229  51.890  0.00  0.00    +0.008 C 
ATOM     22  C   UNL A   1     -28.330  -7.797  50.816  0.00  0.00    +0.005 C 
BRANCH  22  23
ATOM     23  C   UNL A   1     -28.903  -9.186  50.757  0.00  0.00    +0.140 C 
BRANCH  23  24
ATOM     24  O   UNL A   1     -27.843 -10.128  50.758  0.00  0.00    -0.388 OA
ATOM     25  H   UNL A   1     -28.230 -11.010  50.642  0.00  0.00    +0.210 HD
ENDBRANCH  23  24
BRANCH  23  26
ATOM     26  C   UNL A   1     -29.885  -9.411  51.919  0.00  0.00    +0.067 C 
BRANCH  26  27
ATOM     27  C   UNL A   1     -30.738 -10.680  51.765  0.00  0.00    +0.128 C 
BRANCH  27  28
ATOM     28  O   UNL A   1     -30.484 -11.267  50.488  0.00  0.00    -0.391 OA
ATOM     29  H   UNL A   1     -29.528 -11.289  50.328  0.00  0.00    +0.210 HD
ENDBRANCH  27  28
BRANCH  27  30
ATOM     30  C   UNL A   1     -30.388 -11.695  52.855  0.00  0.00    +0.151 C 
BRANCH  30  32
ATOM     31  O   UNL A   1     -30.174 -13.997  52.034  0.00  0.00    -0.251 OA
ATOM     32  C   UNL A   1     -29.697 -12.907  52.294  0.00  0.00    +0.307 C 
BRANCH  32  33
ATOM     33  O   UNL A   1     -28.371 -12.695  52.145  0.00  0.00    -0.481 OA
ATOM     34  H   UNL A   1     -28.324 -12.041  51.415  0.00  0.00    +0.295 HD
ENDBRANCH  32  33
ENDBRANCH  30  32
ENDBRANCH  27  30
ENDBRANCH  26  27
ENDBRANCH  23  26
ENDBRANCH  22  23
ENDBRANCH   3  21
TORSDOF 11
ENDMDL
MODEL 8
REMARK VINA RESULT:      -7.3      1.476      1.920
REMARK  Name = D0G1WL
REMARK  11 active torsions:
REMARK  status: ('A' for Active; 'I' for Inactive)
REMARK    1  A    between atoms: O_2  and  C_20
REMARK    2  A    between atoms: O_3  and  C_22
REMARK    3  A    between atoms: O_4  and  C_31
REMARK    4  A    between atoms: C_7  and  C_10
REMARK    5  A    between atoms: C_11  and  C_15
REMARK    6  A    between atoms: C_12  and  C_16
REMARK    7  A    between atoms: C_17  and  C_20
REMARK    8  A    between atoms: C_20  and  C_21
REMARK    9  A    between atoms: C_21  and  C_22
REMARK   10  A    between atoms: C_22  and  C_27
REMARK   11  A    between atoms: C_27  and  C_31
REMARK                            x       y       z     vdW  Elec       q    Type
REMARK                         _______ _______ _______ _____ _____    ______ ____
ROOT
ATOM      1  N   UNL A   1     -16.474   6.277  46.635  0.00  0.00    -0.251 NA
ATOM      2  C   UNL A   1     -15.451   6.741  45.876  0.00  0.00    +0.053 A 
ATOM      3  C   UNL A   1     -14.877   8.004  46.129  0.00  0.00    +0.005 A 
ATOM      4  C   UNL A   1     -15.369   8.787  47.210  0.00  0.00    +0.000 A 
ATOM      5  C   UNL A   1     -16.943   7.003  47.658  0.00  0.00    +0.072 A 
ATOM      6  C   UNL A   1     -16.429   8.268  48.002  0.00  0.00    +0.009 A 
ATOM      7  C   UNL A   1     -17.983   6.466  48.402  0.00  0.00    +0.028 A 
ATOM      8  C   UNL A   1     -16.996   8.935  49.123  0.00  0.00    +0.010 A 
ATOM      9  C   UNL A   1     -18.541   7.139  49.490  0.00  0.00    +0.002 A 
ATOM     10  C   UNL A   1     -18.044   8.380  49.852  0.00  0.00    +0.001 A 
ENDROOT
BRANCH   4  12
ATOM     11  F   UNL A   1     -13.254  13.851  48.455  0.00  0.00    -0.205 F 
ATOM     12  C   UNL A   1     -14.791  10.125  47.502  0.00  0.00    -0.017 A 
ATOM     13  C   UNL A   1     -13.679  10.251  48.359  0.00  0.00    +0.011 A 
ATOM     14  C   UNL A   1     -15.360  11.296  46.970  0.00  0.00    +0.011 A 
ATOM     15  C   UNL A   1     -13.156  11.508  48.673  0.00  0.00    +0.039 A 
ATOM     16  C   UNL A   1     -14.845  12.554  47.295  0.00  0.00    +0.039 A 
ATOM     17  C   UNL A   1     -13.747  12.647  48.142  0.00  0.00    +0.123 A 
ENDBRANCH   4  12
BRANCH   2  18
ATOM     18  C   UNL A   1     -14.960   5.837  44.742  0.00  0.00    +0.038 C 
ATOM     19  C   UNL A   1     -14.185   4.585  45.087  0.00  0.00    +0.010 C 
ATOM     20  C   UNL A   1     -15.563   4.471  44.507  0.00  0.00    +0.010 C 
ENDBRANCH   2  18
BRANCH   3  21
ATOM     21  C   UNL A   1     -13.754   8.457  45.284  0.00  0.00    +0.008 C 
ATOM     22  C   UNL A   1     -13.896   9.312  44.256  0.00  0.00    +0.005 C 
BRANCH  22  23
ATOM     23  C   UNL A   1     -12.781   9.864  43.412  0.00  0.00    +0.140 C 
BRANCH  23  24
ATOM     24  O   UNL A   1     -11.799  10.442  44.256  0.00  0.00    -0.388 OA
ATOM     25  H   UNL A   1     -12.001  10.181  45.168  0.00  0.00    +0.210 HD
ENDBRANCH  23  24
BRANCH  23  26
ATOM     26  C   UNL A   1     -12.200   8.766  42.506  0.00  0.00    +0.067 C 
BRANCH  26  27
ATOM     27  C   UNL A   1     -12.194   9.140  41.015  0.00  0.00    +0.128 C 
BRANCH  27  28
ATOM     28  O   UNL A   1     -12.194   7.948  40.229  0.00  0.00    -0.391 OA
ATOM     29  H   UNL A   1     -12.465   8.161  39.322  0.00  0.00    +0.210 HD
ENDBRANCH  27  28
BRANCH  27  30
ATOM     30  C   UNL A   1     -13.434   9.965  40.665  0.00  0.00    +0.151 C 
BRANCH  30  32
ATOM     31  O   UNL A   1     -13.664  11.841  39.101  0.00  0.00    -0.251 OA
ATOM     32  C   UNL A   1     -13.257  10.728  39.380  0.00  0.00    +0.307 C 
BRANCH  32  33
ATOM     33  O   UNL A   1     -12.606   9.991  38.455  0.00  0.00    -0.481 OA
ATOM     34  H   UNL A   1     -12.222  10.664  37.854  0.00  0.00    +0.295 HD
ENDBRANCH  32  33
ENDBRANCH  30  32
ENDBRANCH  27  30
ENDBRANCH  26  27
ENDBRANCH  23  26
ENDBRANCH  22  23
ENDBRANCH   3  21
TORSDOF 11
ENDMDL
MODEL 9
REMARK VINA RESULT:      -7.2     13.893     17.668
REMARK  Name = D0G1WL
REMARK  11 active torsions:
REMARK  status: ('A' for Active; 'I' for Inactive)
REMARK    1  A    between atoms: O_2  and  C_20
REMARK    2  A    between atoms: O_3  and  C_22
REMARK    3  A    between atoms: O_4  and  C_31
REMARK    4  A    between atoms: C_7  and  C_10
REMARK    5  A    between atoms: C_11  and  C_15
REMARK    6  A    between atoms: C_12  and  C_16
REMARK    7  A    between atoms: C_17  and  C_20
REMARK    8  A    between atoms: C_20  and  C_21
REMARK    9  A    between atoms: C_21  and  C_22
REMARK   10  A    between atoms: C_22  and  C_27
REMARK   11  A    between atoms: C_27  and  C_31
REMARK                            x       y       z     vdW  Elec       q    Type
REMARK                         _______ _______ _______ _____ _____    ______ ____
ROOT
ATOM      1  N   UNL A   1     -24.331   1.119  50.841  0.00  0.00    -0.251 NA
ATOM      2  C   UNL A   1     -24.860  -0.094  51.136  0.00  0.00    +0.053 A 
ATOM      3  C   UNL A   1     -24.128  -1.040  51.883  0.00  0.00    +0.005 A 
ATOM      4  C   UNL A   1     -22.826  -0.702  52.347  0.00  0.00    +0.000 A 
ATOM      5  C   UNL A   1     -23.108   1.450  51.276  0.00  0.00    +0.072 A 
ATOM      6  C   UNL A   1     -22.303   0.583  52.040  0.00  0.00    +0.009 A 
ATOM      7  C   UNL A   1     -22.630   2.710  50.948  0.00  0.00    +0.028 A 
ATOM      8  C   UNL A   1     -21.030   1.055  52.462  0.00  0.00    +0.010 A 
ATOM      9  C   UNL A   1     -21.371   3.154  51.354  0.00  0.00    +0.002 A 
ATOM     10  C   UNL A   1     -20.567   2.322  52.116  0.00  0.00    +0.001 A 
ENDROOT
BRANCH   4  12
ATOM     11  F   UNL A   1     -19.903  -4.503  55.293  0.00  0.00    -0.205 F 
ATOM     12  C   UNL A   1     -22.025  -1.677  53.133  0.00  0.00    -0.017 A 
ATOM     13  C   UNL A   1     -21.231  -2.640  52.480  0.00  0.00    +0.011 A 
ATOM     14  C   UNL A   1     -22.071  -1.693  54.539  0.00  0.00    +0.011 A 
ATOM     15  C   UNL A   1     -20.508  -3.588  53.209  0.00  0.00    +0.039 A 
ATOM     16  C   UNL A   1     -21.360  -2.649  55.268  0.00  0.00    +0.039 A 
ATOM     17  C   UNL A   1     -20.584  -3.586  54.596  0.00  0.00    +0.123 A 
ENDBRANCH   4  12
BRANCH   2  18
ATOM     18  C   UNL A   1     -26.272  -0.382  50.621  0.00  0.00    +0.038 C 
ATOM     19  C   UNL A   1     -27.457   0.016  51.471  0.00  0.00    +0.010 C 
ATOM     20  C   UNL A   1     -27.193   0.735  50.182  0.00  0.00    +0.010 C 
ENDBRANCH   2  18
BRANCH   3  21
ATOM     21  C   UNL A   1     -24.755  -2.340  52.192  0.00  0.00    +0.008 C 
ATOM     22  C   UNL A   1     -24.838  -3.353  51.312  0.00  0.00    +0.005 C 
BRANCH  22  23
ATOM     23  C   UNL A   1     -25.396  -4.720  51.595  0.00  0.00    +0.140 C 
BRANCH  23  24
ATOM     24  O   UNL A   1     -26.730  -4.788  51.120  0.00  0.00    -0.388 OA
ATOM     25  H   UNL A   1     -27.244  -5.315  51.753  0.00  0.00    +0.210 HD
ENDBRANCH  23  24
BRANCH  23  26
ATOM     26  C   UNL A   1     -24.498  -5.804  50.975  0.00  0.00    +0.067 C 
BRANCH  26  27
ATOM     27  C   UNL A   1     -25.283  -6.913  50.255  0.00  0.00    +0.128 C 
BRANCH  27  28
ATOM     28  O   UNL A   1     -25.659  -6.457  48.955  0.00  0.00    -0.391 OA
ATOM     29  H   UNL A   1     -25.992  -7.206  48.436  0.00  0.00    +0.210 HD
ENDBRANCH  27  28
BRANCH  27  30
ATOM     30  C   UNL A   1     -24.423  -8.170  50.111  0.00  0.00    +0.151 C 
BRANCH  30  32
ATOM     31  O   UNL A   1     -24.682  -9.329  47.964  0.00  0.00    -0.251 OA
ATOM     32  C   UNL A   1     -24.142  -8.496  48.669  0.00  0.00    +0.307 C 
BRANCH  32  33
ATOM     33  O   UNL A   1     -23.109  -7.771  48.191  0.00  0.00    -0.481 OA
ATOM     34  H   UNL A   1     -22.500  -7.705  48.957  0.00  0.00    +0.295 HD
ENDBRANCH  32  33
ENDBRANCH  30  32
ENDBRANCH  27  30
ENDBRANCH  26  27
ENDBRANCH  23  26
ENDBRANCH  22  23
ENDBRANCH   3  21
TORSDOF 11
ENDMDL
MODEL 10
REMARK VINA RESULT:      -7.2     16.129     19.205
REMARK  Name = D0G1WL
REMARK  11 active torsions:
REMARK  status: ('A' for Active; 'I' for Inactive)
REMARK    1  A    between atoms: O_2  and  C_20
REMARK    2  A    between atoms: O_3  and  C_22
REMARK    3  A    between atoms: O_4  and  C_31
REMARK    4  A    between atoms: C_7  and  C_10
REMARK    5  A    between atoms: C_11  and  C_15
REMARK    6  A    between atoms: C_12  and  C_16
REMARK    7  A    between atoms: C_17  and  C_20
REMARK    8  A    between atoms: C_20  and  C_21
REMARK    9  A    between atoms: C_21  and  C_22
REMARK   10  A    between atoms: C_22  and  C_27
REMARK   11  A    between atoms: C_27  and  C_31
REMARK                            x       y       z     vdW  Elec       q    Type
REMARK                         _______ _______ _______ _____ _____    ______ ____
ROOT
ATOM      1  N   UNL A   1     -24.938   0.722  52.329  0.00  0.00    -0.251 NA
ATOM      2  C   UNL A   1     -24.632  -0.599  52.357  0.00  0.00    +0.053 A 
ATOM      3  C   UNL A   1     -25.594  -1.572  52.019  0.00  0.00    +0.005 A 
ATOM      4  C   UNL A   1     -26.896  -1.155  51.625  0.00  0.00    +0.000 A 
ATOM      5  C   UNL A   1     -26.160   1.127  51.955  0.00  0.00    +0.072 A 
ATOM      6  C   UNL A   1     -27.185   0.236  51.586  0.00  0.00    +0.009 A 
ATOM      7  C   UNL A   1     -26.405   2.492  51.938  0.00  0.00    +0.028 A 
ATOM      8  C   UNL A   1     -28.434   0.786  51.187  0.00  0.00    +0.010 A 
ATOM      9  C   UNL A   1     -27.641   3.018  51.561  0.00  0.00    +0.002 A 
ATOM     10  C   UNL A   1     -28.661   2.160  51.183  0.00  0.00    +0.001 A 
ENDROOT
BRANCH   4  12
ATOM     11  F   UNL A   1     -30.745  -5.053  50.336  0.00  0.00    -0.205 F 
ATOM     12  C   UNL A   1     -27.937  -2.155  51.267  0.00  0.00    -0.017 A 
ATOM     13  C   UNL A   1     -28.833  -2.633  52.243  0.00  0.00    +0.011 A 
ATOM     14  C   UNL A   1     -28.026  -2.679  49.965  0.00  0.00    +0.011 A 
ATOM     15  C   UNL A   1     -29.787  -3.604  51.926  0.00  0.00    +0.039 A 
ATOM     16  C   UNL A   1     -28.970  -3.660  49.652  0.00  0.00    +0.039 A 
ATOM     17  C   UNL A   1     -29.842  -4.112  50.635  0.00  0.00    +0.123 A 
ENDBRANCH   4  12
BRANCH   2  18
ATOM     18  C   UNL A   1     -23.207  -0.973  52.772  0.00  0.00    +0.038 C 
ATOM     19  C   UNL A   1     -22.147  -1.117  51.703  0.00  0.00    +0.010 C 
ATOM     20  C   UNL A   1     -22.072   0.021  52.677  0.00  0.00    +0.010 C 
ENDBRANCH   2  18
BRANCH   3  21
ATOM     21  C   UNL A   1     -25.206  -2.996  52.049  0.00  0.00    +0.008 C 
ATOM     22  C   UNL A   1     -24.813  -3.682  50.962  0.00  0.00    +0.005 C 
BRANCH  22  23
ATOM     23  C   UNL A   1     -24.336  -5.108  50.948  0.00  0.00    +0.140 C 
BRANCH  23  24
ATOM     24  O   UNL A   1     -23.275  -5.255  51.878  0.00  0.00    -0.388 OA
ATOM     25  H   UNL A   1     -23.462  -4.678  52.635  0.00  0.00    +0.210 HD
ENDBRANCH  23  24
BRANCH  23  26
ATOM     26  C   UNL A   1     -25.503  -6.067  51.237  0.00  0.00    +0.067 C 
BRANCH  26  27
ATOM     27  C   UNL A   1     -25.746  -7.092  50.118  0.00  0.00    +0.128 C 
BRANCH  27  28
ATOM     28  O   UNL A   1     -25.833  -6.413  48.865  0.00  0.00    -0.391 OA
ATOM     29  H   UNL A   1     -26.593  -6.752  48.366  0.00  0.00    +0.210 HD
ENDBRANCH  27  28
BRANCH  27  30
ATOM     30  C   UNL A   1     -24.597  -8.100  50.056  0.00  0.00    +0.151 C 
BRANCH  30  32
ATOM     31  O   UNL A   1     -24.643  -9.249  47.889  0.00  0.00    -0.251 OA
ATOM     32  C   UNL A   1     -24.191  -8.404  48.640  0.00  0.00    +0.307 C 
BRANCH  32  33
ATOM     33  O   UNL A   1     -23.149  -7.639  48.250  0.00  0.00    -0.481 OA
ATOM     34  H   UNL A   1     -22.451  -8.293  48.034  0.00  0.00    +0.295 HD
ENDBRANCH  32  33
ENDBRANCH  30  32
ENDBRANCH  27  30
ENDBRANCH  26  27
ENDBRANCH  23  26
ENDBRANCH  22  23
ENDBRANCH   3  21
TORSDOF 11
ENDMDL
