REMARK  Name = D0G1WL
REMARK  11 active torsions:
REMARK  status: ('A' for Active; 'I' for Inactive)
REMARK    1  A    between atoms: O_2  and  C_20
REMARK    2  A    between atoms: O_3  and  C_22
REMARK    3  A    between atoms: O_4  and  C_31
REMARK    4  A    between atoms: C_7  and  C_10
REMARK    5  A    between atoms: C_11  and  C_15
REMARK    6  A    between atoms: C_12  and  C_16
REMARK    7  A    between atoms: C_17  and  C_20
REMARK    8  A    between atoms: C_20  and  C_21
REMARK    9  A    between atoms: C_21  and  C_22
REMARK   10  A    between atoms: C_22  and  C_27
REMARK   11  A    between atoms: C_27  and  C_31
REMARK                            x       y       z     vdW  Elec       q    Type
REMARK                         _______ _______ _______ _____ _____    ______ ____
ROOT
ATOM      1  N   UNL A   1       3.773  -0.028   4.827  0.00  0.00    -0.251 NA
ATOM      2  C   UNL A   1       3.086   0.413   3.744  0.00  0.00    +0.053 A 
ATOM      3  C   UNL A   1       1.855  -0.171   3.381  0.00  0.00    +0.005 A 
ATOM      4  C   UNL A   1       1.323  -1.223   4.178  0.00  0.00    +0.000 A 
ATOM      5  C   UNL A   1       3.280  -1.015   5.587  0.00  0.00    +0.072 A 
ATOM      6  C   UNL A   1       2.054  -1.653   5.318  0.00  0.00    +0.009 A 
ATOM      7  C   UNL A   1       4.027  -1.412   6.686  0.00  0.00    +0.028 A 
ATOM      8  C   UNL A   1       1.625  -2.674   6.210  0.00  0.00    +0.010 A 
ATOM      9  C   UNL A   1       3.602  -2.427   7.544  0.00  0.00    +0.002 A 
ATOM     10  C   UNL A   1       2.394  -3.061   7.304  0.00  0.00    +0.001 A 
ENDROOT
BRANCH   4  12
ATOM     11  F   UNL A   1      -3.538  -3.627   2.674  0.00  0.00    -0.205 F 
ATOM     12  C   UNL A   1       0.030  -1.865   3.821  0.00  0.00    -0.017 A 
ATOM     13  C   UNL A   1      -0.002  -3.192   3.349  0.00  0.00    +0.011 A 
ATOM     14  C   UNL A   1      -1.182  -1.156   3.903  0.00  0.00    +0.011 A 
ATOM     15  C   UNL A   1      -1.207  -3.789   2.971  0.00  0.00    +0.039 A 
ATOM     16  C   UNL A   1      -2.385  -1.748   3.511  0.00  0.00    +0.039 A 
ATOM     17  C   UNL A   1      -2.386  -3.059   3.051  0.00  0.00    +0.123 A 
ENDBRANCH   4  12
BRANCH   2  18
ATOM     18  C   UNL A   1       3.709   1.560   2.945  0.00  0.00    +0.038 C 
ATOM     19  C   UNL A   1       3.861   2.913   3.603  0.00  0.00    +0.010 C 
ATOM     20  C   UNL A   1       5.080   2.101   3.282  0.00  0.00    +0.010 C 
ENDBRANCH   2  18
BRANCH   3  21
ATOM     21  C   UNL A   1       1.138   0.356   2.203  0.00  0.00    +0.008 C 
ATOM     22  C   UNL A   1       0.797  -0.397   1.143  0.00  0.00    +0.005 C 
BRANCH  22  23
ATOM     23  C   UNL A   1       0.003   0.068  -0.046  0.00  0.00    +0.140 C 
BRANCH  23  24
ATOM     24  O   UNL A   1      -0.161   1.475   0.023  0.00  0.00    -0.388 OA
ATOM     25  H   UNL A   1       0.665   1.885  -0.279  0.00  0.00    +0.210 HD
ENDBRANCH  23  24
BRANCH  23  26
ATOM     26  C   UNL A   1       0.682  -0.378  -1.352  0.00  0.00    +0.067 C 
BRANCH  26  27
ATOM     27  C   UNL A   1      -0.093   0.027  -2.616  0.00  0.00    +0.128 C 
BRANCH  27  28
ATOM     28  O   UNL A   1      -0.001   1.441  -2.794  0.00  0.00    -0.391 OA
ATOM     29  H   UNL A   1       0.932   1.696  -2.868  0.00  0.00    +0.210 HD
ENDBRANCH  27  28
BRANCH  27  30
ATOM     30  C   UNL A   1       0.492  -0.667  -3.848  0.00  0.00    +0.151 C 
BRANCH  30  32
ATOM     31  O   UNL A   1      -1.572  -0.203  -5.090  0.00  0.00    -0.251 OA
ATOM     32  C   UNL A   1      -0.396  -0.515  -5.053  0.00  0.00    +0.307 C 
BRANCH  32  33
ATOM     33  O   UNL A   1       0.255  -0.842  -6.190  0.00  0.00    -0.481 OA
ATOM     34  H   UNL A   1      -0.423  -0.717  -6.887  0.00  0.00    +0.295 HD
ENDBRANCH  32  33
ENDBRANCH  30  32
ENDBRANCH  27  30
ENDBRANCH  26  27
ENDBRANCH  23  26
ENDBRANCH  22  23
ENDBRANCH   3  21
TORSDOF 11
