REMARK VINA RESULT:      -7.5      2.396      4.710
REMARK  Name = D0G1WL
REMARK  11 active torsions:
REMARK  status: ('A' for Active; 'I' for Inactive)
REMARK    1  A    between atoms: O_2  and  C_20
REMARK    2  A    between atoms: O_3  and  C_22
REMARK    3  A    between atoms: O_4  and  C_31
REMARK    4  A    between atoms: C_7  and  C_10
REMARK    5  A    between atoms: C_11  and  C_15
REMARK    6  A    between atoms: C_12  and  C_16
REMARK    7  A    between atoms: C_17  and  C_20
REMARK    8  A    between atoms: C_20  and  C_21
REMARK    9  A    between atoms: C_21  and  C_22
REMARK   10  A    between atoms: C_22  and  C_27
REMARK   11  A    between atoms: C_27  and  C_31
REMARK                            x       y       z     vdW  Elec       q    Type
REMARK                         _______ _______ _______ _____ _____    ______ ____
ROOT
ATOM      1  N   UNL A   1     -14.235  10.738  47.831  0.00  0.00    -0.251 NA
ATOM      2  C   UNL A   1     -13.505  10.248  46.798  0.00  0.00    +0.053 A 
ATOM      3  C   UNL A   1     -13.803   8.991  46.234  0.00  0.00    +0.005 A 
ATOM      4  C   UNL A   1     -14.898   8.240  46.746  0.00  0.00    +0.000 A 
ATOM      5  C   UNL A   1     -15.271  10.042  48.319  0.00  0.00    +0.072 A 
ATOM      6  C   UNL A   1     -15.658   8.785  47.816  0.00  0.00    +0.009 A 
ATOM      7  C   UNL A   1     -15.983  10.603  49.369  0.00  0.00    +0.028 A 
ATOM      8  C   UNL A   1     -16.788   8.152  48.403  0.00  0.00    +0.010 A 
ATOM      9  C   UNL A   1     -17.080   9.963  49.946  0.00  0.00    +0.002 A 
ATOM     10  C   UNL A   1     -17.485   8.731  49.460  0.00  0.00    +0.001 A 
ENDROOT
BRANCH   4  12
ATOM     11  F   UNL A   1     -16.306   3.195  44.688  0.00  0.00    -0.205 F 
ATOM     12  C   UNL A   1     -15.236   6.909  46.178  0.00  0.00    -0.017 A 
ATOM     13  C   UNL A   1     -16.239   6.785  45.196  0.00  0.00    +0.011 A 
ATOM     14  C   UNL A   1     -14.599   5.740  46.632  0.00  0.00    +0.011 A 
ATOM     15  C   UNL A   1     -16.593   5.533  44.687  0.00  0.00    +0.039 A 
ATOM     16  C   UNL A   1     -14.963   4.487  46.134  0.00  0.00    +0.039 A 
ATOM     17  C   UNL A   1     -15.955   4.396  45.165  0.00  0.00    +0.123 A 
ENDBRANCH   4  12
BRANCH   2  18
ATOM     18  C   UNL A   1     -12.355  11.118  46.286  0.00  0.00    +0.038 C 
ATOM     19  C   UNL A   1     -12.662  12.253  45.335  0.00  0.00    +0.010 C 
ATOM     20  C   UNL A   1     -12.198  12.556  46.728  0.00  0.00    +0.010 C 
ENDBRANCH   2  18
BRANCH   3  21
ATOM     21  C   UNL A   1     -12.988   8.510  45.100  0.00  0.00    +0.008 C 
ATOM     22  C   UNL A   1     -13.352   8.648  43.813  0.00  0.00    +0.005 C 
BRANCH  22  23
ATOM     23  C   UNL A   1     -12.530   8.247  42.620  0.00  0.00    +0.140 C 
BRANCH  23  24
ATOM     24  O   UNL A   1     -13.226   7.254  41.886  0.00  0.00    -0.388 OA
ATOM     25  H   UNL A   1     -14.109   7.600  41.682  0.00  0.00    +0.210 HD
ENDBRANCH  23  24
BRANCH  23  26
ATOM     26  C   UNL A   1     -12.191   9.478  41.763  0.00  0.00    +0.067 C 
BRANCH  26  27
ATOM     27  C   UNL A   1     -13.349  10.483  41.649  0.00  0.00    +0.128 C 
BRANCH  27  28
ATOM     28  O   UNL A   1     -12.880  11.786  41.997  0.00  0.00    -0.391 OA
ATOM     29  H   UNL A   1     -11.999  11.715  42.398  0.00  0.00    +0.210 HD
ENDBRANCH  27  28
BRANCH  27  30
ATOM     30  C   UNL A   1     -13.889  10.517  40.217  0.00  0.00    +0.151 C 
BRANCH  30  32
ATOM     31  O   UNL A   1     -12.246  11.976  39.126  0.00  0.00    -0.251 OA
ATOM     32  C   UNL A   1     -12.829  10.911  39.226  0.00  0.00    +0.307 C 
BRANCH  32  33
ATOM     33  O   UNL A   1     -12.595   9.924  38.334  0.00  0.00    -0.481 OA
ATOM     34  H   UNL A   1     -13.469   9.491  38.237  0.00  0.00    +0.295 HD
ENDBRANCH  32  33
ENDBRANCH  30  32
ENDBRANCH  27  30
ENDBRANCH  26  27
ENDBRANCH  23  26
ENDBRANCH  22  23
ENDBRANCH   3  21
TORSDOF 11
