REMARK VINA RESULT:      -6.9      1.519      4.514
REMARK  Name = D02RQU
REMARK  18 active torsions:
REMARK  status: ('A' for Active; 'I' for Inactive)
REMARK    1  A    between atoms: O_1  and  C_10
REMARK    2  A    between atoms: O_1  and  C_23
REMARK    3  A    between atoms: O_2  and  C_15
REMARK    4  A    between atoms: O_3  and  C_21
REMARK    5  A    between atoms: O_5  and  C_24
REMARK    6  A    between atoms: O_6  and  C_30
REMARK    7  A    between atoms: C_9  and  C_12
REMARK    8  A    between atoms: C_11  and  C_20
REMARK    9  A    between atoms: C_12  and  C_17
REMARK   10  A    between atoms: C_17  and  C_21
REMARK   11  A    between atoms: C_21  and  C_22
REMARK   12  A    between atoms: C_22  and  C_24
REMARK   13  A    between atoms: C_23  and  C_25
REMARK   14  A    between atoms: C_24  and  C_26
REMARK   15  A    between atoms: C_25  and  C_27
REMARK   16  A    between atoms: C_25  and  C_28
REMARK   17  A    between atoms: C_26  and  C_30
REMARK   18  A    between atoms: C_27  and  C_29
REMARK                            x       y       z     vdW  Elec       q    Type
REMARK                         _______ _______ _______ _____ _____    ______ ____
ROOT
ATOM      1  C   UNL A   1     -14.984   9.695  46.925  0.00  0.00    +0.063 C 
ATOM      2  C   UNL A   1     -13.675   9.447  46.087  0.00  0.00    +0.007 C 
ATOM      3  C   UNL A   1     -15.953   8.494  47.245  0.00  0.00    +0.187 C 
ATOM      4  C   UNL A   1     -13.014  10.823  45.734  0.00  0.00    +0.012 C 
ATOM      5  C   UNL A   1     -14.639  10.526  48.174  0.00  0.00    -0.042 C 
ATOM      6  C   UNL A   1     -15.870   8.022  48.698  0.00  0.00    +0.080 C 
ATOM      7  C   UNL A   1     -16.121   9.173  49.659  0.00  0.00    +0.141 C 
ATOM      8  C   UNL A   1     -12.897  11.716  46.941  0.00  0.00    -0.023 C 
ATOM      9  C   UNL A   1     -15.203  10.313  49.377  0.00  0.00    +0.008 C 
ATOM     10  C   UNL A   1     -13.645  11.572  48.038  0.00  0.00    -0.000 C 
ATOM     11  C   UNL A   1     -13.742  11.625  44.641  0.00  0.00    +0.012 C 
ENDROOT
BRANCH   7  12
ATOM     12  O   UNL A   1     -17.463   9.621  49.544  0.00  0.00    -0.388 OA
ATOM     13  H   UNL A   1     -17.490  10.562  49.783  0.00  0.00    +0.210 HD
ENDBRANCH   7  12
BRANCH   3  14
ATOM     14  O   UNL A   1     -15.723   7.347  46.409  0.00  0.00    -0.460 OA
BRANCH  14  16
ATOM     15  O   UNL A   1     -17.963   6.950  46.157  0.00  0.00    -0.251 OA
ATOM     16  C   UNL A   1     -16.794   6.608  46.014  0.00  0.00    +0.310 C 
BRANCH  16  17
ATOM     17  C   UNL A   1     -16.339   5.332  45.305  0.00  0.00    +0.094 C 
ATOM     18  C   UNL A   1     -15.963   5.622  43.851  0.00  0.00    +0.019 C 
BRANCH  17  19
ATOM     19  C   UNL A   1     -15.173   4.694  46.085  0.00  0.00    +0.011 C 
ATOM     20  C   UNL A   1     -14.127   4.015  45.212  0.00  0.00    +0.004 C 
ENDBRANCH  17  19
ENDBRANCH  16  17
ENDBRANCH  14  16
ENDBRANCH   3  14
BRANCH   2  21
ATOM     21  C   UNL A   1     -13.884   8.580  44.828  0.00  0.00    +0.007 C 
BRANCH  21  22
ATOM     22  C   UNL A   1     -12.722   7.681  44.392  0.00  0.00    +0.032 C 
BRANCH  22  23
ATOM     23  C   UNL A   1     -12.103   8.216  43.091  0.00  0.00    +0.117 C 
BRANCH  23  24
ATOM     24  O   UNL A   1     -11.367   7.168  42.466  0.00  0.00    -0.392 OA
ATOM     25  H   UNL A   1     -11.228   6.455  43.109  0.00  0.00    +0.210 HD
ENDBRANCH  23  24
BRANCH  23  26
ATOM     26  C   UNL A   1     -13.193   8.738  42.153  0.00  0.00    +0.063 C 
BRANCH  26  27
ATOM     27  C   UNL A   1     -12.883  10.134  41.587  0.00  0.00    +0.128 C 
BRANCH  27  28
ATOM     28  O   UNL A   1     -11.506  10.240  41.226  0.00  0.00    -0.391 OA
ATOM     29  H   UNL A   1     -10.957   9.843  41.920  0.00  0.00    +0.210 HD
ENDBRANCH  27  28
BRANCH  27  30
ATOM     30  C   UNL A   1     -13.726  10.388  40.340  0.00  0.00    +0.151 C 
BRANCH  30  32
ATOM     31  O   UNL A   1     -12.519  11.881  38.814  0.00  0.00    -0.251 OA
ATOM     32  C   UNL A   1     -12.872  10.769  39.163  0.00  0.00    +0.307 C 
BRANCH  32  33
ATOM     33  O   UNL A   1     -12.556   9.692  38.414  0.00  0.00    -0.481 OA
ATOM     34  H   UNL A   1     -11.588   9.779  38.292  0.00  0.00    +0.295 HD
ENDBRANCH  32  33
ENDBRANCH  30  32
ENDBRANCH  27  30
ENDBRANCH  26  27
ENDBRANCH  23  26
ENDBRANCH  22  23
ENDBRANCH  21  22
ENDBRANCH   2  21
TORSDOF 15
