REMARK  Name = D02RQU
REMARK  18 active torsions:
REMARK  status: ('A' for Active; 'I' for Inactive)
REMARK    1  A    between atoms: O_1  and  C_10
REMARK    2  A    between atoms: O_1  and  C_23
REMARK    3  A    between atoms: O_2  and  C_15
REMARK    4  A    between atoms: O_3  and  C_21
REMARK    5  A    between atoms: O_5  and  C_24
REMARK    6  A    between atoms: O_6  and  C_30
REMARK    7  A    between atoms: C_9  and  C_12
REMARK    8  A    between atoms: C_11  and  C_20
REMARK    9  A    between atoms: C_12  and  C_17
REMARK   10  A    between atoms: C_17  and  C_21
REMARK   11  A    between atoms: C_21  and  C_22
REMARK   12  A    between atoms: C_22  and  C_24
REMARK   13  A    between atoms: C_23  and  C_25
REMARK   14  A    between atoms: C_24  and  C_26
REMARK   15  A    between atoms: C_25  and  C_27
REMARK   16  A    between atoms: C_25  and  C_28
REMARK   17  A    between atoms: C_26  and  C_30
REMARK   18  A    between atoms: C_27  and  C_29
REMARK                            x       y       z     vdW  Elec       q    Type
REMARK                         _______ _______ _______ _____ _____    ______ ____
ROOT
ATOM      1  C   UNL A   1      -1.389  -0.590  -1.070  0.00  0.00    +0.063 C 
ATOM      2  C   UNL A   1      -2.437   0.550  -0.784  0.00  0.00    +0.007 C 
ATOM      3  C   UNL A   1       0.128  -0.375  -0.700  0.00  0.00    +0.187 C 
ATOM      4  C   UNL A   1      -3.811   0.169  -1.434  0.00  0.00    +0.012 C 
ATOM      5  C   UNL A   1      -1.941  -1.930  -0.552  0.00  0.00    -0.042 C 
ATOM      6  C   UNL A   1       0.563  -1.157   0.541  0.00  0.00    +0.080 C 
ATOM      7  C   UNL A   1       0.263  -2.639   0.383  0.00  0.00    +0.141 C 
ATOM      8  C   UNL A   1      -4.221  -1.240  -1.097  0.00  0.00    -0.023 C 
ATOM      9  C   UNL A   1      -1.172  -2.859   0.045  0.00  0.00    +0.008 C 
ATOM     10  C   UNL A   1      -3.360  -2.183  -0.703  0.00  0.00    -0.000 C 
ATOM     11  C   UNL A   1      -3.857   0.304  -2.966  0.00  0.00    +0.012 C 
ENDROOT
BRANCH   7  12
ATOM     12  O   UNL A   1       1.070  -3.194  -0.644  0.00  0.00    -0.388 OA
ATOM     13  H   UNL A   1       0.694  -4.054  -0.893  0.00  0.00    +0.210 HD
ENDBRANCH   7  12
BRANCH   3  14
ATOM     14  O   UNL A   1       0.462   1.005  -0.476  0.00  0.00    -0.460 OA
BRANCH  14  16
ATOM     15  O   UNL A   1       2.525   0.756  -1.436  0.00  0.00    -0.251 OA
ATOM     16  C   UNL A   1       1.665   1.460  -0.917  0.00  0.00    +0.310 C 
BRANCH  16  17
ATOM     17  C   UNL A   1       1.767   2.976  -0.746  0.00  0.00    +0.094 C 
ATOM     18  C   UNL A   1       1.444   3.385   0.692  0.00  0.00    +0.019 C 
BRANCH  17  19
ATOM     19  C   UNL A   1       3.168   3.452  -1.179  0.00  0.00    +0.011 C 
ATOM     20  C   UNL A   1       3.344   4.964  -1.188  0.00  0.00    +0.004 C 
ENDBRANCH  17  19
ENDBRANCH  16  17
ENDBRANCH  14  16
ENDBRANCH   3  14
BRANCH   2  21
ATOM     21  C   UNL A   1      -1.976   1.957  -1.218  0.00  0.00    +0.007 C 
BRANCH  21  22
ATOM     22  C   UNL A   1      -3.023   3.076  -1.201  0.00  0.00    +0.032 C 
BRANCH  22  23
ATOM     23  C   UNL A   1      -2.420   4.369  -1.771  0.00  0.00    +0.117 C 
BRANCH  23  24
ATOM     24  O   UNL A   1      -1.980   4.125  -3.104  0.00  0.00    -0.392 OA
ATOM     25  H   UNL A   1      -2.736   3.826  -3.634  0.00  0.00    +0.210 HD
ENDBRANCH  23  24
BRANCH  23  26
ATOM     26  C   UNL A   1      -3.451   5.499  -1.746  0.00  0.00    +0.063 C 
BRANCH  26  27
ATOM     27  C   UNL A   1      -2.874   6.852  -2.196  0.00  0.00    +0.128 C 
BRANCH  27  28
ATOM     28  O   UNL A   1      -2.602   6.846  -3.597  0.00  0.00    -0.391 OA
ATOM     29  H   UNL A   1      -3.306   6.368  -4.062  0.00  0.00    +0.210 HD
ENDBRANCH  27  28
BRANCH  27  30
ATOM     30  C   UNL A   1      -3.876   7.966  -1.907  0.00  0.00    +0.151 C 
BRANCH  30  32
ATOM     31  O   UNL A   1      -2.069   9.615  -2.082  0.00  0.00    -0.251 OA
ATOM     32  C   UNL A   1      -3.251   9.325  -2.058  0.00  0.00    +0.307 C 
BRANCH  32  33
ATOM     33  O   UNL A   1      -4.188  10.296  -2.098  0.00  0.00    -0.481 OA
ATOM     34  H   UNL A   1      -3.658  11.116  -2.182  0.00  0.00    +0.295 HD
ENDBRANCH  32  33
ENDBRANCH  30  32
ENDBRANCH  27  30
ENDBRANCH  26  27
ENDBRANCH  23  26
ENDBRANCH  22  23
ENDBRANCH  21  22
ENDBRANCH   2  21
TORSDOF 15
