REMARK VINA RESULT:      -6.8      1.134      1.804
REMARK  Name = D02RQU
REMARK  18 active torsions:
REMARK  status: ('A' for Active; 'I' for Inactive)
REMARK    1  A    between atoms: O_1  and  C_10
REMARK    2  A    between atoms: O_1  and  C_23
REMARK    3  A    between atoms: O_2  and  C_15
REMARK    4  A    between atoms: O_3  and  C_21
REMARK    5  A    between atoms: O_5  and  C_24
REMARK    6  A    between atoms: O_6  and  C_30
REMARK    7  A    between atoms: C_9  and  C_12
REMARK    8  A    between atoms: C_11  and  C_20
REMARK    9  A    between atoms: C_12  and  C_17
REMARK   10  A    between atoms: C_17  and  C_21
REMARK   11  A    between atoms: C_21  and  C_22
REMARK   12  A    between atoms: C_22  and  C_24
REMARK   13  A    between atoms: C_23  and  C_25
REMARK   14  A    between atoms: C_24  and  C_26
REMARK   15  A    between atoms: C_25  and  C_27
REMARK   16  A    between atoms: C_25  and  C_28
REMARK   17  A    between atoms: C_26  and  C_30
REMARK   18  A    between atoms: C_27  and  C_29
REMARK                            x       y       z     vdW  Elec       q    Type
REMARK                         _______ _______ _______ _____ _____    ______ ____
ROOT
ATOM      1  C   UNL A   1     -14.785   7.045  45.884  0.00  0.00    +0.063 C 
ATOM      2  C   UNL A   1     -14.523   6.833  44.346  0.00  0.00    +0.007 C 
ATOM      3  C   UNL A   1     -14.102   8.247  46.641  0.00  0.00    +0.187 C 
ATOM      4  C   UNL A   1     -15.140   5.464  43.897  0.00  0.00    +0.012 C 
ATOM      5  C   UNL A   1     -16.297   6.955  46.160  0.00  0.00    -0.042 C 
ATOM      6  C   UNL A   1     -15.071   9.387  46.963  0.00  0.00    +0.080 C 
ATOM      7  C   UNL A   1     -16.266   8.877  47.753  0.00  0.00    +0.141 C 
ATOM      8  C   UNL A   1     -16.556   5.300  44.380  0.00  0.00    -0.023 C 
ATOM      9  C   UNL A   1     -16.930   7.747  47.044  0.00  0.00    +0.008 C 
ATOM     10  C   UNL A   1     -17.065   5.980  45.412  0.00  0.00    -0.000 C 
ATOM     11  C   UNL A   1     -14.354   4.224  44.356  0.00  0.00    +0.012 C 
ENDROOT
BRANCH   7  12
ATOM     12  O   UNL A   1     -15.851   8.437  49.037  0.00  0.00    -0.388 OA
ATOM     13  H   UNL A   1     -15.023   7.939  48.933  0.00  0.00    +0.210 HD
ENDBRANCH   7  12
BRANCH   3  14
ATOM     14  O   UNL A   1     -12.999   8.815  45.913  0.00  0.00    -0.460 OA
BRANCH  14  16
ATOM     15  O   UNL A   1     -11.805   9.253  47.816  0.00  0.00    -0.251 OA
ATOM     16  C   UNL A   1     -11.868   9.134  46.597  0.00  0.00    +0.310 C 
BRANCH  16  17
ATOM     17  C   UNL A   1     -10.676   9.250  45.647  0.00  0.00    +0.094 C 
ATOM     18  C   UNL A   1      -9.794  10.443  46.023  0.00  0.00    +0.019 C 
BRANCH  17  19
ATOM     19  C   UNL A   1      -9.885   7.927  45.646  0.00  0.00    +0.011 C 
ATOM     20  C   UNL A   1      -9.361   7.508  44.280  0.00  0.00    +0.004 C 
ENDBRANCH  17  19
ENDBRANCH  16  17
ENDBRANCH  14  16
ENDBRANCH   3  14
BRANCH   2  21
ATOM     21  C   UNL A   1     -13.040   6.948  43.935  0.00  0.00    +0.007 C 
BRANCH  21  22
ATOM     22  C   UNL A   1     -12.709   6.793  42.447  0.00  0.00    +0.032 C 
BRANCH  22  23
ATOM     23  C   UNL A   1     -12.267   8.144  41.863  0.00  0.00    +0.117 C 
BRANCH  23  24
ATOM     24  O   UNL A   1     -11.886   7.957  40.503  0.00  0.00    -0.392 OA
ATOM     25  H   UNL A   1     -12.521   8.419  39.933  0.00  0.00    +0.210 HD
ENDBRANCH  23  24
BRANCH  23  26
ATOM     26  C   UNL A   1     -13.397   9.170  41.967  0.00  0.00    +0.063 C 
BRANCH  26  27
ATOM     27  C   UNL A   1     -12.970  10.583  41.534  0.00  0.00    +0.128 C 
BRANCH  27  28
ATOM     28  O   UNL A   1     -11.577  10.618  41.223  0.00  0.00    -0.391 OA
ATOM     29  H   UNL A   1     -11.461  10.781  40.274  0.00  0.00    +0.210 HD
ENDBRANCH  27  28
BRANCH  27  30
ATOM     30  C   UNL A   1     -13.749  11.003  40.291  0.00  0.00    +0.151 C 
BRANCH  30  32
ATOM     31  O   UNL A   1     -12.352  12.153  38.635  0.00  0.00    -0.251 OA
ATOM     32  C   UNL A   1     -12.850  11.141  39.095  0.00  0.00    +0.307 C 
BRANCH  32  33
ATOM     33  O   UNL A   1     -12.678   9.957  38.469  0.00  0.00    -0.481 OA
ATOM     34  H   UNL A   1     -12.386   9.362  39.191  0.00  0.00    +0.295 HD
ENDBRANCH  32  33
ENDBRANCH  30  32
ENDBRANCH  27  30
ENDBRANCH  26  27
ENDBRANCH  23  26
ENDBRANCH  22  23
ENDBRANCH  21  22
ENDBRANCH   2  21
TORSDOF 15
