REMARK VINA RESULT:      -7.1      9.450     11.822
REMARK  Name = D02RQU
REMARK  18 active torsions:
REMARK  status: ('A' for Active; 'I' for Inactive)
REMARK    1  A    between atoms: O_1  and  C_10
REMARK    2  A    between atoms: O_1  and  C_23
REMARK    3  A    between atoms: O_2  and  C_15
REMARK    4  A    between atoms: O_3  and  C_21
REMARK    5  A    between atoms: O_5  and  C_24
REMARK    6  A    between atoms: O_6  and  C_30
REMARK    7  A    between atoms: C_9  and  C_12
REMARK    8  A    between atoms: C_11  and  C_20
REMARK    9  A    between atoms: C_12  and  C_17
REMARK   10  A    between atoms: C_17  and  C_21
REMARK   11  A    between atoms: C_21  and  C_22
REMARK   12  A    between atoms: C_22  and  C_24
REMARK   13  A    between atoms: C_23  and  C_25
REMARK   14  A    between atoms: C_24  and  C_26
REMARK   15  A    between atoms: C_25  and  C_27
REMARK   16  A    between atoms: C_25  and  C_28
REMARK   17  A    between atoms: C_26  and  C_30
REMARK   18  A    between atoms: C_27  and  C_29
REMARK                            x       y       z     vdW  Elec       q    Type
REMARK                         _______ _______ _______ _____ _____    ______ ____
ROOT
ATOM      1  C   UNL A   1      -3.398   4.173  45.333  0.00  0.00    +0.063 C 
ATOM      2  C   UNL A   1      -3.338   2.687  44.814  0.00  0.00    +0.007 C 
ATOM      3  C   UNL A   1      -4.685   4.694  46.079  0.00  0.00    +0.187 C 
ATOM      4  C   UNL A   1      -2.056   2.495  43.934  0.00  0.00    +0.012 C 
ATOM      5  C   UNL A   1      -2.100   4.498  46.093  0.00  0.00    -0.042 C 
ATOM      6  C   UNL A   1      -4.489   4.842  47.589  0.00  0.00    +0.080 C 
ATOM      7  C   UNL A   1      -3.300   5.738  47.898  0.00  0.00    +0.141 C 
ATOM      8  C   UNL A   1      -0.824   3.036  44.609  0.00  0.00    -0.023 C 
ATOM      9  C   UNL A   1      -2.072   5.250  47.209  0.00  0.00    +0.008 C 
ATOM     10  C   UNL A   1      -0.860   3.949  45.584  0.00  0.00    -0.000 C 
ATOM     11  C   UNL A   1      -2.132   3.139  42.538  0.00  0.00    +0.012 C 
ENDROOT
BRANCH   7  12
ATOM     12  O   UNL A   1      -3.568   7.067  47.479  0.00  0.00    -0.388 OA
ATOM     13  H   UNL A   1      -3.793   7.593  48.263  0.00  0.00    +0.210 HD
ENDBRANCH   7  12
BRANCH   3  14
ATOM     14  O   UNL A   1      -5.832   3.852  45.876  0.00  0.00    -0.460 OA
BRANCH  14  16
ATOM     15  O   UNL A   1      -7.431   5.444  45.492  0.00  0.00    -0.251 OA
ATOM     16  C   UNL A   1      -7.069   4.398  46.020  0.00  0.00    +0.310 C 
BRANCH  16  17
ATOM     17  C   UNL A   1      -7.966   3.493  46.865  0.00  0.00    +0.094 C 
ATOM     18  C   UNL A   1      -7.149   2.386  47.533  0.00  0.00    +0.019 C 
BRANCH  17  19
ATOM     19  C   UNL A   1      -8.735   4.344  47.896  0.00  0.00    +0.011 C 
ATOM     20  C   UNL A   1      -8.851   3.709  49.274  0.00  0.00    +0.004 C 
ENDBRANCH  17  19
ENDBRANCH  16  17
ENDBRANCH  14  16
ENDBRANCH   3  14
BRANCH   2  21
ATOM     21  C   UNL A   1      -4.609   2.225  44.072  0.00  0.00    +0.007 C 
BRANCH  21  22
ATOM     22  C   UNL A   1      -5.147   0.828  44.403  0.00  0.00    +0.032 C 
BRANCH  22  23
ATOM     23  C   UNL A   1      -6.576   0.673  43.861  0.00  0.00    +0.117 C 
BRANCH  23  24
ATOM     24  O   UNL A   1      -7.160   1.965  43.720  0.00  0.00    -0.392 OA
ATOM     25  H   UNL A   1      -7.420   2.289  44.597  0.00  0.00    +0.210 HD
ENDBRANCH  23  24
BRANCH  23  26
ATOM     26  C   UNL A   1      -6.565  -0.059  42.518  0.00  0.00    +0.063 C 
BRANCH  26  27
ATOM     27  C   UNL A   1      -7.884  -0.790  42.218  0.00  0.00    +0.128 C 
BRANCH  27  28
ATOM     28  O   UNL A   1      -8.887   0.129  41.785  0.00  0.00    -0.391 OA
ATOM     29  H   UNL A   1      -8.886   0.177  40.817  0.00  0.00    +0.210 HD
ENDBRANCH  27  28
BRANCH  27  30
ATOM     30  C   UNL A   1      -7.668  -1.819  41.112  0.00  0.00    +0.151 C 
BRANCH  30  32
ATOM     31  O   UNL A   1      -8.500  -0.967  38.968  0.00  0.00    -0.251 OA
ATOM     32  C   UNL A   1      -8.640  -1.628  39.981  0.00  0.00    +0.307 C 
BRANCH  32  33
ATOM     33  O   UNL A   1      -9.814  -2.246  40.230  0.00  0.00    -0.481 OA
ATOM     34  H   UNL A   1      -9.965  -2.775  39.420  0.00  0.00    +0.295 HD
ENDBRANCH  32  33
ENDBRANCH  30  32
ENDBRANCH  27  30
ENDBRANCH  26  27
ENDBRANCH  23  26
ENDBRANCH  22  23
ENDBRANCH  21  22
ENDBRANCH   2  21
TORSDOF 15
