REMARK VINA RESULT:      -6.8      1.606      2.080
REMARK  Name = D02RQU
REMARK  18 active torsions:
REMARK  status: ('A' for Active; 'I' for Inactive)
REMARK    1  A    between atoms: O_1  and  C_10
REMARK    2  A    between atoms: O_1  and  C_23
REMARK    3  A    between atoms: O_2  and  C_15
REMARK    4  A    between atoms: O_3  and  C_21
REMARK    5  A    between atoms: O_5  and  C_24
REMARK    6  A    between atoms: O_6  and  C_30
REMARK    7  A    between atoms: C_9  and  C_12
REMARK    8  A    between atoms: C_11  and  C_20
REMARK    9  A    between atoms: C_12  and  C_17
REMARK   10  A    between atoms: C_17  and  C_21
REMARK   11  A    between atoms: C_21  and  C_22
REMARK   12  A    between atoms: C_22  and  C_24
REMARK   13  A    between atoms: C_23  and  C_25
REMARK   14  A    between atoms: C_24  and  C_26
REMARK   15  A    between atoms: C_25  and  C_27
REMARK   16  A    between atoms: C_25  and  C_28
REMARK   17  A    between atoms: C_26  and  C_30
REMARK   18  A    between atoms: C_27  and  C_29
REMARK                            x       y       z     vdW  Elec       q    Type
REMARK                         _______ _______ _______ _____ _____    ______ ____
ROOT
ATOM      1  C   UNL A   1     -14.650   8.541  46.827  0.00  0.00    +0.063 C 
ATOM      2  C   UNL A   1     -14.683   7.466  45.677  0.00  0.00    +0.007 C 
ATOM      3  C   UNL A   1     -14.457  10.065  46.474  0.00  0.00    +0.187 C 
ATOM      4  C   UNL A   1     -14.671   6.031  46.306  0.00  0.00    +0.012 C 
ATOM      5  C   UNL A   1     -15.832   8.300  47.783  0.00  0.00    -0.042 C 
ATOM      6  C   UNL A   1     -15.742  10.883  46.608  0.00  0.00    +0.080 C 
ATOM      7  C   UNL A   1     -16.338  10.735  47.999  0.00  0.00    +0.141 C 
ATOM      8  C   UNL A   1     -15.689   5.890  47.406  0.00  0.00    -0.023 C 
ATOM      9  C   UNL A   1     -16.539   9.299  48.343  0.00  0.00    +0.008 C 
ATOM     10  C   UNL A   1     -16.203   6.929  48.071  0.00  0.00    -0.000 C 
ATOM     11  C   UNL A   1     -13.313   5.593  46.882  0.00  0.00    +0.012 C 
ENDROOT
BRANCH   7  12
ATOM     12  O   UNL A   1     -15.481  11.326  48.963  0.00  0.00    -0.388 OA
ATOM     13  H   UNL A   1     -15.022  10.613  49.438  0.00  0.00    +0.210 HD
ENDBRANCH   7  12
BRANCH   3  14
ATOM     14  O   UNL A   1     -13.953  10.274  45.144  0.00  0.00    -0.460 OA
BRANCH  14  16
ATOM     15  O   UNL A   1     -12.825  11.863  43.942  0.00  0.00    -0.251 OA
ATOM     16  C   UNL A   1     -12.970  11.196  44.961  0.00  0.00    +0.310 C 
BRANCH  16  17
ATOM     17  C   UNL A   1     -12.120  11.339  46.224  0.00  0.00    +0.094 C 
ATOM     18  C   UNL A   1     -10.748  10.689  46.035  0.00  0.00    +0.019 C 
BRANCH  17  19
ATOM     19  C   UNL A   1     -12.004  12.829  46.603  0.00  0.00    +0.011 C 
ATOM     20  C   UNL A   1     -12.606  13.184  47.956  0.00  0.00    +0.004 C 
ENDBRANCH  17  19
ENDBRANCH  16  17
ENDBRANCH  14  16
ENDBRANCH   3  14
BRANCH   2  21
ATOM     21  C   UNL A   1     -13.569   7.632  44.623  0.00  0.00    +0.007 C 
BRANCH  21  22
ATOM     22  C   UNL A   1     -13.753   6.905  43.286  0.00  0.00    +0.032 C 
BRANCH  22  23
ATOM     23  C   UNL A   1     -12.634   7.306  42.312  0.00  0.00    +0.117 C 
BRANCH  23  24
ATOM     24  O   UNL A   1     -11.768   6.191  42.119  0.00  0.00    -0.392 OA
ATOM     25  H   UNL A   1     -11.464   5.876  42.985  0.00  0.00    +0.210 HD
ENDBRANCH  23  24
BRANCH  23  26
ATOM     26  C   UNL A   1     -13.223   7.763  40.976  0.00  0.00    +0.063 C 
BRANCH  26  27
ATOM     27  C   UNL A   1     -12.535   9.017  40.411  0.00  0.00    +0.128 C 
BRANCH  27  28
ATOM     28  O   UNL A   1     -12.326   8.890  39.005  0.00  0.00    -0.391 OA
ATOM     29  H   UNL A   1     -11.489   8.429  38.842  0.00  0.00    +0.210 HD
ENDBRANCH  27  28
BRANCH  27  30
ATOM     30  C   UNL A   1     -13.407  10.244  40.657  0.00  0.00    +0.151 C 
BRANCH  30  32
ATOM     31  O   UNL A   1     -12.420  11.972  39.223  0.00  0.00    -0.251 OA
ATOM     32  C   UNL A   1     -13.330  11.217  39.513  0.00  0.00    +0.307 C 
BRANCH  32  33
ATOM     33  O   UNL A   1     -14.481  11.240  38.808  0.00  0.00    -0.481 OA
ATOM     34  H   UNL A   1     -14.434  10.420  38.274  0.00  0.00    +0.295 HD
ENDBRANCH  32  33
ENDBRANCH  30  32
ENDBRANCH  27  30
ENDBRANCH  26  27
ENDBRANCH  23  26
ENDBRANCH  22  23
ENDBRANCH  21  22
ENDBRANCH   2  21
TORSDOF 15
