REMARK VINA RESULT:      -7.2      0.000      0.000
REMARK  Name = D02RQU
REMARK  18 active torsions:
REMARK  status: ('A' for Active; 'I' for Inactive)
REMARK    1  A    between atoms: O_1  and  C_10
REMARK    2  A    between atoms: O_1  and  C_23
REMARK    3  A    between atoms: O_2  and  C_15
REMARK    4  A    between atoms: O_3  and  C_21
REMARK    5  A    between atoms: O_5  and  C_24
REMARK    6  A    between atoms: O_6  and  C_30
REMARK    7  A    between atoms: C_9  and  C_12
REMARK    8  A    between atoms: C_11  and  C_20
REMARK    9  A    between atoms: C_12  and  C_17
REMARK   10  A    between atoms: C_17  and  C_21
REMARK   11  A    between atoms: C_21  and  C_22
REMARK   12  A    between atoms: C_22  and  C_24
REMARK   13  A    between atoms: C_23  and  C_25
REMARK   14  A    between atoms: C_24  and  C_26
REMARK   15  A    between atoms: C_25  and  C_27
REMARK   16  A    between atoms: C_25  and  C_28
REMARK   17  A    between atoms: C_26  and  C_30
REMARK   18  A    between atoms: C_27  and  C_29
REMARK                            x       y       z     vdW  Elec       q    Type
REMARK                         _______ _______ _______ _____ _____    ______ ____
ROOT
ATOM      1  C   UNL A   1     -14.803   7.191  46.019  0.00  0.00    +0.063 C 
ATOM      2  C   UNL A   1     -14.555   7.018  44.474  0.00  0.00    +0.007 C 
ATOM      3  C   UNL A   1     -14.172   8.416  46.786  0.00  0.00    +0.187 C 
ATOM      4  C   UNL A   1     -15.106   5.626  44.011  0.00  0.00    +0.012 C 
ATOM      5  C   UNL A   1     -16.303   7.016  46.316  0.00  0.00    -0.042 C 
ATOM      6  C   UNL A   1     -15.195   9.496  47.142  0.00  0.00    +0.080 C 
ATOM      7  C   UNL A   1     -16.348   8.911  47.942  0.00  0.00    +0.141 C 
ATOM      8  C   UNL A   1     -16.503   5.379  44.513  0.00  0.00    -0.023 C 
ATOM      9  C   UNL A   1     -16.964   7.759  47.223  0.00  0.00    +0.008 C 
ATOM     10  C   UNL A   1     -17.031   6.014  45.564  0.00  0.00    -0.000 C 
ATOM     11  C   UNL A   1     -14.248   4.422  44.436  0.00  0.00    +0.012 C 
ENDROOT
BRANCH   7  12
ATOM     12  O   UNL A   1     -15.890   8.472  49.211  0.00  0.00    -0.388 OA
ATOM     13  H   UNL A   1     -16.606   8.604  49.854  0.00  0.00    +0.210 HD
ENDBRANCH   7  12
BRANCH   3  14
ATOM     14  O   UNL A   1     -13.114   9.053  46.051  0.00  0.00    -0.460 OA
BRANCH  14  16
ATOM     15  O   UNL A   1     -11.652   9.470  47.763  0.00  0.00    -0.251 OA
ATOM     16  C   UNL A   1     -12.222   9.819  46.734  0.00  0.00    +0.310 C 
BRANCH  16  17
ATOM     17  C   UNL A   1     -11.973  11.141  46.006  0.00  0.00    +0.094 C 
ATOM     18  C   UNL A   1     -13.044  11.386  44.942  0.00  0.00    +0.019 C 
BRANCH  17  19
ATOM     19  C   UNL A   1     -11.906  12.291  47.031  0.00  0.00    +0.011 C 
ATOM     20  C   UNL A   1     -13.250  12.681  47.629  0.00  0.00    +0.004 C 
ENDBRANCH  17  19
ENDBRANCH  16  17
ENDBRANCH  14  16
ENDBRANCH   3  14
BRANCH   2  21
ATOM     21  C   UNL A   1     -13.087   7.219  44.043  0.00  0.00    +0.007 C 
BRANCH  21  22
ATOM     22  C   UNL A   1     -12.732   6.892  42.588  0.00  0.00    +0.032 C 
BRANCH  22  23
ATOM     23  C   UNL A   1     -12.320   8.173  41.847  0.00  0.00    +0.117 C 
BRANCH  23  24
ATOM     24  O   UNL A   1     -11.984   7.842  40.503  0.00  0.00    -0.392 OA
ATOM     25  H   UNL A   1     -11.217   7.247  40.509  0.00  0.00    +0.210 HD
ENDBRANCH  23  24
BRANCH  23  26
ATOM     26  C   UNL A   1     -13.455   9.199  41.877  0.00  0.00    +0.063 C 
BRANCH  26  27
ATOM     27  C   UNL A   1     -13.006  10.608  41.454  0.00  0.00    +0.128 C 
BRANCH  27  28
ATOM     28  O   UNL A   1     -11.604  10.634  41.187  0.00  0.00    -0.391 OA
ATOM     29  H   UNL A   1     -11.457  10.685  40.230  0.00  0.00    +0.210 HD
ENDBRANCH  27  28
BRANCH  27  30
ATOM     30  C   UNL A   1     -13.743  11.030  40.186  0.00  0.00    +0.151 C 
BRANCH  30  32
ATOM     31  O   UNL A   1     -12.309  12.153  38.544  0.00  0.00    -0.251 OA
ATOM     32  C   UNL A   1     -12.808  11.147  39.015  0.00  0.00    +0.307 C 
BRANCH  32  33
ATOM     33  O   UNL A   1     -12.600   9.949  38.429  0.00  0.00    -0.481 OA
ATOM     34  H   UNL A   1     -12.685   9.317  39.173  0.00  0.00    +0.295 HD
ENDBRANCH  32  33
ENDBRANCH  30  32
ENDBRANCH  27  30
ENDBRANCH  26  27
ENDBRANCH  23  26
ENDBRANCH  22  23
ENDBRANCH  21  22
ENDBRANCH   2  21
TORSDOF 15
