REMARK VINA RESULT:      -7.0      3.671      5.766
REMARK  Name = D0JE2E
REMARK  16 active torsions:
REMARK  status: ('A' for Active; 'I' for Inactive)
REMARK    1  A    between atoms: S_1  and  N_10
REMARK    2  A    between atoms: S_1  and  C_30
REMARK    3  A    between atoms: O_3  and  C_16
REMARK    4  A    between atoms: O_4  and  C_17
REMARK    5  A    between atoms: O_7  and  C_29
REMARK    6  A    between atoms: N_10  and  C_26
REMARK    7  A    between atoms: C_12  and  C_13
REMARK    8  A    between atoms: C_12  and  C_21
REMARK    9  A    between atoms: C_12  and  C_22
REMARK   10  A    between atoms: C_14  and  C_16
REMARK   11  A    between atoms: C_14  and  C_17
REMARK   12  A    between atoms: C_15  and  C_19
REMARK   13  A    between atoms: C_16  and  C_20
REMARK   14  A    between atoms: C_17  and  C_23
REMARK   15  A    between atoms: C_18  and  C_25
REMARK   16  A    between atoms: C_23  and  C_29
REMARK                            x       y       z     vdW  Elec       q    Type
REMARK                         _______ _______ _______ _____ _____    ______ ____
ROOT
ATOM      1  N   UNL A   1     -17.687   8.575  49.319  0.00  0.00    -0.217 NA
ATOM      2  N   UNL A   1     -19.416   7.014  49.504  0.00  0.00    -0.178 N 
ATOM      3  N   UNL A   1     -17.553   6.527  48.134  0.00  0.00    -0.212 NA
ATOM      4  C   UNL A   1     -16.548   9.003  48.715  0.00  0.00    +0.057 A 
ATOM      5  C   UNL A   1     -15.881   8.212  47.790  0.00  0.00    +0.022 A 
ATOM      6  C   UNL A   1     -16.452   6.973  47.484  0.00  0.00    +0.084 A 
ATOM      7  C   UNL A   1     -18.138   7.357  48.993  0.00  0.00    +0.238 A 
ATOM      8  C   UNL A   1     -19.987   7.851  50.567  0.00  0.00    +0.160 C 
ENDROOT
BRANCH   6  10
ATOM      9  F   UNL A   1     -14.101   3.749  43.492  0.00  0.00    -0.205 F 
ATOM     10  C   UNL A   1     -15.919   6.032  46.457  0.00  0.00    +0.001 A 
ATOM     11  C   UNL A   1     -14.868   5.153  46.759  0.00  0.00    +0.013 A 
ATOM     12  C   UNL A   1     -16.396   6.023  45.125  0.00  0.00    +0.013 A 
ATOM     13  C   UNL A   1     -14.273   4.363  45.763  0.00  0.00    +0.039 A 
ATOM     14  C   UNL A   1     -15.769   5.285  44.119  0.00  0.00    +0.039 A 
ATOM     15  C   UNL A   1     -14.712   4.456  44.450  0.00  0.00    +0.123 A 
ENDBRANCH   6  10
BRANCH   2  16
ATOM     16  S   UNL A   1     -20.055   5.492  49.235  0.00  0.00    +0.045 S 
ATOM     17  O   UNL A   1     -20.828   5.552  48.003  0.00  0.00    -0.155 OA
ATOM     18  O   UNL A   1     -19.060   4.453  49.387  0.00  0.00    -0.155 OA
ATOM     19  C   UNL A   1     -21.248   5.301  50.546  0.00  0.00    +0.218 C 
ENDBRANCH   2  16
BRANCH   4  20
ATOM     20  C   UNL A   1     -16.051  10.391  49.102  0.00  0.00    +0.032 C 
ATOM     21  C   UNL A   1     -16.829  11.485  48.371  0.00  0.00    +0.014 C 
ATOM     22  C   UNL A   1     -16.094  10.578  50.616  0.00  0.00    +0.014 C 
ENDBRANCH   4  20
BRANCH   5  23
ATOM     23  C   UNL A   1     -14.650   8.696  47.173  0.00  0.00    +0.010 C 
ATOM     24  C   UNL A   1     -13.448   8.467  47.712  0.00  0.00    +0.005 C 
BRANCH  24  25
ATOM     25  C   UNL A   1     -12.151   8.804  47.046  0.00  0.00    +0.140 C 
BRANCH  25  26
ATOM     26  O   UNL A   1     -11.109   8.086  47.691  0.00  0.00    -0.388 OA
ATOM     27  H   UNL A   1     -10.323   8.653  47.700  0.00  0.00    +0.210 HD
ENDBRANCH  25  26
BRANCH  25  28
ATOM     28  C   UNL A   1     -12.260   8.465  45.561  0.00  0.00    +0.067 C 
BRANCH  28  29
ATOM     29  C   UNL A   1     -12.169   9.713  44.685  0.00  0.00    +0.128 C 
BRANCH  29  30
ATOM     30  O   UNL A   1     -13.373   9.865  43.938  0.00  0.00    -0.391 OA
ATOM     31  H   UNL A   1     -13.396  10.742  43.529  0.00  0.00    +0.210 HD
ENDBRANCH  29  30
BRANCH  29  32
ATOM     32  C   UNL A   1     -11.960  10.956  45.541  0.00  0.00    +0.151 C 
BRANCH  32  34
ATOM     33  O   UNL A   1     -12.944  12.816  44.283  0.00  0.00    -0.251 OA
ATOM     34  C   UNL A   1     -12.975  12.007  45.191  0.00  0.00    +0.307 C 
BRANCH  34  35
ATOM     35  O   UNL A   1     -14.012  12.006  46.053  0.00  0.00    -0.481 OA
ATOM     36  H   UNL A   1     -14.391  12.902  45.925  0.00  0.00    +0.295 HD
ENDBRANCH  34  35
ENDBRANCH  32  34
ENDBRANCH  29  32
ENDBRANCH  28  29
ENDBRANCH  25  28
ENDBRANCH  24  25
ENDBRANCH   5  23
TORSDOF 12
