REMARK VINA RESULT:      -7.0     16.587     19.993
REMARK  Name = D0JE2E
REMARK  16 active torsions:
REMARK  status: ('A' for Active; 'I' for Inactive)
REMARK    1  A    between atoms: S_1  and  N_10
REMARK    2  A    between atoms: S_1  and  C_30
REMARK    3  A    between atoms: O_3  and  C_16
REMARK    4  A    between atoms: O_4  and  C_17
REMARK    5  A    between atoms: O_7  and  C_29
REMARK    6  A    between atoms: N_10  and  C_26
REMARK    7  A    between atoms: C_12  and  C_13
REMARK    8  A    between atoms: C_12  and  C_21
REMARK    9  A    between atoms: C_12  and  C_22
REMARK   10  A    between atoms: C_14  and  C_16
REMARK   11  A    between atoms: C_14  and  C_17
REMARK   12  A    between atoms: C_15  and  C_19
REMARK   13  A    between atoms: C_16  and  C_20
REMARK   14  A    between atoms: C_17  and  C_23
REMARK   15  A    between atoms: C_18  and  C_25
REMARK   16  A    between atoms: C_23  and  C_29
REMARK                            x       y       z     vdW  Elec       q    Type
REMARK                         _______ _______ _______ _____ _____    ______ ____
ROOT
ATOM      1  N   UNL A   1     -27.773  -3.646  52.338  0.00  0.00    -0.217 NA
ATOM      2  N   UNL A   1     -29.364  -5.344  52.549  0.00  0.00    -0.178 N 
ATOM      3  N   UNL A   1     -27.140  -5.901  51.976  0.00  0.00    -0.212 NA
ATOM      4  C   UNL A   1     -26.534  -3.234  51.961  0.00  0.00    +0.057 A 
ATOM      5  C   UNL A   1     -25.562  -4.143  51.565  0.00  0.00    +0.022 A 
ATOM      6  C   UNL A   1     -25.925  -5.493  51.541  0.00  0.00    +0.084 A 
ATOM      7  C   UNL A   1     -28.017  -4.963  52.322  0.00  0.00    +0.238 A 
ATOM      8  C   UNL A   1     -30.291  -4.337  53.080  0.00  0.00    +0.160 C 
ENDROOT
BRANCH   6  10
ATOM      9  F   UNL A   1     -22.954  -9.950  49.762  0.00  0.00    -0.205 F 
ATOM     10  C   UNL A   1     -25.038  -6.593  51.066  0.00  0.00    +0.001 A 
ATOM     11  C   UNL A   1     -24.936  -6.900  49.701  0.00  0.00    +0.013 A 
ATOM     12  C   UNL A   1     -24.313  -7.415  51.961  0.00  0.00    +0.013 A 
ATOM     13  C   UNL A   1     -24.210  -8.017  49.260  0.00  0.00    +0.039 A 
ATOM     14  C   UNL A   1     -23.640  -8.561  51.534  0.00  0.00    +0.039 A 
ATOM     15  C   UNL A   1     -23.592  -8.850  50.181  0.00  0.00    +0.123 A 
ENDBRANCH   6  10
BRANCH   2  16
ATOM     16  S   UNL A   1     -29.784  -6.961  52.633  0.00  0.00    +0.045 S 
ATOM     17  O   UNL A   1     -29.562  -7.540  51.316  0.00  0.00    -0.155 OA
ATOM     18  O   UNL A   1     -29.208  -7.610  53.790  0.00  0.00    -0.155 OA
ATOM     19  C   UNL A   1     -31.553  -6.923  52.853  0.00  0.00    +0.218 C 
ENDBRANCH   2  16
BRANCH   4  20
ATOM     20  C   UNL A   1     -26.277  -1.733  51.989  0.00  0.00    +0.032 C 
ATOM     21  C   UNL A   1     -27.290  -0.977  51.128  0.00  0.00    +0.014 C 
ATOM     22  C   UNL A   1     -26.253  -1.215  53.424  0.00  0.00    +0.014 C 
ENDBRANCH   4  20
BRANCH   5  23
ATOM     23  C   UNL A   1     -24.236  -3.667  51.182  0.00  0.00    +0.010 C 
ATOM     24  C   UNL A   1     -23.261  -3.484  52.079  0.00  0.00    +0.005 C 
BRANCH  24  25
ATOM     25  C   UNL A   1     -21.846  -3.148  51.725  0.00  0.00    +0.140 C 
BRANCH  25  26
ATOM     26  O   UNL A   1     -21.774  -2.903  50.328  0.00  0.00    -0.388 OA
ATOM     27  H   UNL A   1     -21.849  -3.757  49.876  0.00  0.00    +0.210 HD
ENDBRANCH  25  26
BRANCH  25  28
ATOM     28  C   UNL A   1     -21.408  -1.941  52.552  0.00  0.00    +0.067 C 
BRANCH  28  29
ATOM     29  C   UNL A   1     -20.455  -2.340  53.677  0.00  0.00    +0.128 C 
BRANCH  29  30
ATOM     30  O   UNL A   1     -21.188  -2.527  54.884  0.00  0.00    -0.391 OA
ATOM     31  H   UNL A   1     -21.762  -3.303  54.801  0.00  0.00    +0.210 HD
ENDBRANCH  29  30
BRANCH  29  32
ATOM     32  C   UNL A   1     -19.732  -3.637  53.334  0.00  0.00    +0.151 C 
BRANCH  32  34
ATOM     33  O   UNL A   1     -19.009  -4.465  55.525  0.00  0.00    -0.251 OA
ATOM     34  C   UNL A   1     -19.700  -4.548  54.528  0.00  0.00    +0.307 C 
BRANCH  34  35
ATOM     35  O   UNL A   1     -20.559  -5.579  54.392  0.00  0.00    -0.481 OA
ATOM     36  H   UNL A   1     -20.216  -6.031  53.592  0.00  0.00    +0.295 HD
ENDBRANCH  34  35
ENDBRANCH  32  34
ENDBRANCH  29  32
ENDBRANCH  28  29
ENDBRANCH  25  28
ENDBRANCH  24  25
ENDBRANCH   5  23
TORSDOF 12
