REMARK VINA RESULT:      -7.2      2.450      4.715
REMARK  Name = D0JE2E
REMARK  16 active torsions:
REMARK  status: ('A' for Active; 'I' for Inactive)
REMARK    1  A    between atoms: S_1  and  N_10
REMARK    2  A    between atoms: S_1  and  C_30
REMARK    3  A    between atoms: O_3  and  C_16
REMARK    4  A    between atoms: O_4  and  C_17
REMARK    5  A    between atoms: O_7  and  C_29
REMARK    6  A    between atoms: N_10  and  C_26
REMARK    7  A    between atoms: C_12  and  C_13
REMARK    8  A    between atoms: C_12  and  C_21
REMARK    9  A    between atoms: C_12  and  C_22
REMARK   10  A    between atoms: C_14  and  C_16
REMARK   11  A    between atoms: C_14  and  C_17
REMARK   12  A    between atoms: C_15  and  C_19
REMARK   13  A    between atoms: C_16  and  C_20
REMARK   14  A    between atoms: C_17  and  C_23
REMARK   15  A    between atoms: C_18  and  C_25
REMARK   16  A    between atoms: C_23  and  C_29
REMARK                            x       y       z     vdW  Elec       q    Type
REMARK                         _______ _______ _______ _____ _____    ______ ____
ROOT
ATOM      1  N   UNL A   1     -13.350   9.861  47.487  0.00  0.00    -0.217 NA
ATOM      2  N   UNL A   1     -14.518   9.122  49.370  0.00  0.00    -0.178 N 
ATOM      3  N   UNL A   1     -14.516   7.799  47.412  0.00  0.00    -0.212 NA
ATOM      4  C   UNL A   1     -13.050   9.743  46.167  0.00  0.00    +0.057 A 
ATOM      5  C   UNL A   1     -13.486   8.655  45.423  0.00  0.00    +0.022 A 
ATOM      6  C   UNL A   1     -14.272   7.707  46.084  0.00  0.00    +0.084 A 
ATOM      7  C   UNL A   1     -14.075   8.883  48.045  0.00  0.00    +0.238 A 
ATOM      8  C   UNL A   1     -13.911  10.231  50.117  0.00  0.00    +0.160 C 
ENDROOT
BRANCH   6  10
ATOM      9  F   UNL A   1     -16.847   3.135  44.005  0.00  0.00    -0.205 F 
ATOM     10  C   UNL A   1     -14.892   6.522  45.424  0.00  0.00    +0.001 A 
ATOM     11  C   UNL A   1     -16.153   6.613  44.815  0.00  0.00    +0.013 A 
ATOM     12  C   UNL A   1     -14.279   5.247  45.435  0.00  0.00    +0.013 A 
ATOM     13  C   UNL A   1     -16.800   5.474  44.312  0.00  0.00    +0.039 A 
ATOM     14  C   UNL A   1     -14.943   4.102  44.991  0.00  0.00    +0.039 A 
ATOM     15  C   UNL A   1     -16.200   4.228  44.428  0.00  0.00    +0.123 A 
ENDBRANCH   6  10
BRANCH   2  16
ATOM     16  S   UNL A   1     -15.364   7.945  50.206  0.00  0.00    +0.045 S 
ATOM     17  O   UNL A   1     -16.715   7.910  49.667  0.00  0.00    -0.155 OA
ATOM     18  O   UNL A   1     -14.617   6.711  50.306  0.00  0.00    -0.155 OA
ATOM     19  C   UNL A   1     -15.515   8.625  51.848  0.00  0.00    +0.218 C 
ENDBRANCH   2  16
BRANCH   4  20
ATOM     20  C   UNL A   1     -12.223  10.866  45.553  0.00  0.00    +0.032 C 
ATOM     21  C   UNL A   1     -13.062  12.127  45.345  0.00  0.00    +0.014 C 
ATOM     22  C   UNL A   1     -10.979  11.143  46.392  0.00  0.00    +0.014 C 
ENDBRANCH   4  20
BRANCH   5  23
ATOM     23  C   UNL A   1     -13.131   8.551  44.011  0.00  0.00    +0.010 C 
ATOM     24  C   UNL A   1     -12.138   7.765  43.584  0.00  0.00    +0.005 C 
BRANCH  24  25
ATOM     25  C   UNL A   1     -11.833   7.503  42.143  0.00  0.00    +0.140 C 
BRANCH  25  26
ATOM     26  O   UNL A   1     -11.498   6.132  41.991  0.00  0.00    -0.388 OA
ATOM     27  H   UNL A   1     -10.601   6.008  42.337  0.00  0.00    +0.210 HD
ENDBRANCH  25  26
BRANCH  25  28
ATOM     28  C   UNL A   1     -13.047   7.903  41.306  0.00  0.00    +0.067 C 
BRANCH  28  29
ATOM     29  C   UNL A   1     -12.691   8.954  40.256  0.00  0.00    +0.128 C 
BRANCH  29  30
ATOM     30  O   UNL A   1     -12.297   8.310  39.047  0.00  0.00    -0.391 OA
ATOM     31  H   UNL A   1     -12.028   7.399  39.235  0.00  0.00    +0.210 HD
ENDBRANCH  29  30
BRANCH  29  32
ATOM     32  C   UNL A   1     -13.887   9.853  39.968  0.00  0.00    +0.151 C 
BRANCH  32  34
ATOM     33  O   UNL A   1     -13.596  11.958  38.746  0.00  0.00    -0.251 OA
ATOM     34  C   UNL A   1     -13.433  11.265  39.732  0.00  0.00    +0.307 C 
BRANCH  34  35
ATOM     35  O   UNL A   1     -12.744  11.750  40.786  0.00  0.00    -0.481 OA
ATOM     36  H   UNL A   1     -13.255  11.400  41.547  0.00  0.00    +0.295 HD
ENDBRANCH  34  35
ENDBRANCH  32  34
ENDBRANCH  29  32
ENDBRANCH  28  29
ENDBRANCH  25  28
ENDBRANCH  24  25
ENDBRANCH   5  23
TORSDOF 12
