REMARK VINA RESULT:      -8.1      0.000      0.000
REMARK  Name = D0JE2E
REMARK  16 active torsions:
REMARK  status: ('A' for Active; 'I' for Inactive)
REMARK    1  A    between atoms: S_1  and  N_10
REMARK    2  A    between atoms: S_1  and  C_30
REMARK    3  A    between atoms: O_3  and  C_16
REMARK    4  A    between atoms: O_4  and  C_17
REMARK    5  A    between atoms: O_7  and  C_29
REMARK    6  A    between atoms: N_10  and  C_26
REMARK    7  A    between atoms: C_12  and  C_13
REMARK    8  A    between atoms: C_12  and  C_21
REMARK    9  A    between atoms: C_12  and  C_22
REMARK   10  A    between atoms: C_14  and  C_16
REMARK   11  A    between atoms: C_14  and  C_17
REMARK   12  A    between atoms: C_15  and  C_19
REMARK   13  A    between atoms: C_16  and  C_20
REMARK   14  A    between atoms: C_17  and  C_23
REMARK   15  A    between atoms: C_18  and  C_25
REMARK   16  A    between atoms: C_23  and  C_29
REMARK                            x       y       z     vdW  Elec       q    Type
REMARK                         _______ _______ _______ _____ _____    ______ ____
ROOT
ATOM      1  N   UNL A   1     -15.703   6.397  46.677  0.00  0.00    -0.217 NA
ATOM      2  N   UNL A   1     -16.090   7.147  48.856  0.00  0.00    -0.178 N 
ATOM      3  N   UNL A   1     -14.990   8.565  47.318  0.00  0.00    -0.212 NA
ATOM      4  C   UNL A   1     -15.105   6.554  45.468  0.00  0.00    +0.057 A 
ATOM      5  C   UNL A   1     -14.418   7.718  45.149  0.00  0.00    +0.022 A 
ATOM      6  C   UNL A   1     -14.342   8.703  46.139  0.00  0.00    +0.084 A 
ATOM      7  C   UNL A   1     -15.611   7.411  47.548  0.00  0.00    +0.238 A 
ATOM      8  C   UNL A   1     -16.909   5.946  49.068  0.00  0.00    +0.160 C 
ENDROOT
BRANCH   6  10
ATOM      9  F   UNL A   1     -11.647  13.661  46.033  0.00  0.00    -0.205 F 
ATOM     10  C   UNL A   1     -13.577   9.975  46.000  0.00  0.00    +0.001 A 
ATOM     11  C   UNL A   1     -12.320  10.132  46.603  0.00  0.00    +0.013 A 
ATOM     12  C   UNL A   1     -14.102  11.098  45.318  0.00  0.00    +0.013 A 
ATOM     13  C   UNL A   1     -11.657  11.368  46.590  0.00  0.00    +0.039 A 
ATOM     14  C   UNL A   1     -13.476  12.346  45.354  0.00  0.00    +0.039 A 
ATOM     15  C   UNL A   1     -12.253  12.468  45.989  0.00  0.00    +0.123 A 
ENDBRANCH   6  10
BRANCH   2  16
ATOM     16  S   UNL A   1     -16.105   8.356  50.013  0.00  0.00    +0.045 S 
ATOM     17  O   UNL A   1     -14.730   8.575  50.434  0.00  0.00    -0.155 OA
ATOM     18  O   UNL A   1     -16.900   9.491  49.599  0.00  0.00    -0.155 OA
ATOM     19  C   UNL A   1     -16.922   7.595  51.403  0.00  0.00    +0.218 C 
ENDBRANCH   2  16
BRANCH   4  20
ATOM     20  C   UNL A   1     -15.224   5.390  44.492  0.00  0.00    +0.032 C 
ATOM     21  C   UNL A   1     -14.525   4.140  45.028  0.00  0.00    +0.014 C 
ATOM     22  C   UNL A   1     -16.685   5.121  44.147  0.00  0.00    +0.014 C 
ENDBRANCH   4  20
BRANCH   5  23
ATOM     23  C   UNL A   1     -13.802   7.861  43.833  0.00  0.00    +0.010 C 
ATOM     24  C   UNL A   1     -12.541   7.485  43.595  0.00  0.00    +0.005 C 
BRANCH  24  25
ATOM     25  C   UNL A   1     -11.912   7.464  42.237  0.00  0.00    +0.140 C 
BRANCH  25  26
ATOM     26  O   UNL A   1     -11.490   6.139  41.952  0.00  0.00    -0.388 OA
ATOM     27  H   UNL A   1     -12.063   5.793  41.251  0.00  0.00    +0.210 HD
ENDBRANCH  25  26
BRANCH  25  28
ATOM     28  C   UNL A   1     -12.927   7.985  41.221  0.00  0.00    +0.067 C 
BRANCH  28  29
ATOM     29  C   UNL A   1     -12.391   9.191  40.452  0.00  0.00    +0.128 C 
BRANCH  29  30
ATOM     30  O   UNL A   1     -12.406   8.914  39.054  0.00  0.00    -0.391 OA
ATOM     31  H   UNL A   1     -11.539   8.582  38.778  0.00  0.00    +0.210 HD
ENDBRANCH  29  30
BRANCH  29  32
ATOM     32  C   UNL A   1     -13.248  10.423  40.719  0.00  0.00    +0.151 C 
BRANCH  32  34
ATOM     33  O   UNL A   1     -12.569  11.938  38.915  0.00  0.00    -0.251 OA
ATOM     34  C   UNL A   1     -13.397  11.237  39.465  0.00  0.00    +0.307 C 
BRANCH  34  35
ATOM     35  O   UNL A   1     -14.642  11.144  38.955  0.00  0.00    -0.481 OA
ATOM     36  H   UNL A   1     -14.466  10.987  38.002  0.00  0.00    +0.295 HD
ENDBRANCH  34  35
ENDBRANCH  32  34
ENDBRANCH  29  32
ENDBRANCH  28  29
ENDBRANCH  25  28
ENDBRANCH  24  25
ENDBRANCH   5  23
TORSDOF 12
