MODEL 1
REMARK VINA RESULT:      -8.1      0.000      0.000
REMARK  Name = D0JE2E
REMARK  16 active torsions:
REMARK  status: ('A' for Active; 'I' for Inactive)
REMARK    1  A    between atoms: S_1  and  N_10
REMARK    2  A    between atoms: S_1  and  C_30
REMARK    3  A    between atoms: O_3  and  C_16
REMARK    4  A    between atoms: O_4  and  C_17
REMARK    5  A    between atoms: O_7  and  C_29
REMARK    6  A    between atoms: N_10  and  C_26
REMARK    7  A    between atoms: C_12  and  C_13
REMARK    8  A    between atoms: C_12  and  C_21
REMARK    9  A    between atoms: C_12  and  C_22
REMARK   10  A    between atoms: C_14  and  C_16
REMARK   11  A    between atoms: C_14  and  C_17
REMARK   12  A    between atoms: C_15  and  C_19
REMARK   13  A    between atoms: C_16  and  C_20
REMARK   14  A    between atoms: C_17  and  C_23
REMARK   15  A    between atoms: C_18  and  C_25
REMARK   16  A    between atoms: C_23  and  C_29
REMARK                            x       y       z     vdW  Elec       q    Type
REMARK                         _______ _______ _______ _____ _____    ______ ____
ROOT
ATOM      1  N   UNL A   1     -15.703   6.397  46.677  0.00  0.00    -0.217 NA
ATOM      2  N   UNL A   1     -16.090   7.147  48.856  0.00  0.00    -0.178 N 
ATOM      3  N   UNL A   1     -14.990   8.565  47.318  0.00  0.00    -0.212 NA
ATOM      4  C   UNL A   1     -15.105   6.554  45.468  0.00  0.00    +0.057 A 
ATOM      5  C   UNL A   1     -14.418   7.718  45.149  0.00  0.00    +0.022 A 
ATOM      6  C   UNL A   1     -14.342   8.703  46.139  0.00  0.00    +0.084 A 
ATOM      7  C   UNL A   1     -15.611   7.411  47.548  0.00  0.00    +0.238 A 
ATOM      8  C   UNL A   1     -16.909   5.946  49.068  0.00  0.00    +0.160 C 
ENDROOT
BRANCH   6  10
ATOM      9  F   UNL A   1     -11.647  13.661  46.033  0.00  0.00    -0.205 F 
ATOM     10  C   UNL A   1     -13.577   9.975  46.000  0.00  0.00    +0.001 A 
ATOM     11  C   UNL A   1     -12.320  10.132  46.603  0.00  0.00    +0.013 A 
ATOM     12  C   UNL A   1     -14.102  11.098  45.318  0.00  0.00    +0.013 A 
ATOM     13  C   UNL A   1     -11.657  11.368  46.590  0.00  0.00    +0.039 A 
ATOM     14  C   UNL A   1     -13.476  12.346  45.354  0.00  0.00    +0.039 A 
ATOM     15  C   UNL A   1     -12.253  12.468  45.989  0.00  0.00    +0.123 A 
ENDBRANCH   6  10
BRANCH   2  16
ATOM     16  S   UNL A   1     -16.105   8.356  50.013  0.00  0.00    +0.045 S 
ATOM     17  O   UNL A   1     -14.730   8.575  50.434  0.00  0.00    -0.155 OA
ATOM     18  O   UNL A   1     -16.900   9.491  49.599  0.00  0.00    -0.155 OA
ATOM     19  C   UNL A   1     -16.922   7.595  51.403  0.00  0.00    +0.218 C 
ENDBRANCH   2  16
BRANCH   4  20
ATOM     20  C   UNL A   1     -15.224   5.390  44.492  0.00  0.00    +0.032 C 
ATOM     21  C   UNL A   1     -14.525   4.140  45.028  0.00  0.00    +0.014 C 
ATOM     22  C   UNL A   1     -16.685   5.121  44.147  0.00  0.00    +0.014 C 
ENDBRANCH   4  20
BRANCH   5  23
ATOM     23  C   UNL A   1     -13.802   7.861  43.833  0.00  0.00    +0.010 C 
ATOM     24  C   UNL A   1     -12.541   7.485  43.595  0.00  0.00    +0.005 C 
BRANCH  24  25
ATOM     25  C   UNL A   1     -11.912   7.464  42.237  0.00  0.00    +0.140 C 
BRANCH  25  26
ATOM     26  O   UNL A   1     -11.490   6.139  41.952  0.00  0.00    -0.388 OA
ATOM     27  H   UNL A   1     -12.063   5.793  41.251  0.00  0.00    +0.210 HD
ENDBRANCH  25  26
BRANCH  25  28
ATOM     28  C   UNL A   1     -12.927   7.985  41.221  0.00  0.00    +0.067 C 
BRANCH  28  29
ATOM     29  C   UNL A   1     -12.391   9.191  40.452  0.00  0.00    +0.128 C 
BRANCH  29  30
ATOM     30  O   UNL A   1     -12.406   8.914  39.054  0.00  0.00    -0.391 OA
ATOM     31  H   UNL A   1     -11.539   8.582  38.778  0.00  0.00    +0.210 HD
ENDBRANCH  29  30
BRANCH  29  32
ATOM     32  C   UNL A   1     -13.248  10.423  40.719  0.00  0.00    +0.151 C 
BRANCH  32  34
ATOM     33  O   UNL A   1     -12.569  11.938  38.915  0.00  0.00    -0.251 OA
ATOM     34  C   UNL A   1     -13.397  11.237  39.465  0.00  0.00    +0.307 C 
BRANCH  34  35
ATOM     35  O   UNL A   1     -14.642  11.144  38.955  0.00  0.00    -0.481 OA
ATOM     36  H   UNL A   1     -14.466  10.987  38.002  0.00  0.00    +0.295 HD
ENDBRANCH  34  35
ENDBRANCH  32  34
ENDBRANCH  29  32
ENDBRANCH  28  29
ENDBRANCH  25  28
ENDBRANCH  24  25
ENDBRANCH   5  23
TORSDOF 12
ENDMDL
MODEL 2
REMARK VINA RESULT:      -7.7      3.130      4.973
REMARK  Name = D0JE2E
REMARK  16 active torsions:
REMARK  status: ('A' for Active; 'I' for Inactive)
REMARK    1  A    between atoms: S_1  and  N_10
REMARK    2  A    between atoms: S_1  and  C_30
REMARK    3  A    between atoms: O_3  and  C_16
REMARK    4  A    between atoms: O_4  and  C_17
REMARK    5  A    between atoms: O_7  and  C_29
REMARK    6  A    between atoms: N_10  and  C_26
REMARK    7  A    between atoms: C_12  and  C_13
REMARK    8  A    between atoms: C_12  and  C_21
REMARK    9  A    between atoms: C_12  and  C_22
REMARK   10  A    between atoms: C_14  and  C_16
REMARK   11  A    between atoms: C_14  and  C_17
REMARK   12  A    between atoms: C_15  and  C_19
REMARK   13  A    between atoms: C_16  and  C_20
REMARK   14  A    between atoms: C_17  and  C_23
REMARK   15  A    between atoms: C_18  and  C_25
REMARK   16  A    between atoms: C_23  and  C_29
REMARK                            x       y       z     vdW  Elec       q    Type
REMARK                         _______ _______ _______ _____ _____    ______ ____
ROOT
ATOM      1  N   UNL A   1     -17.212   9.021  48.662  0.00  0.00    -0.217 NA
ATOM      2  N   UNL A   1     -18.908   7.494  49.159  0.00  0.00    -0.178 N 
ATOM      3  N   UNL A   1     -17.128   6.836  47.749  0.00  0.00    -0.212 NA
ATOM      4  C   UNL A   1     -16.117   9.370  47.936  0.00  0.00    +0.057 A 
ATOM      5  C   UNL A   1     -15.500   8.465  47.082  0.00  0.00    +0.022 A 
ATOM      6  C   UNL A   1     -16.075   7.195  46.979  0.00  0.00    +0.084 A 
ATOM      7  C   UNL A   1     -17.669   7.769  48.528  0.00  0.00    +0.238 A 
ATOM      8  C   UNL A   1     -19.422   8.461  50.136  0.00  0.00    +0.160 C 
ENDROOT
BRANCH   6  10
ATOM      9  F   UNL A   1     -13.882   3.444  43.376  0.00  0.00    -0.205 F 
ATOM     10  C   UNL A   1     -15.597   6.129  46.053  0.00  0.00    +0.001 A 
ATOM     11  C   UNL A   1     -14.692   5.148  46.487  0.00  0.00    +0.013 A 
ATOM     12  C   UNL A   1     -15.975   6.089  44.690  0.00  0.00    +0.013 A 
ATOM     13  C   UNL A   1     -14.135   4.225  45.588  0.00  0.00    +0.039 A 
ATOM     14  C   UNL A   1     -15.379   5.214  43.781  0.00  0.00    +0.039 A 
ATOM     15  C   UNL A   1     -14.463   4.284  44.242  0.00  0.00    +0.123 A 
ENDBRANCH   6  10
BRANCH   2  16
ATOM     16  S   UNL A   1     -19.545   5.947  49.133  0.00  0.00    +0.045 S 
ATOM     17  O   UNL A   1     -20.421   5.853  47.975  0.00  0.00    -0.155 OA
ATOM     18  O   UNL A   1     -18.526   4.938  49.325  0.00  0.00    -0.155 OA
ATOM     19  C   UNL A   1     -20.620   5.913  50.556  0.00  0.00    +0.218 C 
ENDBRANCH   2  16
BRANCH   4  20
ATOM     20  C   UNL A   1     -15.613  10.798  48.105  0.00  0.00    +0.032 C 
ATOM     21  C   UNL A   1     -16.458  11.786  47.298  0.00  0.00    +0.014 C 
ATOM     22  C   UNL A   1     -15.550  11.178  49.581  0.00  0.00    +0.014 C 
ENDBRANCH   4  20
BRANCH   5  23
ATOM     23  C   UNL A   1     -14.316   8.867  46.331  0.00  0.00    +0.010 C 
ATOM     24  C   UNL A   1     -14.399   9.430  45.121  0.00  0.00    +0.005 C 
BRANCH  24  25
ATOM     25  C   UNL A   1     -13.233  10.000  44.376  0.00  0.00    +0.140 C 
BRANCH  25  26
ATOM     26  O   UNL A   1     -12.038   9.468  44.928  0.00  0.00    -0.388 OA
ATOM     27  H   UNL A   1     -12.254   9.102  45.800  0.00  0.00    +0.210 HD
ENDBRANCH  25  26
BRANCH  25  28
ATOM     28  C   UNL A   1     -13.389   9.667  42.894  0.00  0.00    +0.067 C 
BRANCH  28  29
ATOM     29  C   UNL A   1     -12.946  10.826  42.003  0.00  0.00    +0.128 C 
BRANCH  29  30
ATOM     30  O   UNL A   1     -11.663  10.543  41.450  0.00  0.00    -0.391 OA
ATOM     31  H   UNL A   1     -11.259  11.362  41.128  0.00  0.00    +0.210 HD
ENDBRANCH  29  30
BRANCH  29  32
ATOM     32  C   UNL A   1     -13.937  11.039  40.865  0.00  0.00    +0.151 C 
BRANCH  32  34
ATOM     33  O   UNL A   1     -12.615  11.964  39.019  0.00  0.00    -0.251 OA
ATOM     34  C   UNL A   1     -13.220  11.049  39.544  0.00  0.00    +0.307 C 
BRANCH  34  35
ATOM     35  O   UNL A   1     -13.327   9.864  38.910  0.00  0.00    -0.481 OA
ATOM     36  H   UNL A   1     -13.558  10.136  37.996  0.00  0.00    +0.295 HD
ENDBRANCH  34  35
ENDBRANCH  32  34
ENDBRANCH  29  32
ENDBRANCH  28  29
ENDBRANCH  25  28
ENDBRANCH  24  25
ENDBRANCH   5  23
TORSDOF 12
ENDMDL
MODEL 3
REMARK VINA RESULT:      -7.5      3.412      5.757
REMARK  Name = D0JE2E
REMARK  16 active torsions:
REMARK  status: ('A' for Active; 'I' for Inactive)
REMARK    1  A    between atoms: S_1  and  N_10
REMARK    2  A    between atoms: S_1  and  C_30
REMARK    3  A    between atoms: O_3  and  C_16
REMARK    4  A    between atoms: O_4  and  C_17
REMARK    5  A    between atoms: O_7  and  C_29
REMARK    6  A    between atoms: N_10  and  C_26
REMARK    7  A    between atoms: C_12  and  C_13
REMARK    8  A    between atoms: C_12  and  C_21
REMARK    9  A    between atoms: C_12  and  C_22
REMARK   10  A    between atoms: C_14  and  C_16
REMARK   11  A    between atoms: C_14  and  C_17
REMARK   12  A    between atoms: C_15  and  C_19
REMARK   13  A    between atoms: C_16  and  C_20
REMARK   14  A    between atoms: C_17  and  C_23
REMARK   15  A    between atoms: C_18  and  C_25
REMARK   16  A    between atoms: C_23  and  C_29
REMARK                            x       y       z     vdW  Elec       q    Type
REMARK                         _______ _______ _______ _____ _____    ______ ____
ROOT
ATOM      1  N   UNL A   1     -17.678   8.547  49.325  0.00  0.00    -0.217 NA
ATOM      2  N   UNL A   1     -19.418   6.997  49.490  0.00  0.00    -0.178 N 
ATOM      3  N   UNL A   1     -17.547   6.504  48.132  0.00  0.00    -0.212 NA
ATOM      4  C   UNL A   1     -16.531   8.970  48.732  0.00  0.00    +0.057 A 
ATOM      5  C   UNL A   1     -15.862   8.178  47.808  0.00  0.00    +0.022 A 
ATOM      6  C   UNL A   1     -16.439   6.944  47.493  0.00  0.00    +0.084 A 
ATOM      7  C   UNL A   1     -18.134   7.333  48.991  0.00  0.00    +0.238 A 
ATOM      8  C   UNL A   1     -19.992   7.833  50.551  0.00  0.00    +0.160 C 
ENDROOT
BRANCH   6  10
ATOM      9  F   UNL A   1     -14.085   3.728  43.497  0.00  0.00    -0.205 F 
ATOM     10  C   UNL A   1     -15.904   6.005  46.466  0.00  0.00    +0.001 A 
ATOM     11  C   UNL A   1     -14.839   5.140  46.764  0.00  0.00    +0.013 A 
ATOM     12  C   UNL A   1     -16.392   5.983  45.139  0.00  0.00    +0.013 A 
ATOM     13  C   UNL A   1     -14.244   4.352  45.767  0.00  0.00    +0.039 A 
ATOM     14  C   UNL A   1     -15.766   5.247  44.131  0.00  0.00    +0.039 A 
ATOM     15  C   UNL A   1     -14.696   4.433  44.457  0.00  0.00    +0.123 A 
ENDBRANCH   6  10
BRANCH   2  16
ATOM     16  S   UNL A   1     -20.065   5.480  49.209  0.00  0.00    +0.045 S 
ATOM     17  O   UNL A   1     -20.842   5.555  47.982  0.00  0.00    -0.155 OA
ATOM     18  O   UNL A   1     -19.074   4.435  49.348  0.00  0.00    -0.155 OA
ATOM     19  C   UNL A   1     -21.253   5.282  50.524  0.00  0.00    +0.218 C 
ENDBRANCH   2  16
BRANCH   4  20
ATOM     20  C   UNL A   1     -16.028  10.353  49.129  0.00  0.00    +0.032 C 
ATOM     21  C   UNL A   1     -16.809  11.456  48.412  0.00  0.00    +0.014 C 
ATOM     22  C   UNL A   1     -16.061  10.527  50.644  0.00  0.00    +0.014 C 
ENDBRANCH   4  20
BRANCH   5  23
ATOM     23  C   UNL A   1     -14.623   8.657  47.203  0.00  0.00    +0.010 C 
ATOM     24  C   UNL A   1     -13.426   8.416  47.749  0.00  0.00    +0.005 C 
BRANCH  24  25
ATOM     25  C   UNL A   1     -12.122   8.748  47.095  0.00  0.00    +0.140 C 
BRANCH  25  26
ATOM     26  O   UNL A   1     -11.150   8.970  48.106  0.00  0.00    -0.388 OA
ATOM     27  H   UNL A   1     -10.289   9.059  47.671  0.00  0.00    +0.210 HD
ENDBRANCH  25  26
BRANCH  25  28
ATOM     28  C   UNL A   1     -11.739   7.602  46.159  0.00  0.00    +0.067 C 
BRANCH  28  29
ATOM     29  C   UNL A   1     -11.571   8.080  44.718  0.00  0.00    +0.128 C 
BRANCH  29  30
ATOM     30  O   UNL A   1     -10.315   7.636  44.209  0.00  0.00    -0.391 OA
ATOM     31  H   UNL A   1      -9.666   8.352  44.272  0.00  0.00    +0.210 HD
ENDBRANCH  29  30
BRANCH  29  32
ATOM     32  C   UNL A   1     -12.683   7.527  43.835  0.00  0.00    +0.151 C 
BRANCH  32  34
ATOM     33  O   UNL A   1     -12.028   8.151  41.556  0.00  0.00    -0.251 OA
ATOM     34  C   UNL A   1     -12.183   7.322  42.433  0.00  0.00    +0.307 C 
BRANCH  34  35
ATOM     35  O   UNL A   1     -11.915   6.024  42.184  0.00  0.00    -0.481 OA
ATOM     36  H   UNL A   1     -12.429   5.567  42.884  0.00  0.00    +0.295 HD
ENDBRANCH  34  35
ENDBRANCH  32  34
ENDBRANCH  29  32
ENDBRANCH  28  29
ENDBRANCH  25  28
ENDBRANCH  24  25
ENDBRANCH   5  23
TORSDOF 12
ENDMDL
MODEL 4
REMARK VINA RESULT:      -7.3      3.807      6.421
REMARK  Name = D0JE2E
REMARK  16 active torsions:
REMARK  status: ('A' for Active; 'I' for Inactive)
REMARK    1  A    between atoms: S_1  and  N_10
REMARK    2  A    between atoms: S_1  and  C_30
REMARK    3  A    between atoms: O_3  and  C_16
REMARK    4  A    between atoms: O_4  and  C_17
REMARK    5  A    between atoms: O_7  and  C_29
REMARK    6  A    between atoms: N_10  and  C_26
REMARK    7  A    between atoms: C_12  and  C_13
REMARK    8  A    between atoms: C_12  and  C_21
REMARK    9  A    between atoms: C_12  and  C_22
REMARK   10  A    between atoms: C_14  and  C_16
REMARK   11  A    between atoms: C_14  and  C_17
REMARK   12  A    between atoms: C_15  and  C_19
REMARK   13  A    between atoms: C_16  and  C_20
REMARK   14  A    between atoms: C_17  and  C_23
REMARK   15  A    between atoms: C_18  and  C_25
REMARK   16  A    between atoms: C_23  and  C_29
REMARK                            x       y       z     vdW  Elec       q    Type
REMARK                         _______ _______ _______ _____ _____    ______ ____
ROOT
ATOM      1  N   UNL A   1     -17.631   8.597  49.299  0.00  0.00    -0.217 NA
ATOM      2  N   UNL A   1     -19.376   7.055  49.485  0.00  0.00    -0.178 N 
ATOM      3  N   UNL A   1     -17.507   6.538  48.133  0.00  0.00    -0.212 NA
ATOM      4  C   UNL A   1     -16.483   9.009  48.699  0.00  0.00    +0.057 A 
ATOM      5  C   UNL A   1     -15.817   8.203  47.786  0.00  0.00    +0.022 A 
ATOM      6  C   UNL A   1     -16.398   6.966  47.488  0.00  0.00    +0.084 A 
ATOM      7  C   UNL A   1     -18.091   7.381  48.981  0.00  0.00    +0.238 A 
ATOM      8  C   UNL A   1     -19.947   7.907  50.535  0.00  0.00    +0.160 C 
ENDROOT
BRANCH   6  10
ATOM      9  F   UNL A   1     -14.058   3.690  43.532  0.00  0.00    -0.205 F 
ATOM     10  C   UNL A   1     -15.866   6.011  46.474  0.00  0.00    +0.001 A 
ATOM     11  C   UNL A   1     -14.798   5.154  46.779  0.00  0.00    +0.013 A 
ATOM     12  C   UNL A   1     -16.362   5.966  45.150  0.00  0.00    +0.013 A 
ATOM     13  C   UNL A   1     -14.206   4.351  45.792  0.00  0.00    +0.039 A 
ATOM     14  C   UNL A   1     -15.740   5.215  44.151  0.00  0.00    +0.039 A 
ATOM     15  C   UNL A   1     -14.666   4.409  44.484  0.00  0.00    +0.123 A 
ENDBRANCH   6  10
BRANCH   2  16
ATOM     16  S   UNL A   1     -20.027   5.536  49.225  0.00  0.00    +0.045 S 
ATOM     17  O   UNL A   1     -20.805   5.597  47.997  0.00  0.00    -0.155 OA
ATOM     18  O   UNL A   1     -19.040   4.491  49.378  0.00  0.00    -0.155 OA
ATOM     19  C   UNL A   1     -21.216   5.360  50.543  0.00  0.00    +0.218 C 
ENDBRANCH   2  16
BRANCH   4  20
ATOM     20  C   UNL A   1     -15.976  10.396  49.077  0.00  0.00    +0.032 C 
ATOM     21  C   UNL A   1     -16.747  11.491  48.339  0.00  0.00    +0.014 C 
ATOM     22  C   UNL A   1     -16.017  10.593  50.589  0.00  0.00    +0.014 C 
ENDBRANCH   4  20
BRANCH   5  23
ATOM     23  C   UNL A   1     -14.577   8.669  47.174  0.00  0.00    +0.010 C 
ATOM     24  C   UNL A   1     -14.550   9.225  45.958  0.00  0.00    +0.005 C 
BRANCH  24  25
ATOM     25  C   UNL A   1     -13.338   9.858  45.350  0.00  0.00    +0.140 C 
BRANCH  25  26
ATOM     26  O   UNL A   1     -13.231   9.429  44.001  0.00  0.00    -0.388 OA
ATOM     27  H   UNL A   1     -12.651   8.652  43.985  0.00  0.00    +0.210 HD
ENDBRANCH  25  26
BRANCH  25  28
ATOM     28  C   UNL A   1     -13.466  11.375  45.471  0.00  0.00    +0.067 C 
BRANCH  28  29
ATOM     29  C   UNL A   1     -12.535  11.939  46.542  0.00  0.00    +0.128 C 
BRANCH  29  30
ATOM     30  O   UNL A   1     -11.600  12.833  45.943  0.00  0.00    -0.391 OA
ATOM     31  H   UNL A   1     -10.856  12.331  45.579  0.00  0.00    +0.210 HD
ENDBRANCH  29  30
BRANCH  29  32
ATOM     32  C   UNL A   1     -13.328  12.695  47.602  0.00  0.00    +0.151 C 
BRANCH  32  34
ATOM     33  O   UNL A   1     -11.999  12.745  49.661  0.00  0.00    -0.251 OA
ATOM     34  C   UNL A   1     -12.403  13.265  48.638  0.00  0.00    +0.307 C 
BRANCH  34  35
ATOM     35  O   UNL A   1     -12.035  14.527  48.338  0.00  0.00    -0.481 OA
ATOM     36  H   UNL A   1     -12.778  14.833  47.775  0.00  0.00    +0.295 HD
ENDBRANCH  34  35
ENDBRANCH  32  34
ENDBRANCH  29  32
ENDBRANCH  28  29
ENDBRANCH  25  28
ENDBRANCH  24  25
ENDBRANCH   5  23
TORSDOF 12
ENDMDL
MODEL 5
REMARK VINA RESULT:      -7.2      2.450      4.715
REMARK  Name = D0JE2E
REMARK  16 active torsions:
REMARK  status: ('A' for Active; 'I' for Inactive)
REMARK    1  A    between atoms: S_1  and  N_10
REMARK    2  A    between atoms: S_1  and  C_30
REMARK    3  A    between atoms: O_3  and  C_16
REMARK    4  A    between atoms: O_4  and  C_17
REMARK    5  A    between atoms: O_7  and  C_29
REMARK    6  A    between atoms: N_10  and  C_26
REMARK    7  A    between atoms: C_12  and  C_13
REMARK    8  A    between atoms: C_12  and  C_21
REMARK    9  A    between atoms: C_12  and  C_22
REMARK   10  A    between atoms: C_14  and  C_16
REMARK   11  A    between atoms: C_14  and  C_17
REMARK   12  A    between atoms: C_15  and  C_19
REMARK   13  A    between atoms: C_16  and  C_20
REMARK   14  A    between atoms: C_17  and  C_23
REMARK   15  A    between atoms: C_18  and  C_25
REMARK   16  A    between atoms: C_23  and  C_29
REMARK                            x       y       z     vdW  Elec       q    Type
REMARK                         _______ _______ _______ _____ _____    ______ ____
ROOT
ATOM      1  N   UNL A   1     -13.350   9.861  47.487  0.00  0.00    -0.217 NA
ATOM      2  N   UNL A   1     -14.518   9.122  49.370  0.00  0.00    -0.178 N 
ATOM      3  N   UNL A   1     -14.516   7.799  47.412  0.00  0.00    -0.212 NA
ATOM      4  C   UNL A   1     -13.050   9.743  46.167  0.00  0.00    +0.057 A 
ATOM      5  C   UNL A   1     -13.486   8.655  45.423  0.00  0.00    +0.022 A 
ATOM      6  C   UNL A   1     -14.272   7.707  46.084  0.00  0.00    +0.084 A 
ATOM      7  C   UNL A   1     -14.075   8.883  48.045  0.00  0.00    +0.238 A 
ATOM      8  C   UNL A   1     -13.911  10.231  50.117  0.00  0.00    +0.160 C 
ENDROOT
BRANCH   6  10
ATOM      9  F   UNL A   1     -16.847   3.135  44.005  0.00  0.00    -0.205 F 
ATOM     10  C   UNL A   1     -14.892   6.522  45.424  0.00  0.00    +0.001 A 
ATOM     11  C   UNL A   1     -16.153   6.613  44.815  0.00  0.00    +0.013 A 
ATOM     12  C   UNL A   1     -14.279   5.247  45.435  0.00  0.00    +0.013 A 
ATOM     13  C   UNL A   1     -16.800   5.474  44.312  0.00  0.00    +0.039 A 
ATOM     14  C   UNL A   1     -14.943   4.102  44.991  0.00  0.00    +0.039 A 
ATOM     15  C   UNL A   1     -16.200   4.228  44.428  0.00  0.00    +0.123 A 
ENDBRANCH   6  10
BRANCH   2  16
ATOM     16  S   UNL A   1     -15.364   7.945  50.206  0.00  0.00    +0.045 S 
ATOM     17  O   UNL A   1     -16.715   7.910  49.667  0.00  0.00    -0.155 OA
ATOM     18  O   UNL A   1     -14.617   6.711  50.306  0.00  0.00    -0.155 OA
ATOM     19  C   UNL A   1     -15.515   8.625  51.848  0.00  0.00    +0.218 C 
ENDBRANCH   2  16
BRANCH   4  20
ATOM     20  C   UNL A   1     -12.223  10.866  45.553  0.00  0.00    +0.032 C 
ATOM     21  C   UNL A   1     -13.062  12.127  45.345  0.00  0.00    +0.014 C 
ATOM     22  C   UNL A   1     -10.979  11.143  46.392  0.00  0.00    +0.014 C 
ENDBRANCH   4  20
BRANCH   5  23
ATOM     23  C   UNL A   1     -13.131   8.551  44.011  0.00  0.00    +0.010 C 
ATOM     24  C   UNL A   1     -12.138   7.765  43.584  0.00  0.00    +0.005 C 
BRANCH  24  25
ATOM     25  C   UNL A   1     -11.833   7.503  42.143  0.00  0.00    +0.140 C 
BRANCH  25  26
ATOM     26  O   UNL A   1     -11.498   6.132  41.991  0.00  0.00    -0.388 OA
ATOM     27  H   UNL A   1     -10.601   6.008  42.337  0.00  0.00    +0.210 HD
ENDBRANCH  25  26
BRANCH  25  28
ATOM     28  C   UNL A   1     -13.047   7.903  41.306  0.00  0.00    +0.067 C 
BRANCH  28  29
ATOM     29  C   UNL A   1     -12.691   8.954  40.256  0.00  0.00    +0.128 C 
BRANCH  29  30
ATOM     30  O   UNL A   1     -12.297   8.310  39.047  0.00  0.00    -0.391 OA
ATOM     31  H   UNL A   1     -12.028   7.399  39.235  0.00  0.00    +0.210 HD
ENDBRANCH  29  30
BRANCH  29  32
ATOM     32  C   UNL A   1     -13.887   9.853  39.968  0.00  0.00    +0.151 C 
BRANCH  32  34
ATOM     33  O   UNL A   1     -13.596  11.958  38.746  0.00  0.00    -0.251 OA
ATOM     34  C   UNL A   1     -13.433  11.265  39.732  0.00  0.00    +0.307 C 
BRANCH  34  35
ATOM     35  O   UNL A   1     -12.744  11.750  40.786  0.00  0.00    -0.481 OA
ATOM     36  H   UNL A   1     -13.255  11.400  41.547  0.00  0.00    +0.295 HD
ENDBRANCH  34  35
ENDBRANCH  32  34
ENDBRANCH  29  32
ENDBRANCH  28  29
ENDBRANCH  25  28
ENDBRANCH  24  25
ENDBRANCH   5  23
TORSDOF 12
ENDMDL
MODEL 6
REMARK VINA RESULT:      -7.2      3.040      7.479
REMARK  Name = D0JE2E
REMARK  16 active torsions:
REMARK  status: ('A' for Active; 'I' for Inactive)
REMARK    1  A    between atoms: S_1  and  N_10
REMARK    2  A    between atoms: S_1  and  C_30
REMARK    3  A    between atoms: O_3  and  C_16
REMARK    4  A    between atoms: O_4  and  C_17
REMARK    5  A    between atoms: O_7  and  C_29
REMARK    6  A    between atoms: N_10  and  C_26
REMARK    7  A    between atoms: C_12  and  C_13
REMARK    8  A    between atoms: C_12  and  C_21
REMARK    9  A    between atoms: C_12  and  C_22
REMARK   10  A    between atoms: C_14  and  C_16
REMARK   11  A    between atoms: C_14  and  C_17
REMARK   12  A    between atoms: C_15  and  C_19
REMARK   13  A    between atoms: C_16  and  C_20
REMARK   14  A    between atoms: C_17  and  C_23
REMARK   15  A    between atoms: C_18  and  C_25
REMARK   16  A    between atoms: C_23  and  C_29
REMARK                            x       y       z     vdW  Elec       q    Type
REMARK                         _______ _______ _______ _____ _____    ______ ____
ROOT
ATOM      1  N   UNL A   1     -14.029   7.303  43.444  0.00  0.00    -0.217 NA
ATOM      2  N   UNL A   1     -13.461   8.882  41.819  0.00  0.00    -0.178 N 
ATOM      3  N   UNL A   1     -13.492   9.518  44.095  0.00  0.00    -0.212 NA
ATOM      4  C   UNL A   1     -14.352   7.001  44.729  0.00  0.00    +0.057 A 
ATOM      5  C   UNL A   1     -14.268   7.952  45.737  0.00  0.00    +0.022 A 
ATOM      6  C   UNL A   1     -13.870   9.240  45.364  0.00  0.00    +0.084 A 
ATOM      7  C   UNL A   1     -13.619   8.552  43.188  0.00  0.00    +0.238 A 
ATOM      8  C   UNL A   1     -13.448   7.790  40.837  0.00  0.00    +0.160 C 
ENDROOT
BRANCH   6  10
ATOM      9  F   UNL A   1     -13.470  13.904  48.516  0.00  0.00    -0.205 F 
ATOM     10  C   UNL A   1     -13.805  10.402  46.296  0.00  0.00    +0.001 A 
ATOM     11  C   UNL A   1     -14.885  11.289  46.420  0.00  0.00    +0.013 A 
ATOM     12  C   UNL A   1     -12.642  10.702  47.044  0.00  0.00    +0.013 A 
ATOM     13  C   UNL A   1     -14.780  12.456  47.192  0.00  0.00    +0.039 A 
ATOM     14  C   UNL A   1     -12.511  11.892  47.764  0.00  0.00    +0.039 A 
ATOM     15  C   UNL A   1     -13.587  12.759  47.833  0.00  0.00    +0.123 A 
ENDBRANCH   6  10
BRANCH   2  16
ATOM     16  S   UNL A   1     -12.878  10.385  41.371  0.00  0.00    +0.045 S 
ATOM     17  O   UNL A   1     -13.943  11.352  41.591  0.00  0.00    -0.155 OA
ATOM     18  O   UNL A   1     -11.569  10.645  41.929  0.00  0.00    -0.155 OA
ATOM     19  C   UNL A   1     -12.699  10.254  39.601  0.00  0.00    +0.218 C 
ENDBRANCH   2  16
BRANCH   4  20
ATOM     20  C   UNL A   1     -14.814   5.574  44.998  0.00  0.00    +0.032 C 
ATOM     21  C   UNL A   1     -16.339   5.465  44.962  0.00  0.00    +0.014 C 
ATOM     22  C   UNL A   1     -14.151   4.599  44.029  0.00  0.00    +0.014 C 
ENDBRANCH   4  20
BRANCH   5  23
ATOM     23  C   UNL A   1     -14.606   7.589  47.109  0.00  0.00    +0.010 C 
ATOM     24  C   UNL A   1     -15.784   7.904  47.658  0.00  0.00    +0.005 C 
BRANCH  24  25
ATOM     25  C   UNL A   1     -16.241   7.424  48.999  0.00  0.00    +0.140 C 
BRANCH  25  26
ATOM     26  O   UNL A   1     -15.191   7.621  49.934  0.00  0.00    -0.388 OA
ATOM     27  H   UNL A   1     -14.720   8.429  49.682  0.00  0.00    +0.210 HD
ENDBRANCH  25  26
BRANCH  25  28
ATOM     28  C   UNL A   1     -17.512   8.181  49.382  0.00  0.00    +0.067 C 
BRANCH  28  29
ATOM     29  C   UNL A   1     -18.658   7.230  49.721  0.00  0.00    +0.128 C 
BRANCH  29  30
ATOM     30  O   UNL A   1     -19.889   7.948  49.736  0.00  0.00    -0.391 OA
ATOM     31  H   UNL A   1     -20.624   7.341  49.566  0.00  0.00    +0.210 HD
ENDBRANCH  29  30
BRANCH  29  32
ATOM     32  C   UNL A   1     -18.752   6.112  48.690  0.00  0.00    +0.151 C 
BRANCH  32  34
ATOM     33  O   UNL A   1     -21.077   5.333  48.659  0.00  0.00    -0.251 OA
ATOM     34  C   UNL A   1     -20.163   5.982  48.188  0.00  0.00    +0.307 C 
BRANCH  34  35
ATOM     35  O   UNL A   1     -20.355   6.686  47.054  0.00  0.00    -0.481 OA
ATOM     36  H   UNL A   1     -20.297   7.613  47.372  0.00  0.00    +0.295 HD
ENDBRANCH  34  35
ENDBRANCH  32  34
ENDBRANCH  29  32
ENDBRANCH  28  29
ENDBRANCH  25  28
ENDBRANCH  24  25
ENDBRANCH   5  23
TORSDOF 12
ENDMDL
MODEL 7
REMARK VINA RESULT:      -7.0     15.775     19.582
REMARK  Name = D0JE2E
REMARK  16 active torsions:
REMARK  status: ('A' for Active; 'I' for Inactive)
REMARK    1  A    between atoms: S_1  and  N_10
REMARK    2  A    between atoms: S_1  and  C_30
REMARK    3  A    between atoms: O_3  and  C_16
REMARK    4  A    between atoms: O_4  and  C_17
REMARK    5  A    between atoms: O_7  and  C_29
REMARK    6  A    between atoms: N_10  and  C_26
REMARK    7  A    between atoms: C_12  and  C_13
REMARK    8  A    between atoms: C_12  and  C_21
REMARK    9  A    between atoms: C_12  and  C_22
REMARK   10  A    between atoms: C_14  and  C_16
REMARK   11  A    between atoms: C_14  and  C_17
REMARK   12  A    between atoms: C_15  and  C_19
REMARK   13  A    between atoms: C_16  and  C_20
REMARK   14  A    between atoms: C_17  and  C_23
REMARK   15  A    between atoms: C_18  and  C_25
REMARK   16  A    between atoms: C_23  and  C_29
REMARK                            x       y       z     vdW  Elec       q    Type
REMARK                         _______ _______ _______ _____ _____    ______ ____
ROOT
ATOM      1  N   UNL A   1     -27.967  -3.829  52.312  0.00  0.00    -0.217 NA
ATOM      2  N   UNL A   1     -29.482  -5.588  52.580  0.00  0.00    -0.178 N 
ATOM      3  N   UNL A   1     -27.243  -6.062  51.990  0.00  0.00    -0.212 NA
ATOM      4  C   UNL A   1     -26.752  -3.374  51.910  0.00  0.00    +0.057 A 
ATOM      5  C   UNL A   1     -25.746  -4.248  51.522  0.00  0.00    +0.022 A 
ATOM      6  C   UNL A   1     -26.052  -5.613  51.531  0.00  0.00    +0.084 A 
ATOM      7  C   UNL A   1     -28.155  -5.155  52.327  0.00  0.00    +0.238 A 
ATOM      8  C   UNL A   1     -30.445  -4.610  53.101  0.00  0.00    +0.160 C 
ENDROOT
BRANCH   6  10
ATOM      9  F   UNL A   1     -22.916  -9.975  49.801  0.00  0.00    -0.205 F 
ATOM     10  C   UNL A   1     -25.124  -6.684  51.069  0.00  0.00    +0.001 A 
ATOM     11  C   UNL A   1     -25.006  -6.998  49.706  0.00  0.00    +0.013 A 
ATOM     12  C   UNL A   1     -24.374  -7.473  51.973  0.00  0.00    +0.013 A 
ATOM     13  C   UNL A   1     -24.239  -8.092  49.277  0.00  0.00    +0.039 A 
ATOM     14  C   UNL A   1     -23.659  -8.598  51.558  0.00  0.00    +0.039 A 
ATOM     15  C   UNL A   1     -23.595  -8.895  50.208  0.00  0.00    +0.123 A 
ENDBRANCH   6  10
BRANCH   2  16
ATOM     16  S   UNL A   1     -29.831  -7.219  52.704  0.00  0.00    +0.045 S 
ATOM     17  O   UNL A   1     -29.463  -7.843  51.442  0.00  0.00    -0.155 OA
ATOM     18  O   UNL A   1     -29.333  -7.787  53.938  0.00  0.00    -0.155 OA
ATOM     19  C   UNL A   1     -31.613  -7.263  52.764  0.00  0.00    +0.218 C 
ENDBRANCH   2  16
BRANCH   4  20
ATOM     20  C   UNL A   1     -26.559  -1.862  51.903  0.00  0.00    +0.032 C 
ATOM     21  C   UNL A   1     -27.641  -1.166  51.076  0.00  0.00    +0.014 C 
ATOM     22  C   UNL A   1     -26.494  -1.318  53.327  0.00  0.00    +0.014 C 
ENDBRANCH   4  20
BRANCH   5  23
ATOM     23  C   UNL A   1     -24.447  -3.725  51.112  0.00  0.00    +0.010 C 
ATOM     24  C   UNL A   1     -23.487  -3.434  51.996  0.00  0.00    +0.005 C 
BRANCH  24  25
ATOM     25  C   UNL A   1     -22.092  -3.044  51.623  0.00  0.00    +0.140 C 
BRANCH  25  26
ATOM     26  O   UNL A   1     -22.039  -2.831  50.221  0.00  0.00    -0.388 OA
ATOM     27  H   UNL A   1     -21.734  -3.654  49.810  0.00  0.00    +0.210 HD
ENDBRANCH  25  26
BRANCH  25  28
ATOM     28  C   UNL A   1     -21.704  -1.797  52.417  0.00  0.00    +0.067 C 
BRANCH  28  29
ATOM     29  C   UNL A   1     -22.883  -0.841  52.583  0.00  0.00    +0.128 C 
BRANCH  29  30
ATOM     30  O   UNL A   1     -22.907  -0.336  53.916  0.00  0.00    -0.391 OA
ATOM     31  H   UNL A   1     -22.446   0.515  53.951  0.00  0.00    +0.210 HD
ENDBRANCH  29  30
BRANCH  29  32
ATOM     32  C   UNL A   1     -22.766   0.330  51.615  0.00  0.00    +0.151 C 
BRANCH  32  34
ATOM     33  O   UNL A   1     -24.959   1.148  50.886  0.00  0.00    -0.251 OA
ATOM     34  C   UNL A   1     -23.994   0.419  50.754  0.00  0.00    +0.307 C 
BRANCH  34  35
ATOM     35  O   UNL A   1     -23.958  -0.469  49.740  0.00  0.00    -0.481 OA
ATOM     36  H   UNL A   1     -23.373  -1.170  50.099  0.00  0.00    +0.295 HD
ENDBRANCH  34  35
ENDBRANCH  32  34
ENDBRANCH  29  32
ENDBRANCH  28  29
ENDBRANCH  25  28
ENDBRANCH  24  25
ENDBRANCH   5  23
TORSDOF 12
ENDMDL
MODEL 8
REMARK VINA RESULT:      -7.0     16.587     19.993
REMARK  Name = D0JE2E
REMARK  16 active torsions:
REMARK  status: ('A' for Active; 'I' for Inactive)
REMARK    1  A    between atoms: S_1  and  N_10
REMARK    2  A    between atoms: S_1  and  C_30
REMARK    3  A    between atoms: O_3  and  C_16
REMARK    4  A    between atoms: O_4  and  C_17
REMARK    5  A    between atoms: O_7  and  C_29
REMARK    6  A    between atoms: N_10  and  C_26
REMARK    7  A    between atoms: C_12  and  C_13
REMARK    8  A    between atoms: C_12  and  C_21
REMARK    9  A    between atoms: C_12  and  C_22
REMARK   10  A    between atoms: C_14  and  C_16
REMARK   11  A    between atoms: C_14  and  C_17
REMARK   12  A    between atoms: C_15  and  C_19
REMARK   13  A    between atoms: C_16  and  C_20
REMARK   14  A    between atoms: C_17  and  C_23
REMARK   15  A    between atoms: C_18  and  C_25
REMARK   16  A    between atoms: C_23  and  C_29
REMARK                            x       y       z     vdW  Elec       q    Type
REMARK                         _______ _______ _______ _____ _____    ______ ____
ROOT
ATOM      1  N   UNL A   1     -27.773  -3.646  52.338  0.00  0.00    -0.217 NA
ATOM      2  N   UNL A   1     -29.364  -5.344  52.549  0.00  0.00    -0.178 N 
ATOM      3  N   UNL A   1     -27.140  -5.901  51.976  0.00  0.00    -0.212 NA
ATOM      4  C   UNL A   1     -26.534  -3.234  51.961  0.00  0.00    +0.057 A 
ATOM      5  C   UNL A   1     -25.562  -4.143  51.565  0.00  0.00    +0.022 A 
ATOM      6  C   UNL A   1     -25.925  -5.493  51.541  0.00  0.00    +0.084 A 
ATOM      7  C   UNL A   1     -28.017  -4.963  52.322  0.00  0.00    +0.238 A 
ATOM      8  C   UNL A   1     -30.291  -4.337  53.080  0.00  0.00    +0.160 C 
ENDROOT
BRANCH   6  10
ATOM      9  F   UNL A   1     -22.954  -9.950  49.762  0.00  0.00    -0.205 F 
ATOM     10  C   UNL A   1     -25.038  -6.593  51.066  0.00  0.00    +0.001 A 
ATOM     11  C   UNL A   1     -24.936  -6.900  49.701  0.00  0.00    +0.013 A 
ATOM     12  C   UNL A   1     -24.313  -7.415  51.961  0.00  0.00    +0.013 A 
ATOM     13  C   UNL A   1     -24.210  -8.017  49.260  0.00  0.00    +0.039 A 
ATOM     14  C   UNL A   1     -23.640  -8.561  51.534  0.00  0.00    +0.039 A 
ATOM     15  C   UNL A   1     -23.592  -8.850  50.181  0.00  0.00    +0.123 A 
ENDBRANCH   6  10
BRANCH   2  16
ATOM     16  S   UNL A   1     -29.784  -6.961  52.633  0.00  0.00    +0.045 S 
ATOM     17  O   UNL A   1     -29.562  -7.540  51.316  0.00  0.00    -0.155 OA
ATOM     18  O   UNL A   1     -29.208  -7.610  53.790  0.00  0.00    -0.155 OA
ATOM     19  C   UNL A   1     -31.553  -6.923  52.853  0.00  0.00    +0.218 C 
ENDBRANCH   2  16
BRANCH   4  20
ATOM     20  C   UNL A   1     -26.277  -1.733  51.989  0.00  0.00    +0.032 C 
ATOM     21  C   UNL A   1     -27.290  -0.977  51.128  0.00  0.00    +0.014 C 
ATOM     22  C   UNL A   1     -26.253  -1.215  53.424  0.00  0.00    +0.014 C 
ENDBRANCH   4  20
BRANCH   5  23
ATOM     23  C   UNL A   1     -24.236  -3.667  51.182  0.00  0.00    +0.010 C 
ATOM     24  C   UNL A   1     -23.261  -3.484  52.079  0.00  0.00    +0.005 C 
BRANCH  24  25
ATOM     25  C   UNL A   1     -21.846  -3.148  51.725  0.00  0.00    +0.140 C 
BRANCH  25  26
ATOM     26  O   UNL A   1     -21.774  -2.903  50.328  0.00  0.00    -0.388 OA
ATOM     27  H   UNL A   1     -21.849  -3.757  49.876  0.00  0.00    +0.210 HD
ENDBRANCH  25  26
BRANCH  25  28
ATOM     28  C   UNL A   1     -21.408  -1.941  52.552  0.00  0.00    +0.067 C 
BRANCH  28  29
ATOM     29  C   UNL A   1     -20.455  -2.340  53.677  0.00  0.00    +0.128 C 
BRANCH  29  30
ATOM     30  O   UNL A   1     -21.188  -2.527  54.884  0.00  0.00    -0.391 OA
ATOM     31  H   UNL A   1     -21.762  -3.303  54.801  0.00  0.00    +0.210 HD
ENDBRANCH  29  30
BRANCH  29  32
ATOM     32  C   UNL A   1     -19.732  -3.637  53.334  0.00  0.00    +0.151 C 
BRANCH  32  34
ATOM     33  O   UNL A   1     -19.009  -4.465  55.525  0.00  0.00    -0.251 OA
ATOM     34  C   UNL A   1     -19.700  -4.548  54.528  0.00  0.00    +0.307 C 
BRANCH  34  35
ATOM     35  O   UNL A   1     -20.559  -5.579  54.392  0.00  0.00    -0.481 OA
ATOM     36  H   UNL A   1     -20.216  -6.031  53.592  0.00  0.00    +0.295 HD
ENDBRANCH  34  35
ENDBRANCH  32  34
ENDBRANCH  29  32
ENDBRANCH  28  29
ENDBRANCH  25  28
ENDBRANCH  24  25
ENDBRANCH   5  23
TORSDOF 12
ENDMDL
MODEL 9
REMARK VINA RESULT:      -7.0      3.671      5.766
REMARK  Name = D0JE2E
REMARK  16 active torsions:
REMARK  status: ('A' for Active; 'I' for Inactive)
REMARK    1  A    between atoms: S_1  and  N_10
REMARK    2  A    between atoms: S_1  and  C_30
REMARK    3  A    between atoms: O_3  and  C_16
REMARK    4  A    between atoms: O_4  and  C_17
REMARK    5  A    between atoms: O_7  and  C_29
REMARK    6  A    between atoms: N_10  and  C_26
REMARK    7  A    between atoms: C_12  and  C_13
REMARK    8  A    between atoms: C_12  and  C_21
REMARK    9  A    between atoms: C_12  and  C_22
REMARK   10  A    between atoms: C_14  and  C_16
REMARK   11  A    between atoms: C_14  and  C_17
REMARK   12  A    between atoms: C_15  and  C_19
REMARK   13  A    between atoms: C_16  and  C_20
REMARK   14  A    between atoms: C_17  and  C_23
REMARK   15  A    between atoms: C_18  and  C_25
REMARK   16  A    between atoms: C_23  and  C_29
REMARK                            x       y       z     vdW  Elec       q    Type
REMARK                         _______ _______ _______ _____ _____    ______ ____
ROOT
ATOM      1  N   UNL A   1     -17.687   8.575  49.319  0.00  0.00    -0.217 NA
ATOM      2  N   UNL A   1     -19.416   7.014  49.504  0.00  0.00    -0.178 N 
ATOM      3  N   UNL A   1     -17.553   6.527  48.134  0.00  0.00    -0.212 NA
ATOM      4  C   UNL A   1     -16.548   9.003  48.715  0.00  0.00    +0.057 A 
ATOM      5  C   UNL A   1     -15.881   8.212  47.790  0.00  0.00    +0.022 A 
ATOM      6  C   UNL A   1     -16.452   6.973  47.484  0.00  0.00    +0.084 A 
ATOM      7  C   UNL A   1     -18.138   7.357  48.993  0.00  0.00    +0.238 A 
ATOM      8  C   UNL A   1     -19.987   7.851  50.567  0.00  0.00    +0.160 C 
ENDROOT
BRANCH   6  10
ATOM      9  F   UNL A   1     -14.101   3.749  43.492  0.00  0.00    -0.205 F 
ATOM     10  C   UNL A   1     -15.919   6.032  46.457  0.00  0.00    +0.001 A 
ATOM     11  C   UNL A   1     -14.868   5.153  46.759  0.00  0.00    +0.013 A 
ATOM     12  C   UNL A   1     -16.396   6.023  45.125  0.00  0.00    +0.013 A 
ATOM     13  C   UNL A   1     -14.273   4.363  45.763  0.00  0.00    +0.039 A 
ATOM     14  C   UNL A   1     -15.769   5.285  44.119  0.00  0.00    +0.039 A 
ATOM     15  C   UNL A   1     -14.712   4.456  44.450  0.00  0.00    +0.123 A 
ENDBRANCH   6  10
BRANCH   2  16
ATOM     16  S   UNL A   1     -20.055   5.492  49.235  0.00  0.00    +0.045 S 
ATOM     17  O   UNL A   1     -20.828   5.552  48.003  0.00  0.00    -0.155 OA
ATOM     18  O   UNL A   1     -19.060   4.453  49.387  0.00  0.00    -0.155 OA
ATOM     19  C   UNL A   1     -21.248   5.301  50.546  0.00  0.00    +0.218 C 
ENDBRANCH   2  16
BRANCH   4  20
ATOM     20  C   UNL A   1     -16.051  10.391  49.102  0.00  0.00    +0.032 C 
ATOM     21  C   UNL A   1     -16.829  11.485  48.371  0.00  0.00    +0.014 C 
ATOM     22  C   UNL A   1     -16.094  10.578  50.616  0.00  0.00    +0.014 C 
ENDBRANCH   4  20
BRANCH   5  23
ATOM     23  C   UNL A   1     -14.650   8.696  47.173  0.00  0.00    +0.010 C 
ATOM     24  C   UNL A   1     -13.448   8.467  47.712  0.00  0.00    +0.005 C 
BRANCH  24  25
ATOM     25  C   UNL A   1     -12.151   8.804  47.046  0.00  0.00    +0.140 C 
BRANCH  25  26
ATOM     26  O   UNL A   1     -11.109   8.086  47.691  0.00  0.00    -0.388 OA
ATOM     27  H   UNL A   1     -10.323   8.653  47.700  0.00  0.00    +0.210 HD
ENDBRANCH  25  26
BRANCH  25  28
ATOM     28  C   UNL A   1     -12.260   8.465  45.561  0.00  0.00    +0.067 C 
BRANCH  28  29
ATOM     29  C   UNL A   1     -12.169   9.713  44.685  0.00  0.00    +0.128 C 
BRANCH  29  30
ATOM     30  O   UNL A   1     -13.373   9.865  43.938  0.00  0.00    -0.391 OA
ATOM     31  H   UNL A   1     -13.396  10.742  43.529  0.00  0.00    +0.210 HD
ENDBRANCH  29  30
BRANCH  29  32
ATOM     32  C   UNL A   1     -11.960  10.956  45.541  0.00  0.00    +0.151 C 
BRANCH  32  34
ATOM     33  O   UNL A   1     -12.944  12.816  44.283  0.00  0.00    -0.251 OA
ATOM     34  C   UNL A   1     -12.975  12.007  45.191  0.00  0.00    +0.307 C 
BRANCH  34  35
ATOM     35  O   UNL A   1     -14.012  12.006  46.053  0.00  0.00    -0.481 OA
ATOM     36  H   UNL A   1     -14.391  12.902  45.925  0.00  0.00    +0.295 HD
ENDBRANCH  34  35
ENDBRANCH  32  34
ENDBRANCH  29  32
ENDBRANCH  28  29
ENDBRANCH  25  28
ENDBRANCH  24  25
ENDBRANCH   5  23
TORSDOF 12
ENDMDL
MODEL 10
REMARK VINA RESULT:      -6.9     16.240     19.062
REMARK  Name = D0JE2E
REMARK  16 active torsions:
REMARK  status: ('A' for Active; 'I' for Inactive)
REMARK    1  A    between atoms: S_1  and  N_10
REMARK    2  A    between atoms: S_1  and  C_30
REMARK    3  A    between atoms: O_3  and  C_16
REMARK    4  A    between atoms: O_4  and  C_17
REMARK    5  A    between atoms: O_7  and  C_29
REMARK    6  A    between atoms: N_10  and  C_26
REMARK    7  A    between atoms: C_12  and  C_13
REMARK    8  A    between atoms: C_12  and  C_21
REMARK    9  A    between atoms: C_12  and  C_22
REMARK   10  A    between atoms: C_14  and  C_16
REMARK   11  A    between atoms: C_14  and  C_17
REMARK   12  A    between atoms: C_15  and  C_19
REMARK   13  A    between atoms: C_16  and  C_20
REMARK   14  A    between atoms: C_17  and  C_23
REMARK   15  A    between atoms: C_18  and  C_25
REMARK   16  A    between atoms: C_23  and  C_29
REMARK                            x       y       z     vdW  Elec       q    Type
REMARK                         _______ _______ _______ _____ _____    ______ ____
ROOT
ATOM      1  N   UNL A   1     -26.726  -6.513  49.998  0.00  0.00    -0.217 NA
ATOM      2  N   UNL A   1     -29.012  -6.460  49.522  0.00  0.00    -0.178 N 
ATOM      3  N   UNL A   1     -27.893  -4.452  50.072  0.00  0.00    -0.212 NA
ATOM      4  C   UNL A   1     -25.605  -5.899  50.459  0.00  0.00    +0.057 A 
ATOM      5  C   UNL A   1     -25.596  -4.542  50.755  0.00  0.00    +0.022 A 
ATOM      6  C   UNL A   1     -26.798  -3.848  50.589  0.00  0.00    +0.084 A 
ATOM      7  C   UNL A   1     -27.820  -5.759  49.833  0.00  0.00    +0.238 A 
ATOM      8  C   UNL A   1     -28.906  -7.864  49.107  0.00  0.00    +0.160 C 
ENDROOT
BRANCH   6  10
ATOM      9  F   UNL A   1     -27.052   1.625  51.944  0.00  0.00    -0.205 F 
ATOM     10  C   UNL A   1     -26.992  -2.411  50.935  0.00  0.00    +0.001 A 
ATOM     11  C   UNL A   1     -26.918  -1.414  49.950  0.00  0.00    +0.013 A 
ATOM     12  C   UNL A   1     -27.195  -1.978  52.266  0.00  0.00    +0.013 A 
ATOM     13  C   UNL A   1     -26.966  -0.053  50.289  0.00  0.00    +0.039 A 
ATOM     14  C   UNL A   1     -27.182  -0.626  52.616  0.00  0.00    +0.039 A 
ATOM     15  C   UNL A   1     -27.071   0.327  51.619  0.00  0.00    +0.123 A 
ENDBRANCH   6  10
BRANCH   2  16
ATOM     16  S   UNL A   1     -30.429  -5.625  49.212  0.00  0.00    +0.045 S 
ATOM     17  O   UNL A   1     -30.904  -5.084  50.476  0.00  0.00    -0.155 OA
ATOM     18  O   UNL A   1     -30.298  -4.740  48.076  0.00  0.00    -0.155 OA
ATOM     19  C   UNL A   1     -31.584  -6.911  48.771  0.00  0.00    +0.218 C 
ENDBRANCH   2  16
BRANCH   4  20
ATOM     20  C   UNL A   1     -24.371  -6.776  50.639  0.00  0.00    +0.032 C 
ATOM     21  C   UNL A   1     -24.404  -7.517  51.976  0.00  0.00    +0.014 C 
ATOM     22  C   UNL A   1     -24.213  -7.733  49.462  0.00  0.00    +0.014 C 
ENDBRANCH   4  20
BRANCH   5  23
ATOM     23  C   UNL A   1     -24.369  -3.911  51.232  0.00  0.00    +0.010 C 
ATOM     24  C   UNL A   1     -23.683  -3.039  50.486  0.00  0.00    +0.005 C 
BRANCH  24  25
ATOM     25  C   UNL A   1     -22.512  -2.249  50.980  0.00  0.00    +0.140 C 
BRANCH  25  26
ATOM     26  O   UNL A   1     -22.775  -0.869  50.773  0.00  0.00    -0.388 OA
ATOM     27  H   UNL A   1     -23.703  -0.709  51.000  0.00  0.00    +0.210 HD
ENDBRANCH  25  26
BRANCH  25  28
ATOM     28  C   UNL A   1     -22.283  -2.584  52.453  0.00  0.00    +0.067 C 
BRANCH  28  29
ATOM     29  C   UNL A   1     -21.175  -3.620  52.633  0.00  0.00    +0.128 C 
BRANCH  29  30
ATOM     30  O   UNL A   1     -20.271  -3.552  51.533  0.00  0.00    -0.391 OA
ATOM     31  H   UNL A   1     -20.484  -2.785  50.982  0.00  0.00    +0.210 HD
ENDBRANCH  29  30
BRANCH  29  32
ATOM     32  C   UNL A   1     -20.402  -3.362  53.921  0.00  0.00    +0.151 C 
BRANCH  32  34
ATOM     33  O   UNL A   1     -18.750  -5.113  53.457  0.00  0.00    -0.251 OA
ATOM     34  C   UNL A   1     -19.485  -4.514  54.219  0.00  0.00    +0.307 C 
BRANCH  34  35
ATOM     35  O   UNL A   1     -19.561  -4.891  55.512  0.00  0.00    -0.481 OA
ATOM     36  H   UNL A   1     -20.429  -5.347  55.545  0.00  0.00    +0.295 HD
ENDBRANCH  34  35
ENDBRANCH  32  34
ENDBRANCH  29  32
ENDBRANCH  28  29
ENDBRANCH  25  28
ENDBRANCH  24  25
ENDBRANCH   5  23
TORSDOF 12
ENDMDL
