REMARK VINA RESULT:      -7.2     20.942     24.041
REMARK  Name = D0H0ND
REMARK  13 active torsions:
REMARK  status: ('A' for Active; 'I' for Inactive)
REMARK    1  A    between atoms: O_1  and  C_8
REMARK    2  A    between atoms: O_1  and  C_22
REMARK    3  A    between atoms: O_3  and  C_23
REMARK    4  A    between atoms: C_7  and  C_11
REMARK    5  A    between atoms: C_9  and  C_18
REMARK    6  A    between atoms: C_11  and  C_15
REMARK    7  A    between atoms: C_13  and  C_20
REMARK    8  A    between atoms: C_15  and  C_19
REMARK    9  A    between atoms: C_22  and  C_24
REMARK   10  A    between atoms: C_24  and  C_27
REMARK   11  A    between atoms: C_24  and  C_28
REMARK   12  A    between atoms: C_24  and  C_29
REMARK   13  A    between atoms: C_27  and  C_30
REMARK                            x       y       z     vdW  Elec       q    Type
REMARK                         _______ _______ _______ _____ _____    ______ ____
ROOT
ATOM      1  C   UNL A   1     -25.404  -1.781  50.410  0.00  0.00    +0.063 C 
ATOM      2  C   UNL A   1     -24.768  -2.870  51.346  0.00  0.00    +0.007 C 
ATOM      3  C   UNL A   1     -26.868  -1.979  49.862  0.00  0.00    +0.185 C 
ATOM      4  C   UNL A   1     -23.254  -2.553  51.567  0.00  0.00    +0.012 C 
ATOM      5  C   UNL A   1     -25.181  -0.394  51.036  0.00  0.00    -0.044 C 
ATOM      6  C   UNL A   1     -27.886  -1.080  50.562  0.00  0.00    +0.052 C 
ATOM      7  C   UNL A   1     -27.486   0.391  50.447  0.00  0.00    +0.012 C 
ATOM      8  C   UNL A   1     -26.106   0.584  51.005  0.00  0.00    -0.020 C 
ATOM      9  C   UNL A   1     -23.036  -1.120  51.959  0.00  0.00    -0.023 C 
ATOM     10  C   UNL A   1     -23.919  -0.147  51.708  0.00  0.00    -0.000 C 
ATOM     11  C   UNL A   1     -22.361  -2.848  50.350  0.00  0.00    +0.012 C 
ATOM     12  C   UNL A   1     -28.504   1.267  51.176  0.00  0.00    +0.012 C 
ENDROOT
BRANCH   3  13
ATOM     13  O   UNL A   1     -27.345  -3.336  49.967  0.00  0.00    -0.460 OA
BRANCH  13  15
ATOM     14  O   UNL A   1     -28.403  -3.399  47.944  0.00  0.00    -0.250 OA
ATOM     15  C   UNL A   1     -28.325  -3.748  49.115  0.00  0.00    +0.313 C 
BRANCH  15  16
ATOM     16  C   UNL A   1     -29.287  -4.754  49.789  0.00  0.00    +0.062 C 
ATOM     17  C   UNL A   1     -30.038  -4.018  50.904  0.00  0.00    +0.022 C 
ATOM     18  C   UNL A   1     -30.277  -5.331  48.760  0.00  0.00    +0.022 C 
BRANCH  16  19
ATOM     19  C   UNL A   1     -28.441  -5.895  50.412  0.00  0.00    +0.014 C 
ATOM     20  C   UNL A   1     -28.593  -6.085  51.918  0.00  0.00    +0.005 C 
ENDBRANCH  16  19
ENDBRANCH  15  16
ENDBRANCH  13  15
ENDBRANCH   3  13
BRANCH   2  21
ATOM     21  C   UNL A   1     -24.956  -4.310  50.847  0.00  0.00    +0.008 C 
BRANCH  21  22
ATOM     22  C   UNL A   1     -24.969  -5.431  51.892  0.00  0.00    +0.045 C 
BRANCH  22  25
ATOM     23  O   UNL A   1     -23.661  -7.372  52.481  0.00  0.00    -0.461 OA
ATOM     24  O   UNL A   1     -22.134  -8.966  52.935  0.00  0.00    -0.251 OA
ATOM     25  C   UNL A   1     -24.262  -6.684  51.362  0.00  0.00    +0.179 C 
ATOM     26  C   UNL A   1     -25.242  -7.585  50.633  0.00  0.00    +0.076 C 
ATOM     27  C   UNL A   1     -24.512  -8.844  50.213  0.00  0.00    +0.129 C 
ATOM     28  C   UNL A   1     -23.897  -9.530  51.417  0.00  0.00    +0.152 C 
ATOM     29  C   UNL A   1     -23.112  -8.590  52.292  0.00  0.00    +0.310 C 
BRANCH  27  30
ATOM     30  O   UNL A   1     -23.505  -8.502  49.262  0.00  0.00    -0.391 OA
ATOM     31  H   UNL A   1     -23.360  -7.539  49.299  0.00  0.00    +0.210 HD
ENDBRANCH  27  30
ENDBRANCH  22  25
ENDBRANCH  21  22
ENDBRANCH   2  21
TORSDOF 8
