REMARK VINA RESULT:      -7.5     19.731     23.054
REMARK  Name = D0H0ND
REMARK  13 active torsions:
REMARK  status: ('A' for Active; 'I' for Inactive)
REMARK    1  A    between atoms: O_1  and  C_8
REMARK    2  A    between atoms: O_1  and  C_22
REMARK    3  A    between atoms: O_3  and  C_23
REMARK    4  A    between atoms: C_7  and  C_11
REMARK    5  A    between atoms: C_9  and  C_18
REMARK    6  A    between atoms: C_11  and  C_15
REMARK    7  A    between atoms: C_13  and  C_20
REMARK    8  A    between atoms: C_15  and  C_19
REMARK    9  A    between atoms: C_22  and  C_24
REMARK   10  A    between atoms: C_24  and  C_27
REMARK   11  A    between atoms: C_24  and  C_28
REMARK   12  A    between atoms: C_24  and  C_29
REMARK   13  A    between atoms: C_27  and  C_30
REMARK                            x       y       z     vdW  Elec       q    Type
REMARK                         _______ _______ _______ _____ _____    ______ ____
ROOT
ATOM      1  C   UNL A   1     -26.206  -4.041  51.328  0.00  0.00    +0.063 C 
ATOM      2  C   UNL A   1     -24.896  -3.247  51.677  0.00  0.00    +0.007 C 
ATOM      3  C   UNL A   1     -26.165  -5.613  51.234  0.00  0.00    +0.185 C 
ATOM      4  C   UNL A   1     -25.145  -1.716  51.492  0.00  0.00    +0.012 C 
ATOM      5  C   UNL A   1     -27.353  -3.522  52.212  0.00  0.00    -0.044 C 
ATOM      6  C   UNL A   1     -26.817  -6.293  52.438  0.00  0.00    +0.052 C 
ATOM      7  C   UNL A   1     -28.261  -5.822  52.616  0.00  0.00    +0.012 C 
ATOM      8  C   UNL A   1     -28.292  -4.327  52.744  0.00  0.00    -0.020 C 
ATOM      9  C   UNL A   1     -26.404  -1.269  52.177  0.00  0.00    -0.023 C 
ATOM     10  C   UNL A   1     -27.402  -2.101  52.496  0.00  0.00    -0.000 C 
ATOM     11  C   UNL A   1     -25.222  -1.260  50.025  0.00  0.00    +0.012 C 
ATOM     12  C   UNL A   1     -28.881  -6.495  53.840  0.00  0.00    +0.012 C 
ENDROOT
BRANCH   3  13
ATOM     13  O   UNL A   1     -24.834  -6.150  51.102  0.00  0.00    -0.460 OA
BRANCH  13  15
ATOM     14  O   UNL A   1     -24.636  -6.832  48.931  0.00  0.00    -0.250 OA
ATOM     15  C   UNL A   1     -24.599  -7.077  50.131  0.00  0.00    +0.313 C 
BRANCH  15  16
ATOM     16  C   UNL A   1     -24.224  -8.452  50.728  0.00  0.00    +0.062 C 
ATOM     17  C   UNL A   1     -23.170  -9.093  49.818  0.00  0.00    +0.022 C 
ATOM     18  C   UNL A   1     -23.676  -8.291  52.159  0.00  0.00    +0.022 C 
BRANCH  16  19
ATOM     19  C   UNL A   1     -25.495  -9.342  50.741  0.00  0.00    +0.014 C 
ATOM     20  C   UNL A   1     -25.249 -10.847  50.725  0.00  0.00    +0.005 C 
ENDBRANCH  16  19
ENDBRANCH  15  16
ENDBRANCH  13  15
ENDBRANCH   3  13
BRANCH   2  21
ATOM     21  C   UNL A   1     -23.661  -3.698  50.884  0.00  0.00    +0.008 C 
BRANCH  21  22
ATOM     22  C   UNL A   1     -22.411  -2.816  50.947  0.00  0.00    +0.045 C 
BRANCH  22  25
ATOM     23  O   UNL A   1     -20.483  -3.632  52.148  0.00  0.00    -0.461 OA
ATOM     24  O   UNL A   1     -18.905  -4.702  53.350  0.00  0.00    -0.251 OA
ATOM     25  C   UNL A   1     -21.731  -2.924  52.316  0.00  0.00    +0.179 C 
ATOM     26  C   UNL A   1     -21.498  -1.548  52.910  0.00  0.00    +0.076 C 
ATOM     27  C   UNL A   1     -20.744  -1.710  54.215  0.00  0.00    +0.129 C 
ATOM     28  C   UNL A   1     -19.446  -2.458  53.990  0.00  0.00    +0.152 C 
ATOM     29  C   UNL A   1     -19.625  -3.718  53.186  0.00  0.00    +0.310 C 
BRANCH  27  30
ATOM     30  O   UNL A   1     -21.571  -2.408  55.144  0.00  0.00    -0.391 OA
ATOM     31  H   UNL A   1     -22.301  -1.820  55.411  0.00  0.00    +0.210 HD
ENDBRANCH  27  30
ENDBRANCH  22  25
ENDBRANCH  21  22
ENDBRANCH   2  21
TORSDOF 8
