REMARK VINA RESULT:      -7.2      5.364      9.650
REMARK  Name = D0H0ND
REMARK  13 active torsions:
REMARK  status: ('A' for Active; 'I' for Inactive)
REMARK    1  A    between atoms: O_1  and  C_8
REMARK    2  A    between atoms: O_1  and  C_22
REMARK    3  A    between atoms: O_3  and  C_23
REMARK    4  A    between atoms: C_7  and  C_11
REMARK    5  A    between atoms: C_9  and  C_18
REMARK    6  A    between atoms: C_11  and  C_15
REMARK    7  A    between atoms: C_13  and  C_20
REMARK    8  A    between atoms: C_15  and  C_19
REMARK    9  A    between atoms: C_22  and  C_24
REMARK   10  A    between atoms: C_24  and  C_27
REMARK   11  A    between atoms: C_24  and  C_28
REMARK   12  A    between atoms: C_24  and  C_29
REMARK   13  A    between atoms: C_27  and  C_30
REMARK                            x       y       z     vdW  Elec       q    Type
REMARK                         _______ _______ _______ _____ _____    ______ ____
ROOT
ATOM      1  C   UNL A   1      -1.885  10.289  53.842  0.00  0.00    +0.063 C 
ATOM      2  C   UNL A   1      -2.328  10.292  52.335  0.00  0.00    +0.007 C 
ATOM      3  C   UNL A   1      -0.355  10.209  54.206  0.00  0.00    +0.185 C 
ATOM      4  C   UNL A   1      -3.882  10.154  52.244  0.00  0.00    +0.012 C 
ATOM      5  C   UNL A   1      -2.619  11.422  54.578  0.00  0.00    -0.044 C 
ATOM      6  C   UNL A   1       0.207  11.546  54.689  0.00  0.00    +0.052 C 
ATOM      7  C   UNL A   1      -0.583  12.070  55.887  0.00  0.00    +0.012 C 
ATOM      8  C   UNL A   1      -2.035  12.182  55.525  0.00  0.00    -0.020 C 
ATOM      9  C   UNL A   1      -4.582  11.124  53.152  0.00  0.00    -0.023 C 
ATOM     10  C   UNL A   1      -3.996  11.691  54.212  0.00  0.00    -0.000 C 
ATOM     11  C   UNL A   1      -4.413   8.746  52.563  0.00  0.00    +0.012 C 
ATOM     12  C   UNL A   1      -0.020  13.419  56.334  0.00  0.00    +0.012 C 
ENDROOT
BRANCH   3  13
ATOM     13  O   UNL A   1       0.476   9.758  53.117  0.00  0.00    -0.460 OA
BRANCH  13  15
ATOM     14  O   UNL A   1       1.897   8.659  54.527  0.00  0.00    -0.250 OA
ATOM     15  C   UNL A   1       1.510   8.915  53.394  0.00  0.00    +0.313 C 
BRANCH  15  16
ATOM     16  C   UNL A   1       2.090   8.277  52.110  0.00  0.00    +0.062 C 
ATOM     17  C   UNL A   1       1.182   7.110  51.708  0.00  0.00    +0.022 C 
ATOM     18  C   UNL A   1       2.168   9.317  50.977  0.00  0.00    +0.022 C 
BRANCH  16  19
ATOM     19  C   UNL A   1       3.506   7.733  52.433  0.00  0.00    +0.014 C 
ATOM     20  C   UNL A   1       4.464   7.639  51.250  0.00  0.00    +0.005 C 
ENDBRANCH  16  19
ENDBRANCH  15  16
ENDBRANCH  13  15
ENDBRANCH   3  13
BRANCH   2  21
ATOM     21  C   UNL A   1      -1.636   9.223  51.477  0.00  0.00    +0.008 C 
BRANCH  21  22
ATOM     22  C   UNL A   1      -1.730   9.358  49.954  0.00  0.00    +0.045 C 
BRANCH  22  25
ATOM     23  O   UNL A   1      -2.315   8.193  47.923  0.00  0.00    -0.461 OA
ATOM     24  O   UNL A   1      -3.176   7.332  46.026  0.00  0.00    -0.251 OA
ATOM     25  C   UNL A   1      -2.539   8.204  49.350  0.00  0.00    +0.179 C 
ATOM     26  C   UNL A   1      -2.135   6.881  49.973  0.00  0.00    +0.076 C 
ATOM     27  C   UNL A   1      -2.897   5.772  49.277  0.00  0.00    +0.129 C 
ATOM     28  C   UNL A   1      -2.634   5.800  47.785  0.00  0.00    +0.152 C 
ATOM     29  C   UNL A   1      -2.797   7.171  47.185  0.00  0.00    +0.310 C 
BRANCH  27  30
ATOM     30  O   UNL A   1      -4.290   5.927  49.544  0.00  0.00    -0.391 OA
ATOM     31  H   UNL A   1      -4.667   6.527  48.875  0.00  0.00    +0.210 HD
ENDBRANCH  27  30
ENDBRANCH  22  25
ENDBRANCH  21  22
ENDBRANCH   2  21
TORSDOF 8
