REMARK VINA RESULT:      -7.5      1.735      2.607
REMARK  Name = D0H0ND
REMARK  13 active torsions:
REMARK  status: ('A' for Active; 'I' for Inactive)
REMARK    1  A    between atoms: O_1  and  C_8
REMARK    2  A    between atoms: O_1  and  C_22
REMARK    3  A    between atoms: O_3  and  C_23
REMARK    4  A    between atoms: C_7  and  C_11
REMARK    5  A    between atoms: C_9  and  C_18
REMARK    6  A    between atoms: C_11  and  C_15
REMARK    7  A    between atoms: C_13  and  C_20
REMARK    8  A    between atoms: C_15  and  C_19
REMARK    9  A    between atoms: C_22  and  C_24
REMARK   10  A    between atoms: C_24  and  C_27
REMARK   11  A    between atoms: C_24  and  C_28
REMARK   12  A    between atoms: C_24  and  C_29
REMARK   13  A    between atoms: C_27  and  C_30
REMARK                            x       y       z     vdW  Elec       q    Type
REMARK                         _______ _______ _______ _____ _____    ______ ____
ROOT
ATOM      1  C   UNL A   1      -4.337   3.618  45.181  0.00  0.00    +0.063 C 
ATOM      2  C   UNL A   1      -5.411   3.082  46.193  0.00  0.00    +0.007 C 
ATOM      3  C   UNL A   1      -3.253   4.654  45.667  0.00  0.00    +0.185 C 
ATOM      4  C   UNL A   1      -6.490   2.253  45.424  0.00  0.00    +0.012 C 
ATOM      5  C   UNL A   1      -3.729   2.426  44.422  0.00  0.00    -0.044 C 
ATOM      6  C   UNL A   1      -1.871   4.024  45.840  0.00  0.00    +0.052 C 
ATOM      7  C   UNL A   1      -1.408   3.360  44.543  0.00  0.00    +0.012 C 
ATOM      8  C   UNL A   1      -2.423   2.346  44.104  0.00  0.00    -0.020 C 
ATOM      9  C   UNL A   1      -5.866   1.240  44.508  0.00  0.00    -0.023 C 
ATOM     10  C   UNL A   1      -4.610   1.333  44.057  0.00  0.00    -0.000 C 
ATOM     11  C   UNL A   1      -7.465   3.102  44.591  0.00  0.00    +0.012 C 
ATOM     12  C   UNL A   1      -0.037   2.715  44.749  0.00  0.00    +0.012 C 
ENDROOT
BRANCH   3  13
ATOM     13  O   UNL A   1      -3.591   5.304  46.908  0.00  0.00    -0.460 OA
BRANCH  13  15
ATOM     14  O   UNL A   1      -3.298   7.455  46.200  0.00  0.00    -0.250 OA
ATOM     15  C   UNL A   1      -3.230   6.606  47.080  0.00  0.00    +0.313 C 
BRANCH  15  16
ATOM     16  C   UNL A   1      -2.783   6.892  48.532  0.00  0.00    +0.062 C 
ATOM     17  C   UNL A   1      -1.498   6.100  48.798  0.00  0.00    +0.022 C 
ATOM     18  C   UNL A   1      -2.542   8.400  48.738  0.00  0.00    +0.022 C 
BRANCH  16  19
ATOM     19  C   UNL A   1      -3.896   6.395  49.492  0.00  0.00    +0.014 C 
ATOM     20  C   UNL A   1      -3.557   5.153  50.311  0.00  0.00    +0.005 C 
ENDBRANCH  16  19
ENDBRANCH  15  16
ENDBRANCH  13  15
ENDBRANCH   3  13
BRANCH   2  21
ATOM     21  C   UNL A   1      -6.070   4.177  47.044  0.00  0.00    +0.008 C 
BRANCH  21  22
ATOM     22  C   UNL A   1      -6.649   3.774  48.404  0.00  0.00    +0.045 C 
BRANCH  22  25
ATOM     23  O   UNL A   1      -8.446   4.509  49.837  0.00  0.00    -0.461 OA
ATOM     24  O   UNL A   1     -10.201   4.819  51.218  0.00  0.00    -0.251 OA
ATOM     25  C   UNL A   1      -8.144   4.104  48.484  0.00  0.00    +0.179 C 
ATOM     26  C   UNL A   1      -8.506   5.197  47.497  0.00  0.00    +0.076 C 
ATOM     27  C   UNL A   1      -9.968   5.546  47.682  0.00  0.00    +0.129 C 
ATOM     28  C   UNL A   1     -10.239   5.963  49.114  0.00  0.00    +0.152 C 
ATOM     29  C   UNL A   1      -9.670   5.002  50.123  0.00  0.00    +0.310 C 
BRANCH  27  30
ATOM     30  O   UNL A   1     -10.763   4.415  47.330  0.00  0.00    -0.391 OA
ATOM     31  H   UNL A   1     -10.863   3.850  48.119  0.00  0.00    +0.210 HD
ENDBRANCH  27  30
ENDBRANCH  22  25
ENDBRANCH  21  22
ENDBRANCH   2  21
TORSDOF 8
