REMARK VINA RESULT:      -7.8      0.000      0.000
REMARK  Name = D0H0ND
REMARK  13 active torsions:
REMARK  status: ('A' for Active; 'I' for Inactive)
REMARK    1  A    between atoms: O_1  and  C_8
REMARK    2  A    between atoms: O_1  and  C_22
REMARK    3  A    between atoms: O_3  and  C_23
REMARK    4  A    between atoms: C_7  and  C_11
REMARK    5  A    between atoms: C_9  and  C_18
REMARK    6  A    between atoms: C_11  and  C_15
REMARK    7  A    between atoms: C_13  and  C_20
REMARK    8  A    between atoms: C_15  and  C_19
REMARK    9  A    between atoms: C_22  and  C_24
REMARK   10  A    between atoms: C_24  and  C_27
REMARK   11  A    between atoms: C_24  and  C_28
REMARK   12  A    between atoms: C_24  and  C_29
REMARK   13  A    between atoms: C_27  and  C_30
REMARK                            x       y       z     vdW  Elec       q    Type
REMARK                         _______ _______ _______ _____ _____    ______ ____
ROOT
ATOM      1  C   UNL A   1      -4.328   3.702  45.266  0.00  0.00    +0.063 C 
ATOM      2  C   UNL A   1      -5.380   3.187  46.312  0.00  0.00    +0.007 C 
ATOM      3  C   UNL A   1      -3.191   4.693  45.722  0.00  0.00    +0.185 C 
ATOM      4  C   UNL A   1      -6.515   2.406  45.575  0.00  0.00    +0.012 C 
ATOM      5  C   UNL A   1      -3.791   2.501  44.468  0.00  0.00    -0.044 C 
ATOM      6  C   UNL A   1      -1.826   4.015  45.833  0.00  0.00    +0.052 C 
ATOM      7  C   UNL A   1      -1.436   3.354  44.511  0.00  0.00    +0.012 C 
ATOM      8  C   UNL A   1      -2.502   2.382  44.098  0.00  0.00    -0.020 C 
ATOM      9  C   UNL A   1      -5.962   1.386  44.622  0.00  0.00    -0.023 C 
ATOM     10  C   UNL A   1      -4.722   1.443  44.123  0.00  0.00    -0.000 C 
ATOM     11  C   UNL A   1      -7.492   3.299  44.791  0.00  0.00    +0.012 C 
ATOM     12  C   UNL A   1      -0.081   2.661  44.655  0.00  0.00    +0.012 C 
ENDROOT
BRANCH   3  13
ATOM     13  O   UNL A   1      -3.459   5.336  46.985  0.00  0.00    -0.460 OA
BRANCH  13  15
ATOM     14  O   UNL A   1      -3.296   7.481  46.217  0.00  0.00    -0.250 OA
ATOM     15  C   UNL A   1      -3.163   6.659  47.116  0.00  0.00    +0.313 C 
BRANCH  15  16
ATOM     16  C   UNL A   1      -2.700   7.005  48.550  0.00  0.00    +0.062 C 
ATOM     17  C   UNL A   1      -1.374   6.280  48.808  0.00  0.00    +0.022 C 
ATOM     18  C   UNL A   1      -2.524   8.527  48.711  0.00  0.00    +0.022 C 
BRANCH  16  19
ATOM     19  C   UNL A   1      -3.768   6.484  49.547  0.00  0.00    +0.014 C 
ATOM     20  C   UNL A   1      -3.256   5.539  50.630  0.00  0.00    +0.005 C 
ENDBRANCH  16  19
ENDBRANCH  15  16
ENDBRANCH  13  15
ENDBRANCH   3  13
BRANCH   2  21
ATOM     21  C   UNL A   1      -5.968   4.291  47.202  0.00  0.00    +0.008 C 
BRANCH  21  22
ATOM     22  C   UNL A   1      -6.952   3.875  48.300  0.00  0.00    +0.045 C 
BRANCH  22  25
ATOM     23  O   UNL A   1      -6.753   4.503  50.622  0.00  0.00    -0.461 OA
ATOM     24  O   UNL A   1      -6.277   5.314  52.670  0.00  0.00    -0.251 OA
ATOM     25  C   UNL A   1      -6.220   3.608  49.620  0.00  0.00    +0.179 C 
ATOM     26  C   UNL A   1      -6.385   2.161  50.042  0.00  0.00    +0.076 C 
ATOM     27  C   UNL A   1      -5.722   1.977  51.392  0.00  0.00    +0.129 C 
ATOM     28  C   UNL A   1      -6.311   2.934  52.409  0.00  0.00    +0.152 C 
ATOM     29  C   UNL A   1      -6.378   4.353  51.910  0.00  0.00    +0.310 C 
BRANCH  27  30
ATOM     30  O   UNL A   1      -4.319   2.192  51.254  0.00  0.00    -0.391 OA
ATOM     31  H   UNL A   1      -4.027   1.798  50.411  0.00  0.00    +0.210 HD
ENDBRANCH  27  30
ENDBRANCH  22  25
ENDBRANCH  21  22
ENDBRANCH   2  21
TORSDOF 8
