REMARK VINA RESULT:      -7.4      9.776     13.574
REMARK  Name = D0H0ND
REMARK  13 active torsions:
REMARK  status: ('A' for Active; 'I' for Inactive)
REMARK    1  A    between atoms: O_1  and  C_8
REMARK    2  A    between atoms: O_1  and  C_22
REMARK    3  A    between atoms: O_3  and  C_23
REMARK    4  A    between atoms: C_7  and  C_11
REMARK    5  A    between atoms: C_9  and  C_18
REMARK    6  A    between atoms: C_11  and  C_15
REMARK    7  A    between atoms: C_13  and  C_20
REMARK    8  A    between atoms: C_15  and  C_19
REMARK    9  A    between atoms: C_22  and  C_24
REMARK   10  A    between atoms: C_24  and  C_27
REMARK   11  A    between atoms: C_24  and  C_28
REMARK   12  A    between atoms: C_24  and  C_29
REMARK   13  A    between atoms: C_27  and  C_30
REMARK                            x       y       z     vdW  Elec       q    Type
REMARK                         _______ _______ _______ _____ _____    ______ ____
ROOT
ATOM      1  C   UNL A   1     -16.045   9.413  47.554  0.00  0.00    +0.063 C 
ATOM      2  C   UNL A   1     -14.503   9.593  47.319  0.00  0.00    +0.007 C 
ATOM      3  C   UNL A   1     -16.713   8.006  47.315  0.00  0.00    +0.185 C 
ATOM      4  C   UNL A   1     -14.132  11.109  47.407  0.00  0.00    +0.012 C 
ATOM      5  C   UNL A   1     -16.417  10.030  48.913  0.00  0.00    -0.044 C 
ATOM      6  C   UNL A   1     -17.061   7.289  48.620  0.00  0.00    +0.052 C 
ATOM      7  C   UNL A   1     -17.972   8.153  49.492  0.00  0.00    +0.012 C 
ATOM      8  C   UNL A   1     -17.316   9.477  49.750  0.00  0.00    -0.020 C 
ATOM      9  C   UNL A   1     -14.704  11.752  48.637  0.00  0.00    -0.023 C 
ATOM     10  C   UNL A   1     -15.746  11.253  49.311  0.00  0.00    -0.000 C 
ATOM     11  C   UNL A   1     -14.577  11.941  46.192  0.00  0.00    +0.012 C 
ATOM     12  C   UNL A   1     -18.283   7.426  50.800  0.00  0.00    +0.012 C 
ENDROOT
BRANCH   3  13
ATOM     13  O   UNL A   1     -15.904   7.108  46.530  0.00  0.00    -0.460 OA
BRANCH  13  15
ATOM     14  O   UNL A   1     -17.702   6.321  45.362  0.00  0.00    -0.250 OA
ATOM     15  C   UNL A   1     -16.528   6.227  45.700  0.00  0.00    +0.313 C 
BRANCH  15  16
ATOM     16  C   UNL A   1     -15.561   5.133  45.191  0.00  0.00    +0.062 C 
ATOM     17  C   UNL A   1     -14.908   4.472  46.411  0.00  0.00    +0.022 C 
ATOM     18  C   UNL A   1     -16.320   4.087  44.351  0.00  0.00    +0.022 C 
BRANCH  16  19
ATOM     19  C   UNL A   1     -14.464   5.813  44.332  0.00  0.00    +0.014 C 
ATOM     20  C   UNL A   1     -14.905   6.286  42.950  0.00  0.00    +0.005 C 
ENDBRANCH  16  19
ENDBRANCH  15  16
ENDBRANCH  13  15
ENDBRANCH   3  13
BRANCH   2  21
ATOM     21  C   UNL A   1     -13.995   8.984  46.005  0.00  0.00    +0.008 C 
BRANCH  21  22
ATOM     22  C   UNL A   1     -12.481   8.917  45.787  0.00  0.00    +0.045 C 
BRANCH  22  25
ATOM     23  O   UNL A   1     -11.646   7.856  43.786  0.00  0.00    -0.461 OA
ATOM     24  O   UNL A   1     -10.523   7.012  42.023  0.00  0.00    -0.251 OA
ATOM     25  C   UNL A   1     -12.130   9.114  44.308  0.00  0.00    +0.179 C 
ATOM     26  C   UNL A   1     -13.339   9.595  43.529  0.00  0.00    +0.076 C 
ATOM     27  C   UNL A   1     -12.961   9.684  42.064  0.00  0.00    +0.129 C 
ATOM     28  C   UNL A   1     -12.459   8.345  41.562  0.00  0.00    +0.152 C 
ATOM     29  C   UNL A   1     -11.419   7.732  42.461  0.00  0.00    +0.310 C 
BRANCH  27  30
ATOM     30  O   UNL A   1     -11.961  10.688  41.903  0.00  0.00    -0.391 OA
ATOM     31  H   UNL A   1     -12.403  11.546  41.769  0.00  0.00    +0.210 HD
ENDBRANCH  27  30
ENDBRANCH  22  25
ENDBRANCH  21  22
ENDBRANCH   2  21
TORSDOF 8
