REMARK VINA RESULT:      -7.3     18.620     21.530
REMARK  Name = D0H0ND
REMARK  13 active torsions:
REMARK  status: ('A' for Active; 'I' for Inactive)
REMARK    1  A    between atoms: O_1  and  C_8
REMARK    2  A    between atoms: O_1  and  C_22
REMARK    3  A    between atoms: O_3  and  C_23
REMARK    4  A    between atoms: C_7  and  C_11
REMARK    5  A    between atoms: C_9  and  C_18
REMARK    6  A    between atoms: C_11  and  C_15
REMARK    7  A    between atoms: C_13  and  C_20
REMARK    8  A    between atoms: C_15  and  C_19
REMARK    9  A    between atoms: C_22  and  C_24
REMARK   10  A    between atoms: C_24  and  C_27
REMARK   11  A    between atoms: C_24  and  C_28
REMARK   12  A    between atoms: C_24  and  C_29
REMARK   13  A    between atoms: C_27  and  C_30
REMARK                            x       y       z     vdW  Elec       q    Type
REMARK                         _______ _______ _______ _____ _____    ______ ____
ROOT
ATOM      1  C   UNL A   1     -24.699  -1.234  51.786  0.00  0.00    +0.063 C 
ATOM      2  C   UNL A   1     -24.943  -2.564  50.987  0.00  0.00    +0.007 C 
ATOM      3  C   UNL A   1     -23.342  -1.023  52.557  0.00  0.00    +0.185 C 
ATOM      4  C   UNL A   1     -26.428  -2.622  50.505  0.00  0.00    +0.012 C 
ATOM      5  C   UNL A   1     -25.072  -0.040  50.891  0.00  0.00    -0.044 C 
ATOM      6  C   UNL A   1     -22.409  -0.039  51.852  0.00  0.00    +0.052 C 
ATOM      7  C   UNL A   1     -23.098   1.309  51.638  0.00  0.00    +0.012 C 
ATOM      8  C   UNL A   1     -24.371   1.109  50.870  0.00  0.00    -0.020 C 
ATOM      9  C   UNL A   1     -26.845  -1.348  49.830  0.00  0.00    -0.023 C 
ATOM     10  C   UNL A   1     -26.221  -0.179  50.017  0.00  0.00    -0.000 C 
ATOM     11  C   UNL A   1     -27.445  -2.918  51.620  0.00  0.00    +0.012 C 
ATOM     12  C   UNL A   1     -22.156   2.266  50.908  0.00  0.00    +0.012 C 
ENDROOT
BRANCH   3  13
ATOM     13  O   UNL A   1     -22.602  -2.242  52.771  0.00  0.00    -0.460 OA
BRANCH  13  15
ATOM     14  O   UNL A   1     -22.079  -1.967  54.977  0.00  0.00    -0.250 OA
ATOM     15  C   UNL A   1     -21.768  -2.318  53.845  0.00  0.00    +0.313 C 
BRANCH  15  16
ATOM     16  C   UNL A   1     -20.408  -2.953  53.474  0.00  0.00    +0.062 C 
ATOM     17  C   UNL A   1     -20.430  -3.276  51.976  0.00  0.00    +0.022 C 
ATOM     18  C   UNL A   1     -19.252  -1.989  53.802  0.00  0.00    +0.022 C 
BRANCH  16  19
ATOM     19  C   UNL A   1     -20.249  -4.270  54.277  0.00  0.00    +0.014 C 
ATOM     20  C   UNL A   1     -18.836  -4.842  54.336  0.00  0.00    +0.005 C 
ENDBRANCH  16  19
ENDBRANCH  15  16
ENDBRANCH  13  15
ENDBRANCH   3  13
BRANCH   2  21
ATOM     21  C   UNL A   1     -24.571  -3.836  51.763  0.00  0.00    +0.008 C 
BRANCH  21  22
ATOM     22  C   UNL A   1     -25.422  -5.088  51.530  0.00  0.00    +0.045 C 
BRANCH  22  25
ATOM     23  O   UNL A   1     -24.254  -7.160  51.942  0.00  0.00    -0.461 OA
ATOM     24  O   UNL A   1     -22.848  -8.871  52.358  0.00  0.00    -0.251 OA
ATOM     25  C   UNL A   1     -24.587  -6.211  50.904  0.00  0.00    +0.179 C 
ATOM     26  C   UNL A   1     -25.349  -6.884  49.778  0.00  0.00    +0.076 C 
ATOM     27  C   UNL A   1     -24.517  -8.039  49.260  0.00  0.00    +0.129 C 
ATOM     28  C   UNL A   1     -24.192  -9.006  50.381  0.00  0.00    +0.152 C 
ATOM     29  C   UNL A   1     -23.653  -8.322  51.608  0.00  0.00    +0.310 C 
BRANCH  27  30
ATOM     30  O   UNL A   1     -23.321  -7.525  48.677  0.00  0.00    -0.391 OA
ATOM     31  H   UNL A   1     -23.070  -6.712  49.153  0.00  0.00    +0.210 HD
ENDBRANCH  27  30
ENDBRANCH  22  25
ENDBRANCH  21  22
ENDBRANCH   2  21
TORSDOF 8
