REMARK  Name = D0H0ND
REMARK  13 active torsions:
REMARK  status: ('A' for Active; 'I' for Inactive)
REMARK    1  A    between atoms: O_1  and  C_8
REMARK    2  A    between atoms: O_1  and  C_22
REMARK    3  A    between atoms: O_3  and  C_23
REMARK    4  A    between atoms: C_7  and  C_11
REMARK    5  A    between atoms: C_9  and  C_18
REMARK    6  A    between atoms: C_11  and  C_15
REMARK    7  A    between atoms: C_13  and  C_20
REMARK    8  A    between atoms: C_15  and  C_19
REMARK    9  A    between atoms: C_22  and  C_24
REMARK   10  A    between atoms: C_24  and  C_27
REMARK   11  A    between atoms: C_24  and  C_28
REMARK   12  A    between atoms: C_24  and  C_29
REMARK   13  A    between atoms: C_27  and  C_30
REMARK                            x       y       z     vdW  Elec       q    Type
REMARK                         _______ _______ _______ _____ _____    ______ ____
ROOT
ATOM      1  C   UNL A   1      -1.804  -0.584  -0.723  0.00  0.00    +0.063 C 
ATOM      2  C   UNL A   1      -2.709   0.626  -0.295  0.00  0.00    +0.007 C 
ATOM      3  C   UNL A   1      -0.240  -0.406  -0.788  0.00  0.00    +0.185 C 
ATOM      4  C   UNL A   1      -4.212   0.264  -0.522  0.00  0.00    +0.012 C 
ATOM      5  C   UNL A   1      -2.233  -1.831   0.069  0.00  0.00    -0.044 C 
ATOM      6  C   UNL A   1       0.480  -1.083   0.378  0.00  0.00    +0.052 C 
ATOM      7  C   UNL A   1       0.131  -2.570   0.446  0.00  0.00    +0.012 C 
ATOM      8  C   UNL A   1      -1.357  -2.735   0.547  0.00  0.00    -0.020 C 
ATOM      9  C   UNL A   1      -4.558  -1.074   0.065  0.00  0.00    -0.023 C 
ATOM     10  C   UNL A   1      -3.648  -2.019   0.326  0.00  0.00    -0.000 C 
ATOM     11  C   UNL A   1      -4.645   0.255  -1.998  0.00  0.00    +0.012 C 
ATOM     12  C   UNL A   1       0.841  -3.218   1.634  0.00  0.00    +0.012 C 
ENDROOT
BRANCH   3  13
ATOM     13  O   UNL A   1       0.184   0.972  -0.817  0.00  0.00    -0.460 OA
BRANCH  13  15
ATOM     14  O   UNL A   1       1.969   0.482  -2.155  0.00  0.00    -0.250 OA
ATOM     15  C   UNL A   1       1.287   1.298  -1.547  0.00  0.00    +0.313 C 
BRANCH  15  16
ATOM     16  C   UNL A   1       1.535   2.824  -1.563  0.00  0.00    +0.062 C 
ATOM     17  C   UNL A   1       0.562   3.452  -2.567  0.00  0.00    +0.022 C 
ATOM     18  C   UNL A   1       1.324   3.422  -0.159  0.00  0.00    +0.022 C 
BRANCH  16  19
ATOM     19  C   UNL A   1       2.990   3.077  -2.037  0.00  0.00    +0.014 C 
ATOM     20  C   UNL A   1       3.402   4.541  -2.155  0.00  0.00    +0.005 C 
ENDBRANCH  16  19
ENDBRANCH  15  16
ENDBRANCH  13  15
ENDBRANCH   3  13
BRANCH   2  21
ATOM     21  C   UNL A   1      -2.356   1.948  -0.992  0.00  0.00    +0.008 C 
BRANCH  21  22
ATOM     22  C   UNL A   1      -3.338   3.115  -0.849  0.00  0.00    +0.045 C 
BRANCH  22  25
ATOM     23  O   UNL A   1      -2.858   3.790  -3.116  0.00  0.00    -0.461 OA
ATOM     24  O   UNL A   1      -2.039   4.364  -5.136  0.00  0.00    -0.251 OA
ATOM     25  C   UNL A   1      -2.940   4.282  -1.760  0.00  0.00    +0.179 C 
ATOM     26  C   UNL A   1      -3.945   5.413  -1.653  0.00  0.00    +0.076 C 
ATOM     27  C   UNL A   1      -3.554   6.496  -2.638  0.00  0.00    +0.129 C 
ATOM     28  C   UNL A   1      -3.479   5.935  -4.044  0.00  0.00    +0.152 C 
ATOM     29  C   UNL A   1      -2.676   4.665  -4.128  0.00  0.00    +0.310 C 
BRANCH  27  30
ATOM     30  O   UNL A   1      -2.296   7.045  -2.249  0.00  0.00    -0.391 OA
ATOM     31  H   UNL A   1      -2.047   7.733  -2.893  0.00  0.00    +0.210 HD
ENDBRANCH  27  30
ENDBRANCH  22  25
ENDBRANCH  21  22
ENDBRANCH   2  21
TORSDOF 8
