REMARK VINA RESULT:      -6.7     33.664     34.781
REMARK  Name = D07QFP
REMARK  7 active torsions:
REMARK  status: ('A' for Active; 'I' for Inactive)
REMARK    1  A    between atoms: O_4  and  C_15
REMARK    2  A    between atoms: N_6  and  C_8
REMARK    3  A    between atoms: N_6  and  C_15
REMARK    4  A    between atoms: C_9  and  C_14
REMARK    5  A    between atoms: C_16  and  C_17
REMARK    6  A    between atoms: C_16  and  C_19
REMARK    7  A    between atoms: C_17  and  C_18
REMARK                            x       y       z     vdW  Elec       q    Type
REMARK                         _______ _______ _______ _____ _____    ______ ____
ROOT
ATOM      1  N   UNL A   1     -29.023  23.716  36.106  0.00  0.00    -0.285 N 
ATOM      2  H   UNL A   1     -29.164  24.593  36.592  0.00  0.00    +0.155 HD
ENDROOT
BRANCH   1   3
ATOM      3  C   UNL A   1     -28.079  23.772  35.063  0.00  0.00    +0.034 A 
ATOM      4  C   UNL A   1     -26.202  24.143  32.977  0.00  0.00    +0.055 A 
ATOM      5  C   UNL A   1     -26.770  24.183  35.343  0.00  0.00    +0.024 A 
ATOM      6  C   UNL A   1     -28.423  23.530  33.728  0.00  0.00    +0.024 A 
ATOM      7  C   UNL A   1     -25.838  24.364  34.313  0.00  0.00    +0.014 A 
ATOM      8  C   UNL A   1     -27.501  23.709  32.697  0.00  0.00    +0.014 A 
BRANCH   4  12
ATOM      9  F   UNL A   1     -25.273  25.586  31.324  0.00  0.00    -0.166 F 
ATOM     10  F   UNL A   1     -25.408  23.475  30.817  0.00  0.00    -0.166 F 
ATOM     11  F   UNL A   1     -23.920  24.156  32.248  0.00  0.00    -0.166 F 
ATOM     12  C   UNL A   1     -25.213  24.334  31.856  0.00  0.00    +0.417 C 
ENDBRANCH   4  12
ENDBRANCH   1   3
BRANCH   1  13
ATOM     13  C   UNL A   1     -29.819  22.639  36.466  0.00  0.00    +0.203 C 
ATOM     14  C   UNL A   1     -31.117  22.491  36.108  0.00  0.00    +0.150 C 
BRANCH  14  16
ATOM     15  O   UNL A   1     -31.848  20.882  37.698  0.00  0.00    -0.291 OA
ATOM     16  C   UNL A   1     -31.875  21.269  36.526  0.00  0.00    +0.175 C 
ATOM     17  C   UNL A   1     -32.690  20.529  35.497  0.00  0.00    +0.092 C 
ENDBRANCH  14  16
BRANCH  13  18
ATOM     18  O   UNL A   1     -29.165  21.661  37.203  0.00  0.00    -0.494 OA
ATOM     19  H   UNL A   1     -29.621  20.797  37.107  0.00  0.00    +0.293 HD
ENDBRANCH  13  18
BRANCH  14  21
ATOM     20  N   UNL A   1     -32.344  24.307  34.746  0.00  0.00    -0.191 NA
ATOM     21  C   UNL A   1     -31.794  23.488  35.359  0.00  0.00    +0.108 C 
ENDBRANCH  14  21
ENDBRANCH   1  13
TORSDOF 6
