REMARK VINA RESULT:      -7.5      0.708      1.593
REMARK  Name = D07QFP
REMARK  7 active torsions:
REMARK  status: ('A' for Active; 'I' for Inactive)
REMARK    1  A    between atoms: O_4  and  C_15
REMARK    2  A    between atoms: N_6  and  C_8
REMARK    3  A    between atoms: N_6  and  C_15
REMARK    4  A    between atoms: C_9  and  C_14
REMARK    5  A    between atoms: C_16  and  C_17
REMARK    6  A    between atoms: C_16  and  C_19
REMARK    7  A    between atoms: C_17  and  C_18
REMARK                            x       y       z     vdW  Elec       q    Type
REMARK                         _______ _______ _______ _____ _____    ______ ____
ROOT
ATOM      1  N   UNL A   1       4.144  19.016  31.207  0.00  0.00    -0.285 N 
ATOM      2  H   UNL A   1       3.706  18.715  32.070  0.00  0.00    +0.155 HD
ENDROOT
BRANCH   1   3
ATOM      3  C   UNL A   1       4.654  17.969  30.417  0.00  0.00    +0.034 A 
ATOM      4  C   UNL A   1       5.528  15.703  28.963  0.00  0.00    +0.055 A 
ATOM      5  C   UNL A   1       3.841  17.392  29.433  0.00  0.00    +0.024 A 
ATOM      6  C   UNL A   1       5.916  17.406  30.642  0.00  0.00    +0.024 A 
ATOM      7  C   UNL A   1       4.272  16.273  28.709  0.00  0.00    +0.014 A 
ATOM      8  C   UNL A   1       6.352  16.291  29.926  0.00  0.00    +0.014 A 
BRANCH   4  12
ATOM      9  F   UNL A   1       6.162  13.407  28.994  0.00  0.00    -0.166 F 
ATOM     10  F   UNL A   1       7.214  14.693  27.591  0.00  0.00    -0.166 F 
ATOM     11  F   UNL A   1       5.153  14.120  27.204  0.00  0.00    -0.166 F 
ATOM     12  C   UNL A   1       6.009  14.499  28.195  0.00  0.00    +0.417 C 
ENDBRANCH   4  12
ENDBRANCH   1   3
BRANCH   1  13
ATOM     13  C   UNL A   1       4.256  20.379  30.976  0.00  0.00    +0.203 C 
ATOM     14  C   UNL A   1       4.885  21.248  31.803  0.00  0.00    +0.150 C 
BRANCH  14  16
ATOM     15  O   UNL A   1       3.955  23.350  31.198  0.00  0.00    -0.291 OA
ATOM     16  C   UNL A   1       4.975  22.697  31.438  0.00  0.00    +0.175 C 
ATOM     17  C   UNL A   1       6.330  23.354  31.391  0.00  0.00    +0.092 C 
ENDBRANCH  14  16
BRANCH  13  18
ATOM     18  O   UNL A   1       3.704  20.806  29.776  0.00  0.00    -0.494 OA
ATOM     19  H   UNL A   1       3.220  20.072  29.341  0.00  0.00    +0.293 HD
ENDBRANCH  13  18
BRANCH  14  21
ATOM     20  N   UNL A   1       5.905  20.466  34.041  0.00  0.00    -0.191 NA
ATOM     21  C   UNL A   1       5.448  20.819  33.032  0.00  0.00    +0.108 C 
ENDBRANCH  14  21
ENDBRANCH   1  13
TORSDOF 6
