REMARK  Name = D07QFP
REMARK  7 active torsions:
REMARK  status: ('A' for Active; 'I' for Inactive)
REMARK    1  A    between atoms: O_4  and  C_15
REMARK    2  A    between atoms: N_6  and  C_8
REMARK    3  A    between atoms: N_6  and  C_15
REMARK    4  A    between atoms: C_9  and  C_14
REMARK    5  A    between atoms: C_16  and  C_17
REMARK    6  A    between atoms: C_16  and  C_19
REMARK    7  A    between atoms: C_17  and  C_18
REMARK                            x       y       z     vdW  Elec       q    Type
REMARK                         _______ _______ _______ _____ _____    ______ ____
ROOT
ATOM      1  N   UNL A   1      -1.207  -0.701   0.117  0.00  0.00    -0.285 N 
ATOM      2  H   UNL A   1      -1.235  -1.714   0.118  0.00  0.00    +0.155 HD
ENDROOT
BRANCH   1   3
ATOM      3  C   UNL A   1      -2.386  -0.085   0.578  0.00  0.00    +0.034 A 
ATOM      4  C   UNL A   1      -4.808   1.211   1.259  0.00  0.00    +0.055 A 
ATOM      5  C   UNL A   1      -3.619  -0.712   0.359  0.00  0.00    +0.024 A 
ATOM      6  C   UNL A   1      -2.387   1.187   1.162  0.00  0.00    +0.024 A 
ATOM      7  C   UNL A   1      -4.819  -0.074   0.698  0.00  0.00    +0.014 A 
ATOM      8  C   UNL A   1      -3.578   1.829   1.502  0.00  0.00    +0.014 A 
BRANCH   4  12
ATOM      9  F   UNL A   1      -6.471   1.647   2.909  0.00  0.00    -0.166 F 
ATOM     10  F   UNL A   1      -7.143   1.558   0.842  0.00  0.00    -0.166 F 
ATOM     11  F   UNL A   1      -6.000   3.270   1.540  0.00  0.00    -0.166 F 
ATOM     12  C   UNL A   1      -6.089   1.913   1.629  0.00  0.00    +0.417 C 
ENDBRANCH   4  12
ENDBRANCH   1   3
BRANCH   1  13
ATOM     13  C   UNL A   1      -0.081  -0.083  -0.406  0.00  0.00    +0.203 C 
ATOM     14  C   UNL A   1       1.087  -0.715  -0.673  0.00  0.00    +0.150 C 
BRANCH  14  16
ATOM     15  O   UNL A   1       2.100   1.230  -1.589  0.00  0.00    -0.291 OA
ATOM     16  C   UNL A   1       2.231   0.045  -1.269  0.00  0.00    +0.175 C 
ATOM     17  C   UNL A   1       3.553  -0.653  -1.453  0.00  0.00    +0.092 C 
ENDBRANCH  14  16
BRANCH  13  18
ATOM     18  O   UNL A   1      -0.247   1.265  -0.695  0.00  0.00    -0.494 OA
ATOM     19  H   UNL A   1       0.572   1.634  -1.089  0.00  0.00    +0.293 HD
ENDBRANCH  13  18
BRANCH  14  21
ATOM     20  N   UNL A   1       1.407  -3.219  -0.138  0.00  0.00    -0.191 NA
ATOM     21  C   UNL A   1       1.265  -2.091  -0.377  0.00  0.00    +0.108 C 
ENDBRANCH  14  21
ENDBRANCH   1  13
TORSDOF 6
