REMARK VINA RESULT:      -7.2      1.928      2.283
REMARK  Name = D07QFP
REMARK  7 active torsions:
REMARK  status: ('A' for Active; 'I' for Inactive)
REMARK    1  A    between atoms: O_4  and  C_15
REMARK    2  A    between atoms: N_6  and  C_8
REMARK    3  A    between atoms: N_6  and  C_15
REMARK    4  A    between atoms: C_9  and  C_14
REMARK    5  A    between atoms: C_16  and  C_17
REMARK    6  A    between atoms: C_16  and  C_19
REMARK    7  A    between atoms: C_17  and  C_18
REMARK                            x       y       z     vdW  Elec       q    Type
REMARK                         _______ _______ _______ _____ _____    ______ ____
ROOT
ATOM      1  N   UNL A   1       4.187  19.361  31.224  0.00  0.00    -0.285 N 
ATOM      2  H   UNL A   1       3.473  19.909  30.759  0.00  0.00    +0.155 HD
ENDROOT
BRANCH   1   3
ATOM      3  C   UNL A   1       4.552  18.183  30.545  0.00  0.00    +0.034 A 
ATOM      4  C   UNL A   1       5.450  15.957  29.045  0.00  0.00    +0.055 A 
ATOM      5  C   UNL A   1       5.790  17.589  30.818  0.00  0.00    +0.024 A 
ATOM      6  C   UNL A   1       3.765  17.631  29.527  0.00  0.00    +0.024 A 
ATOM      7  C   UNL A   1       6.236  16.485  30.079  0.00  0.00    +0.014 A 
ATOM      8  C   UNL A   1       4.202  16.533  28.786  0.00  0.00    +0.014 A 
BRANCH   4  12
ATOM      9  F   UNL A   1       6.046  13.651  29.001  0.00  0.00    -0.166 F 
ATOM     10  F   UNL A   1       7.124  14.966  27.644  0.00  0.00    -0.166 F 
ATOM     11  F   UNL A   1       5.055  14.440  27.233  0.00  0.00    -0.166 F 
ATOM     12  C   UNL A   1       5.913  14.772  28.239  0.00  0.00    +0.417 C 
ENDBRANCH   4  12
ENDBRANCH   1   3
BRANCH   1  13
ATOM     13  C   UNL A   1       4.627  19.789  32.467  0.00  0.00    +0.203 C 
ATOM     14  C   UNL A   1       5.350  20.915  32.680  0.00  0.00    +0.150 C 
BRANCH  14  16
ATOM     15  O   UNL A   1       6.142  20.448  34.871  0.00  0.00    -0.291 OA
ATOM     16  C   UNL A   1       5.745  21.301  34.071  0.00  0.00    +0.175 C 
ATOM     17  C   UNL A   1       5.670  22.750  34.476  0.00  0.00    +0.092 C 
ENDBRANCH  14  16
BRANCH  13  18
ATOM     18  O   UNL A   1       4.224  18.987  33.527  0.00  0.00    -0.494 OA
ATOM     19  H   UNL A   1       4.431  19.421  34.382  0.00  0.00    +0.293 HD
ENDBRANCH  13  18
BRANCH  14  21
ATOM     20  N   UNL A   1       6.115  22.411  30.721  0.00  0.00    -0.191 NA
ATOM     21  C   UNL A   1       5.768  21.737  31.602  0.00  0.00    +0.108 C 
ENDBRANCH  14  21
ENDBRANCH   1  13
TORSDOF 6
