REMARK VINA RESULT:      -6.7     33.539     34.589
REMARK  Name = D07QFP
REMARK  7 active torsions:
REMARK  status: ('A' for Active; 'I' for Inactive)
REMARK    1  A    between atoms: O_4  and  C_15
REMARK    2  A    between atoms: N_6  and  C_8
REMARK    3  A    between atoms: N_6  and  C_15
REMARK    4  A    between atoms: C_9  and  C_14
REMARK    5  A    between atoms: C_16  and  C_17
REMARK    6  A    between atoms: C_16  and  C_19
REMARK    7  A    between atoms: C_17  and  C_18
REMARK                            x       y       z     vdW  Elec       q    Type
REMARK                         _______ _______ _______ _____ _____    ______ ____
ROOT
ATOM      1  N   UNL A   1     -28.950  22.891  35.769  0.00  0.00    -0.285 N 
ATOM      2  H   UNL A   1     -29.120  21.893  35.710  0.00  0.00    +0.155 HD
ENDROOT
BRANCH   1   3
ATOM      3  C   UNL A   1     -28.039  23.384  34.816  0.00  0.00    +0.034 A 
ATOM      4  C   UNL A   1     -26.147  24.131  32.848  0.00  0.00    +0.055 A 
ATOM      5  C   UNL A   1     -28.341  23.269  33.454  0.00  0.00    +0.024 A 
ATOM      6  C   UNL A   1     -26.787  23.899  35.174  0.00  0.00    +0.024 A 
ATOM      7  C   UNL A   1     -27.407  23.641  32.478  0.00  0.00    +0.014 A 
ATOM      8  C   UNL A   1     -25.852  24.271  34.208  0.00  0.00    +0.014 A 
BRANCH   4  12
ATOM      9  F   UNL A   1     -25.273  23.838  30.651  0.00  0.00    -0.166 F 
ATOM     10  F   UNL A   1     -23.844  24.333  32.214  0.00  0.00    -0.166 F 
ATOM     11  F   UNL A   1     -25.210  25.852  31.470  0.00  0.00    -0.166 F 
ATOM     12  C   UNL A   1     -25.130  24.535  31.812  0.00  0.00    +0.417 C 
ENDBRANCH   4  12
ENDBRANCH   1   3
BRANCH   1  13
ATOM     13  C   UNL A   1     -29.551  23.591  36.804  0.00  0.00    +0.203 C 
ATOM     14  C   UNL A   1     -30.630  24.398  36.660  0.00  0.00    +0.150 C 
BRANCH  14  16
ATOM     15  O   UNL A   1     -31.924  24.458  38.653  0.00  0.00    -0.291 OA
ATOM     16  C   UNL A   1     -31.219  25.082  37.855  0.00  0.00    +0.175 C 
ATOM     17  C   UNL A   1     -30.920  26.541  38.080  0.00  0.00    +0.092 C 
ENDBRANCH  14  16
BRANCH  13  18
ATOM     18  O   UNL A   1     -28.986  23.369  38.053  0.00  0.00    -0.494 OA
ATOM     19  H   UNL A   1     -28.479  24.156  38.344  0.00  0.00    +0.293 HD
ENDBRANCH  13  18
BRANCH  14  21
ATOM     20  N   UNL A   1     -31.680  24.824  34.342  0.00  0.00    -0.191 NA
ATOM     21  C   UNL A   1     -31.210  24.632  35.387  0.00  0.00    +0.108 C 
ENDBRANCH  14  21
ENDBRANCH   1  13
TORSDOF 6
