REMARK VINA RESULT:      -7.0      1.641      2.417
REMARK  Name = D07QFP
REMARK  7 active torsions:
REMARK  status: ('A' for Active; 'I' for Inactive)
REMARK    1  A    between atoms: O_4  and  C_15
REMARK    2  A    between atoms: N_6  and  C_8
REMARK    3  A    between atoms: N_6  and  C_15
REMARK    4  A    between atoms: C_9  and  C_14
REMARK    5  A    between atoms: C_16  and  C_17
REMARK    6  A    between atoms: C_16  and  C_19
REMARK    7  A    between atoms: C_17  and  C_18
REMARK                            x       y       z     vdW  Elec       q    Type
REMARK                         _______ _______ _______ _____ _____    ______ ____
ROOT
ATOM      1  N   UNL A   1       4.833  18.669  32.355  0.00  0.00    -0.285 N 
ATOM      2  H   UNL A   1       4.166  18.307  33.027  0.00  0.00    +0.155 HD
ENDROOT
BRANCH   1   3
ATOM      3  C   UNL A   1       5.135  17.786  31.301  0.00  0.00    +0.034 A 
ATOM      4  C   UNL A   1       5.621  15.827  29.317  0.00  0.00    +0.055 A 
ATOM      5  C   UNL A   1       4.111  17.370  30.440  0.00  0.00    +0.024 A 
ATOM      6  C   UNL A   1       6.405  17.222  31.136  0.00  0.00    +0.024 A 
ATOM      7  C   UNL A   1       4.350  16.403  29.455  0.00  0.00    +0.014 A 
ATOM      8  C   UNL A   1       6.651  16.258  30.158  0.00  0.00    +0.014 A 
BRANCH   4  12
ATOM      9  F   UNL A   1       5.914  13.524  28.779  0.00  0.00    -0.166 F 
ATOM     10  F   UNL A   1       7.097  14.952  27.642  0.00  0.00    -0.166 F 
ATOM     11  F   UNL A   1       4.963  14.769  27.270  0.00  0.00    -0.166 F 
ATOM     12  C   UNL A   1       5.896  14.784  28.264  0.00  0.00    +0.417 C 
ENDBRANCH   4  12
ENDBRANCH   1   3
BRANCH   1  13
ATOM     13  C   UNL A   1       5.406  19.906  32.609  0.00  0.00    +0.203 C 
ATOM     14  C   UNL A   1       4.922  21.084  32.146  0.00  0.00    +0.150 C 
BRANCH  14  16
ATOM     15  O   UNL A   1       5.676  22.729  33.688  0.00  0.00    -0.291 OA
ATOM     16  C   UNL A   1       5.603  22.367  32.510  0.00  0.00    +0.175 C 
ATOM     17  C   UNL A   1       6.217  23.202  31.417  0.00  0.00    +0.092 C 
ENDBRANCH  14  16
BRANCH  13  18
ATOM     18  O   UNL A   1       6.519  19.866  33.437  0.00  0.00    -0.494 OA
ATOM     19  H   UNL A   1       7.341  19.815  32.904  0.00  0.00    +0.293 HD
ENDBRANCH  13  18
BRANCH  14  21
ATOM     20  N   UNL A   1       2.857  21.168  30.602  0.00  0.00    -0.191 NA
ATOM     21  C   UNL A   1       3.788  21.133  31.296  0.00  0.00    +0.108 C 
ENDBRANCH  14  21
ENDBRANCH   1  13
TORSDOF 6
