REMARK VINA RESULT:      -7.7     21.142     23.278
REMARK  Name = D03VFL
REMARK  15 active torsions:
REMARK  status: ('A' for Active; 'I' for Inactive)
REMARK    1  A    between atoms: O_2  and  C_15
REMARK    2  A    between atoms: C_3  and  C_5
REMARK    3  A    between atoms: C_3  and  C_7
REMARK    4  A    between atoms: C_5  and  C_9
REMARK    5  A    between atoms: C_9  and  C_11
REMARK    6  A    between atoms: C_14  and  C_17
REMARK    7  A    between atoms: C_14  and  C_19
REMARK    8  A    between atoms: C_17  and  C_18
REMARK    9  A    between atoms: C_18  and  C_20
REMARK   10  A    between atoms: C_21  and  C_22
REMARK   11  A    between atoms: C_21  and  C_24
REMARK   12  A    between atoms: C_22  and  C_23
REMARK   13  A    between atoms: C_23  and  C_25
REMARK   14  A    between atoms: C_26  and  C_27
REMARK   15  A    between atoms: C_26  and  C_28
REMARK                            x       y       z     vdW  Elec       q    Type
REMARK                         _______ _______ _______ _____ _____    ______ ____
ROOT
ATOM      1  C   UNL A   1     -13.590   6.792  45.999  0.00  0.00    +0.031 C 
ENDROOT
BRANCH   1   2
ATOM      2  C   UNL A   1     -13.867   7.545  47.267  0.00  0.00    -0.028 C 
ATOM      3  C   UNL A   1     -15.081   7.834  47.775  0.00  0.00    -0.076 C 
ATOM      4  C   UNL A   1     -16.374   7.520  47.073  0.00  0.00    +0.038 C 
BRANCH   3   5
ATOM      5  C   UNL A   1     -15.205   8.493  49.132  0.00  0.00    +0.034 C 
BRANCH   5   6
ATOM      6  C   UNL A   1     -16.321   9.541  49.148  0.00  0.00    +0.031 C 
BRANCH   6   7
ATOM      7  C   UNL A   1     -15.770  10.928  48.965  0.00  0.00    -0.027 C 
ATOM      8  C   UNL A   1     -15.811  11.665  47.838  0.00  0.00    -0.076 C 
ATOM      9  C   UNL A   1     -16.408  11.174  46.547  0.00  0.00    +0.038 C 
BRANCH   8  10
ATOM     10  C   UNL A   1     -15.243  13.069  47.820  0.00  0.00    +0.034 C 
BRANCH  10  11
ATOM     11  C   UNL A   1     -13.760  13.083  48.203  0.00  0.00    +0.031 C 
BRANCH  11  12
ATOM     12  C   UNL A   1     -12.895  12.534  47.101  0.00  0.00    -0.028 C 
ATOM     13  C   UNL A   1     -12.160  11.405  47.143  0.00  0.00    -0.080 C 
ATOM     14  C   UNL A   1     -12.047  10.527  48.358  0.00  0.00    +0.038 C 
ATOM     15  C   UNL A   1     -11.388  10.937  45.940  0.00  0.00    +0.038 C 
ENDBRANCH  11  12
ENDBRANCH  10  11
ENDBRANCH   8  10
ENDBRANCH   6   7
ENDBRANCH   5   6
ENDBRANCH   3   5
ENDBRANCH   1   2
BRANCH   1  16
ATOM     16  C   UNL A   1     -12.548   7.482  45.106  0.00  0.00    +0.051 C 
BRANCH  16  18
ATOM     17  O   UNL A   1     -13.409   9.130  43.599  0.00  0.00    -0.486 OA
ATOM     18  C   UNL A   1     -13.054   7.733  43.659  0.00  0.00    +0.108 C 
ATOM     19  C   UNL A   1     -11.912   7.439  42.669  0.00  0.00    +0.052 C 
ATOM     20  C   UNL A   1     -12.334   7.759  41.237  0.00  0.00    +0.043 C 
ATOM     21  C   UNL A   1     -14.303   6.874  43.376  0.00  0.00    +0.056 C 
ATOM     22  C   UNL A   1     -13.090   9.054  41.179  0.00  0.00    -0.002 A 
ATOM     23  C   UNL A   1     -13.549   9.670  42.351  0.00  0.00    +0.125 A 
ATOM     24  C   UNL A   1     -13.373   9.654  39.943  0.00  0.00    +0.052 A 
ATOM     25  C   UNL A   1     -14.195  10.904  42.298  0.00  0.00    +0.049 A 
ATOM     26  C   UNL A   1     -14.052  10.864  39.910  0.00  0.00    +0.117 A 
ATOM     27  C   UNL A   1     -14.445  11.512  41.072  0.00  0.00    +0.049 A 
BRANCH  26  28
ATOM     28  O   UNL A   1     -14.370  11.442  38.714  0.00  0.00    -0.507 OA
ATOM     29  H   UNL A   1     -15.307  11.232  38.557  0.00  0.00    +0.292 HD
ENDBRANCH  26  28
ENDBRANCH  16  18
ENDBRANCH   1  16
TORSDOF 10
