REMARK VINA RESULT:      -7.7     33.752     36.026
REMARK  Name = D03VFL
REMARK  15 active torsions:
REMARK  status: ('A' for Active; 'I' for Inactive)
REMARK    1  A    between atoms: O_2  and  C_15
REMARK    2  A    between atoms: C_3  and  C_5
REMARK    3  A    between atoms: C_3  and  C_7
REMARK    4  A    between atoms: C_5  and  C_9
REMARK    5  A    between atoms: C_9  and  C_11
REMARK    6  A    between atoms: C_14  and  C_17
REMARK    7  A    between atoms: C_14  and  C_19
REMARK    8  A    between atoms: C_17  and  C_18
REMARK    9  A    between atoms: C_18  and  C_20
REMARK   10  A    between atoms: C_21  and  C_22
REMARK   11  A    between atoms: C_21  and  C_24
REMARK   12  A    between atoms: C_22  and  C_23
REMARK   13  A    between atoms: C_23  and  C_25
REMARK   14  A    between atoms: C_26  and  C_27
REMARK   15  A    between atoms: C_26  and  C_28
REMARK                            x       y       z     vdW  Elec       q    Type
REMARK                         _______ _______ _______ _____ _____    ______ ____
ROOT
ATOM      1  C   UNL A   1      -2.655   5.776  49.593  0.00  0.00    +0.031 C 
ENDROOT
BRANCH   1   2
ATOM      2  C   UNL A   1      -2.725   6.845  50.645  0.00  0.00    -0.028 C 
ATOM      3  C   UNL A   1      -2.703   8.176  50.434  0.00  0.00    -0.076 C 
ATOM      4  C   UNL A   1      -2.501   8.802  49.081  0.00  0.00    +0.038 C 
BRANCH   3   5
ATOM      5  C   UNL A   1      -2.909   9.136  51.586  0.00  0.00    +0.034 C 
BRANCH   5   6
ATOM      6  C   UNL A   1      -1.773  10.158  51.676  0.00  0.00    +0.031 C 
BRANCH   6   7
ATOM      7  C   UNL A   1      -0.463   9.491  51.990  0.00  0.00    -0.027 C 
ATOM      8  C   UNL A   1       0.542  10.003  52.728  0.00  0.00    -0.076 C 
ATOM      9  C   UNL A   1       0.506  11.378  53.337  0.00  0.00    +0.038 C 
BRANCH   8  10
ATOM     10  C   UNL A   1       1.793   9.189  52.989  0.00  0.00    +0.034 C 
BRANCH  10  11
ATOM     11  C   UNL A   1       1.935   8.037  51.989  0.00  0.00    +0.031 C 
BRANCH  11  12
ATOM     12  C   UNL A   1       3.235   8.112  51.236  0.00  0.00    -0.028 C 
ATOM     13  C   UNL A   1       4.423   7.615  51.631  0.00  0.00    -0.080 C 
ATOM     14  C   UNL A   1       4.646   6.936  52.954  0.00  0.00    +0.038 C 
ATOM     15  C   UNL A   1       5.635   7.705  50.745  0.00  0.00    +0.038 C 
ENDBRANCH  11  12
ENDBRANCH  10  11
ENDBRANCH   8  10
ENDBRANCH   6   7
ENDBRANCH   5   6
ENDBRANCH   3   5
ENDBRANCH   1   2
BRANCH   1  16
ATOM     16  C   UNL A   1      -4.029   5.419  49.008  0.00  0.00    +0.051 C 
BRANCH  16  18
ATOM     17  O   UNL A   1      -2.698   4.681  47.160  0.00  0.00    -0.486 OA
ATOM     18  C   UNL A   1      -4.002   5.215  47.467  0.00  0.00    +0.108 C 
ATOM     19  C   UNL A   1      -5.091   4.200  47.075  0.00  0.00    +0.052 C 
ATOM     20  C   UNL A   1      -5.044   3.898  45.580  0.00  0.00    +0.043 C 
ATOM     21  C   UNL A   1      -4.184   6.568  46.749  0.00  0.00    +0.056 C 
ATOM     22  C   UNL A   1      -3.628   3.728  45.113  0.00  0.00    -0.002 A 
ATOM     23  C   UNL A   1      -2.553   4.096  45.933  0.00  0.00    +0.125 A 
ATOM     24  C   UNL A   1      -3.360   3.223  43.832  0.00  0.00    +0.052 A 
ATOM     25  C   UNL A   1      -1.238   3.879  45.522  0.00  0.00    +0.049 A 
ATOM     26  C   UNL A   1      -2.044   3.051  43.426  0.00  0.00    +0.117 A 
ATOM     27  C   UNL A   1      -0.979   3.347  44.262  0.00  0.00    +0.049 A 
BRANCH  26  28
ATOM     28  O   UNL A   1      -1.766   2.597  42.169  0.00  0.00    -0.507 OA
ATOM     29  H   UNL A   1      -1.499   1.666  42.274  0.00  0.00    +0.292 HD
ENDBRANCH  26  28
ENDBRANCH  16  18
ENDBRANCH   1  16
TORSDOF 10
