REMARK VINA RESULT:      -8.3      1.383      2.733
REMARK  Name = D03VFL
REMARK  15 active torsions:
REMARK  status: ('A' for Active; 'I' for Inactive)
REMARK    1  A    between atoms: O_2  and  C_15
REMARK    2  A    between atoms: C_3  and  C_5
REMARK    3  A    between atoms: C_3  and  C_7
REMARK    4  A    between atoms: C_5  and  C_9
REMARK    5  A    between atoms: C_9  and  C_11
REMARK    6  A    between atoms: C_14  and  C_17
REMARK    7  A    between atoms: C_14  and  C_19
REMARK    8  A    between atoms: C_17  and  C_18
REMARK    9  A    between atoms: C_18  and  C_20
REMARK   10  A    between atoms: C_21  and  C_22
REMARK   11  A    between atoms: C_21  and  C_24
REMARK   12  A    between atoms: C_22  and  C_23
REMARK   13  A    between atoms: C_23  and  C_25
REMARK   14  A    between atoms: C_26  and  C_27
REMARK   15  A    between atoms: C_26  and  C_28
REMARK                            x       y       z     vdW  Elec       q    Type
REMARK                         _______ _______ _______ _____ _____    ______ ____
ROOT
ATOM      1  C   UNL A   1     -33.882  21.869  35.653  0.00  0.00    +0.031 C 
ENDROOT
BRANCH   1   2
ATOM      2  C   UNL A   1     -32.728  22.445  36.422  0.00  0.00    -0.028 C 
ATOM      3  C   UNL A   1     -31.997  21.810  37.359  0.00  0.00    -0.076 C 
ATOM      4  C   UNL A   1     -32.301  20.423  37.855  0.00  0.00    +0.038 C 
BRANCH   3   5
ATOM      5  C   UNL A   1     -30.780  22.479  37.961  0.00  0.00    +0.034 C 
BRANCH   5   6
ATOM      6  C   UNL A   1     -29.481  21.891  37.403  0.00  0.00    +0.031 C 
BRANCH   6   7
ATOM      7  C   UNL A   1     -29.201  22.404  36.018  0.00  0.00    -0.027 C 
ATOM      8  C   UNL A   1     -28.655  23.594  35.698  0.00  0.00    -0.076 C 
ATOM      9  C   UNL A   1     -28.264  24.628  36.718  0.00  0.00    +0.038 C 
BRANCH   8  10
ATOM     10  C   UNL A   1     -28.399  23.954  34.249  0.00  0.00    +0.034 C 
BRANCH  10  11
ATOM     11  C   UNL A   1     -26.971  23.601  33.823  0.00  0.00    +0.031 C 
BRANCH  11  12
ATOM     12  C   UNL A   1     -26.807  23.651  32.329  0.00  0.00    -0.028 C 
ATOM     13  C   UNL A   1     -25.722  24.077  31.653  0.00  0.00    -0.080 C 
ATOM     14  C   UNL A   1     -24.492  24.635  32.314  0.00  0.00    +0.038 C 
ATOM     15  C   UNL A   1     -25.669  24.014  30.151  0.00  0.00    +0.038 C 
ENDBRANCH  11  12
ENDBRANCH  10  11
ENDBRANCH   8  10
ENDBRANCH   6   7
ENDBRANCH   5   6
ENDBRANCH   3   5
ENDBRANCH   1   2
BRANCH   1  16
ATOM     16  C   UNL A   1     -33.658  21.882  34.134  0.00  0.00    +0.051 C 
BRANCH  16  18
ATOM     17  O   UNL A   1     -33.618  20.437  32.226  0.00  0.00    -0.486 OA
ATOM     18  C   UNL A   1     -33.137  20.526  33.583  0.00  0.00    +0.108 C 
ATOM     19  C   UNL A   1     -31.597  20.536  33.594  0.00  0.00    +0.052 C 
ATOM     20  C   UNL A   1     -31.038  19.258  32.976  0.00  0.00    +0.043 C 
ATOM     21  C   UNL A   1     -33.715  19.358  34.409  0.00  0.00    +0.056 C 
ATOM     22  C   UNL A   1     -31.797  18.887  31.735  0.00  0.00    -0.002 A 
ATOM     23  C   UNL A   1     -33.010  19.513  31.423  0.00  0.00    +0.125 A 
ATOM     24  C   UNL A   1     -31.313  17.883  30.883  0.00  0.00    +0.052 A 
ATOM     25  C   UNL A   1     -33.681  19.211  30.238  0.00  0.00    +0.049 A 
ATOM     26  C   UNL A   1     -32.017  17.569  29.728  0.00  0.00    +0.117 A 
ATOM     27  C   UNL A   1     -33.181  18.238  29.380  0.00  0.00    +0.049 A 
BRANCH  26  28
ATOM     28  O   UNL A   1     -31.581  16.569  28.908  0.00  0.00    -0.507 OA
ATOM     29  H   UNL A   1     -31.513  16.962  28.020  0.00  0.00    +0.292 HD
ENDBRANCH  26  28
ENDBRANCH  16  18
ENDBRANCH   1  16
TORSDOF 10
