MODEL 1
REMARK VINA RESULT:      -8.5      0.000      0.000
REMARK  Name = D03VFL
REMARK  15 active torsions:
REMARK  status: ('A' for Active; 'I' for Inactive)
REMARK    1  A    between atoms: O_2  and  C_15
REMARK    2  A    between atoms: C_3  and  C_5
REMARK    3  A    between atoms: C_3  and  C_7
REMARK    4  A    between atoms: C_5  and  C_9
REMARK    5  A    between atoms: C_9  and  C_11
REMARK    6  A    between atoms: C_14  and  C_17
REMARK    7  A    between atoms: C_14  and  C_19
REMARK    8  A    between atoms: C_17  and  C_18
REMARK    9  A    between atoms: C_18  and  C_20
REMARK   10  A    between atoms: C_21  and  C_22
REMARK   11  A    between atoms: C_21  and  C_24
REMARK   12  A    between atoms: C_22  and  C_23
REMARK   13  A    between atoms: C_23  and  C_25
REMARK   14  A    between atoms: C_26  and  C_27
REMARK   15  A    between atoms: C_26  and  C_28
REMARK                            x       y       z     vdW  Elec       q    Type
REMARK                         _______ _______ _______ _____ _____    ______ ____
ROOT
ATOM      1  C   UNL A   1     -32.465  21.251  33.612  0.00  0.00    +0.031 C 
ENDROOT
BRANCH   1   2
ATOM      2  C   UNL A   1     -32.046  20.885  35.006  0.00  0.00    -0.028 C 
ATOM      3  C   UNL A   1     -32.127  21.672  36.097  0.00  0.00    -0.076 C 
ATOM      4  C   UNL A   1     -32.572  23.109  36.056  0.00  0.00    +0.038 C 
BRANCH   3   5
ATOM      5  C   UNL A   1     -31.782  21.122  37.464  0.00  0.00    +0.034 C 
BRANCH   5   6
ATOM      6  C   UNL A   1     -30.725  21.979  38.165  0.00  0.00    +0.031 C 
BRANCH   6   7
ATOM      7  C   UNL A   1     -29.416  21.942  37.426  0.00  0.00    -0.027 C 
ATOM      8  C   UNL A   1     -28.736  23.000  36.942  0.00  0.00    -0.076 C 
ATOM      9  C   UNL A   1     -29.227  24.419  37.047  0.00  0.00    +0.038 C 
BRANCH   8  10
ATOM     10  C   UNL A   1     -27.403  22.803  36.250  0.00  0.00    +0.034 C 
BRANCH  10  11
ATOM     11  C   UNL A   1     -26.915  24.095  35.588  0.00  0.00    +0.031 C 
BRANCH  11  12
ATOM     12  C   UNL A   1     -26.494  23.865  34.162  0.00  0.00    -0.028 C 
ATOM     13  C   UNL A   1     -27.306  23.647  33.109  0.00  0.00    -0.080 C 
ATOM     14  C   UNL A   1     -28.802  23.543  33.216  0.00  0.00    +0.038 C 
ATOM     15  C   UNL A   1     -26.749  23.494  31.720  0.00  0.00    +0.038 C 
ENDBRANCH  11  12
ENDBRANCH  10  11
ENDBRANCH   8  10
ENDBRANCH   6   7
ENDBRANCH   5   6
ENDBRANCH   3   5
ENDBRANCH   1   2
BRANCH   1  16
ATOM     16  C   UNL A   1     -33.407  20.217  32.978  0.00  0.00    +0.051 C 
BRANCH  16  18
ATOM     17  O   UNL A   1     -31.612  18.884  32.123  0.00  0.00    -0.486 OA
ATOM     18  C   UNL A   1     -32.816  19.555  31.702  0.00  0.00    +0.108 C 
ATOM     19  C   UNL A   1     -33.825  18.528  31.155  0.00  0.00    +0.052 C 
ATOM     20  C   UNL A   1     -33.251  17.785  29.951  0.00  0.00    +0.043 C 
ATOM     21  C   UNL A   1     -32.464  20.634  30.657  0.00  0.00    +0.056 C 
ATOM     22  C   UNL A   1     -31.819  17.406  30.190  0.00  0.00    -0.002 A 
ATOM     23  C   UNL A   1     -31.104  17.948  31.267  0.00  0.00    +0.125 A 
ATOM     24  C   UNL A   1     -31.165  16.523  29.318  0.00  0.00    +0.052 A 
ATOM     25  C   UNL A   1     -29.793  17.546  31.523  0.00  0.00    +0.049 A 
ATOM     26  C   UNL A   1     -29.847  16.166  29.568  0.00  0.00    +0.117 A 
ATOM     27  C   UNL A   1     -29.160  16.644  30.673  0.00  0.00    +0.049 A 
BRANCH  26  28
ATOM     28  O   UNL A   1     -29.184  15.338  28.708  0.00  0.00    -0.507 OA
ATOM     29  H   UNL A   1     -28.456  14.947  29.222  0.00  0.00    +0.292 HD
ENDBRANCH  26  28
ENDBRANCH  16  18
ENDBRANCH   1  16
TORSDOF 10
ENDMDL
MODEL 2
REMARK VINA RESULT:      -8.3      1.383      2.733
REMARK  Name = D03VFL
REMARK  15 active torsions:
REMARK  status: ('A' for Active; 'I' for Inactive)
REMARK    1  A    between atoms: O_2  and  C_15
REMARK    2  A    between atoms: C_3  and  C_5
REMARK    3  A    between atoms: C_3  and  C_7
REMARK    4  A    between atoms: C_5  and  C_9
REMARK    5  A    between atoms: C_9  and  C_11
REMARK    6  A    between atoms: C_14  and  C_17
REMARK    7  A    between atoms: C_14  and  C_19
REMARK    8  A    between atoms: C_17  and  C_18
REMARK    9  A    between atoms: C_18  and  C_20
REMARK   10  A    between atoms: C_21  and  C_22
REMARK   11  A    between atoms: C_21  and  C_24
REMARK   12  A    between atoms: C_22  and  C_23
REMARK   13  A    between atoms: C_23  and  C_25
REMARK   14  A    between atoms: C_26  and  C_27
REMARK   15  A    between atoms: C_26  and  C_28
REMARK                            x       y       z     vdW  Elec       q    Type
REMARK                         _______ _______ _______ _____ _____    ______ ____
ROOT
ATOM      1  C   UNL A   1     -33.882  21.869  35.653  0.00  0.00    +0.031 C 
ENDROOT
BRANCH   1   2
ATOM      2  C   UNL A   1     -32.728  22.445  36.422  0.00  0.00    -0.028 C 
ATOM      3  C   UNL A   1     -31.997  21.810  37.359  0.00  0.00    -0.076 C 
ATOM      4  C   UNL A   1     -32.301  20.423  37.855  0.00  0.00    +0.038 C 
BRANCH   3   5
ATOM      5  C   UNL A   1     -30.780  22.479  37.961  0.00  0.00    +0.034 C 
BRANCH   5   6
ATOM      6  C   UNL A   1     -29.481  21.891  37.403  0.00  0.00    +0.031 C 
BRANCH   6   7
ATOM      7  C   UNL A   1     -29.201  22.404  36.018  0.00  0.00    -0.027 C 
ATOM      8  C   UNL A   1     -28.655  23.594  35.698  0.00  0.00    -0.076 C 
ATOM      9  C   UNL A   1     -28.264  24.628  36.718  0.00  0.00    +0.038 C 
BRANCH   8  10
ATOM     10  C   UNL A   1     -28.399  23.954  34.249  0.00  0.00    +0.034 C 
BRANCH  10  11
ATOM     11  C   UNL A   1     -26.971  23.601  33.823  0.00  0.00    +0.031 C 
BRANCH  11  12
ATOM     12  C   UNL A   1     -26.807  23.651  32.329  0.00  0.00    -0.028 C 
ATOM     13  C   UNL A   1     -25.722  24.077  31.653  0.00  0.00    -0.080 C 
ATOM     14  C   UNL A   1     -24.492  24.635  32.314  0.00  0.00    +0.038 C 
ATOM     15  C   UNL A   1     -25.669  24.014  30.151  0.00  0.00    +0.038 C 
ENDBRANCH  11  12
ENDBRANCH  10  11
ENDBRANCH   8  10
ENDBRANCH   6   7
ENDBRANCH   5   6
ENDBRANCH   3   5
ENDBRANCH   1   2
BRANCH   1  16
ATOM     16  C   UNL A   1     -33.658  21.882  34.134  0.00  0.00    +0.051 C 
BRANCH  16  18
ATOM     17  O   UNL A   1     -33.618  20.437  32.226  0.00  0.00    -0.486 OA
ATOM     18  C   UNL A   1     -33.137  20.526  33.583  0.00  0.00    +0.108 C 
ATOM     19  C   UNL A   1     -31.597  20.536  33.594  0.00  0.00    +0.052 C 
ATOM     20  C   UNL A   1     -31.038  19.258  32.976  0.00  0.00    +0.043 C 
ATOM     21  C   UNL A   1     -33.715  19.358  34.409  0.00  0.00    +0.056 C 
ATOM     22  C   UNL A   1     -31.797  18.887  31.735  0.00  0.00    -0.002 A 
ATOM     23  C   UNL A   1     -33.010  19.513  31.423  0.00  0.00    +0.125 A 
ATOM     24  C   UNL A   1     -31.313  17.883  30.883  0.00  0.00    +0.052 A 
ATOM     25  C   UNL A   1     -33.681  19.211  30.238  0.00  0.00    +0.049 A 
ATOM     26  C   UNL A   1     -32.017  17.569  29.728  0.00  0.00    +0.117 A 
ATOM     27  C   UNL A   1     -33.181  18.238  29.380  0.00  0.00    +0.049 A 
BRANCH  26  28
ATOM     28  O   UNL A   1     -31.581  16.569  28.908  0.00  0.00    -0.507 OA
ATOM     29  H   UNL A   1     -31.513  16.962  28.020  0.00  0.00    +0.292 HD
ENDBRANCH  26  28
ENDBRANCH  16  18
ENDBRANCH   1  16
TORSDOF 10
ENDMDL
MODEL 3
REMARK VINA RESULT:      -7.7     33.752     36.026
REMARK  Name = D03VFL
REMARK  15 active torsions:
REMARK  status: ('A' for Active; 'I' for Inactive)
REMARK    1  A    between atoms: O_2  and  C_15
REMARK    2  A    between atoms: C_3  and  C_5
REMARK    3  A    between atoms: C_3  and  C_7
REMARK    4  A    between atoms: C_5  and  C_9
REMARK    5  A    between atoms: C_9  and  C_11
REMARK    6  A    between atoms: C_14  and  C_17
REMARK    7  A    between atoms: C_14  and  C_19
REMARK    8  A    between atoms: C_17  and  C_18
REMARK    9  A    between atoms: C_18  and  C_20
REMARK   10  A    between atoms: C_21  and  C_22
REMARK   11  A    between atoms: C_21  and  C_24
REMARK   12  A    between atoms: C_22  and  C_23
REMARK   13  A    between atoms: C_23  and  C_25
REMARK   14  A    between atoms: C_26  and  C_27
REMARK   15  A    between atoms: C_26  and  C_28
REMARK                            x       y       z     vdW  Elec       q    Type
REMARK                         _______ _______ _______ _____ _____    ______ ____
ROOT
ATOM      1  C   UNL A   1      -2.655   5.776  49.593  0.00  0.00    +0.031 C 
ENDROOT
BRANCH   1   2
ATOM      2  C   UNL A   1      -2.725   6.845  50.645  0.00  0.00    -0.028 C 
ATOM      3  C   UNL A   1      -2.703   8.176  50.434  0.00  0.00    -0.076 C 
ATOM      4  C   UNL A   1      -2.501   8.802  49.081  0.00  0.00    +0.038 C 
BRANCH   3   5
ATOM      5  C   UNL A   1      -2.909   9.136  51.586  0.00  0.00    +0.034 C 
BRANCH   5   6
ATOM      6  C   UNL A   1      -1.773  10.158  51.676  0.00  0.00    +0.031 C 
BRANCH   6   7
ATOM      7  C   UNL A   1      -0.463   9.491  51.990  0.00  0.00    -0.027 C 
ATOM      8  C   UNL A   1       0.542  10.003  52.728  0.00  0.00    -0.076 C 
ATOM      9  C   UNL A   1       0.506  11.378  53.337  0.00  0.00    +0.038 C 
BRANCH   8  10
ATOM     10  C   UNL A   1       1.793   9.189  52.989  0.00  0.00    +0.034 C 
BRANCH  10  11
ATOM     11  C   UNL A   1       1.935   8.037  51.989  0.00  0.00    +0.031 C 
BRANCH  11  12
ATOM     12  C   UNL A   1       3.235   8.112  51.236  0.00  0.00    -0.028 C 
ATOM     13  C   UNL A   1       4.423   7.615  51.631  0.00  0.00    -0.080 C 
ATOM     14  C   UNL A   1       4.646   6.936  52.954  0.00  0.00    +0.038 C 
ATOM     15  C   UNL A   1       5.635   7.705  50.745  0.00  0.00    +0.038 C 
ENDBRANCH  11  12
ENDBRANCH  10  11
ENDBRANCH   8  10
ENDBRANCH   6   7
ENDBRANCH   5   6
ENDBRANCH   3   5
ENDBRANCH   1   2
BRANCH   1  16
ATOM     16  C   UNL A   1      -4.029   5.419  49.008  0.00  0.00    +0.051 C 
BRANCH  16  18
ATOM     17  O   UNL A   1      -2.698   4.681  47.160  0.00  0.00    -0.486 OA
ATOM     18  C   UNL A   1      -4.002   5.215  47.467  0.00  0.00    +0.108 C 
ATOM     19  C   UNL A   1      -5.091   4.200  47.075  0.00  0.00    +0.052 C 
ATOM     20  C   UNL A   1      -5.044   3.898  45.580  0.00  0.00    +0.043 C 
ATOM     21  C   UNL A   1      -4.184   6.568  46.749  0.00  0.00    +0.056 C 
ATOM     22  C   UNL A   1      -3.628   3.728  45.113  0.00  0.00    -0.002 A 
ATOM     23  C   UNL A   1      -2.553   4.096  45.933  0.00  0.00    +0.125 A 
ATOM     24  C   UNL A   1      -3.360   3.223  43.832  0.00  0.00    +0.052 A 
ATOM     25  C   UNL A   1      -1.238   3.879  45.522  0.00  0.00    +0.049 A 
ATOM     26  C   UNL A   1      -2.044   3.051  43.426  0.00  0.00    +0.117 A 
ATOM     27  C   UNL A   1      -0.979   3.347  44.262  0.00  0.00    +0.049 A 
BRANCH  26  28
ATOM     28  O   UNL A   1      -1.766   2.597  42.169  0.00  0.00    -0.507 OA
ATOM     29  H   UNL A   1      -1.499   1.666  42.274  0.00  0.00    +0.292 HD
ENDBRANCH  26  28
ENDBRANCH  16  18
ENDBRANCH   1  16
TORSDOF 10
ENDMDL
MODEL 4
REMARK VINA RESULT:      -7.7      2.682      6.939
REMARK  Name = D03VFL
REMARK  15 active torsions:
REMARK  status: ('A' for Active; 'I' for Inactive)
REMARK    1  A    between atoms: O_2  and  C_15
REMARK    2  A    between atoms: C_3  and  C_5
REMARK    3  A    between atoms: C_3  and  C_7
REMARK    4  A    between atoms: C_5  and  C_9
REMARK    5  A    between atoms: C_9  and  C_11
REMARK    6  A    between atoms: C_14  and  C_17
REMARK    7  A    between atoms: C_14  and  C_19
REMARK    8  A    between atoms: C_17  and  C_18
REMARK    9  A    between atoms: C_18  and  C_20
REMARK   10  A    between atoms: C_21  and  C_22
REMARK   11  A    between atoms: C_21  and  C_24
REMARK   12  A    between atoms: C_22  and  C_23
REMARK   13  A    between atoms: C_23  and  C_25
REMARK   14  A    between atoms: C_26  and  C_27
REMARK   15  A    between atoms: C_26  and  C_28
REMARK                            x       y       z     vdW  Elec       q    Type
REMARK                         _______ _______ _______ _____ _____    ______ ____
ROOT
ATOM      1  C   UNL A   1     -29.952  21.764  38.117  0.00  0.00    +0.031 C 
ENDROOT
BRANCH   1   2
ATOM      2  C   UNL A   1     -31.216  21.006  37.829  0.00  0.00    -0.028 C 
ATOM      3  C   UNL A   1     -32.474  21.464  37.978  0.00  0.00    -0.076 C 
ATOM      4  C   UNL A   1     -32.807  22.808  38.565  0.00  0.00    +0.038 C 
BRANCH   3   5
ATOM      5  C   UNL A   1     -33.651  20.627  37.526  0.00  0.00    +0.034 C 
BRANCH   5   6
ATOM      6  C   UNL A   1     -33.896  20.767  36.022  0.00  0.00    +0.031 C 
BRANCH   6   7
ATOM      7  C   UNL A   1     -33.280  19.628  35.260  0.00  0.00    -0.027 C 
ATOM      8  C   UNL A   1     -32.774  19.677  34.012  0.00  0.00    -0.076 C 
ATOM      9  C   UNL A   1     -32.785  20.918  33.161  0.00  0.00    +0.038 C 
BRANCH   8  10
ATOM     10  C   UNL A   1     -32.148  18.445  33.389  0.00  0.00    +0.034 C 
BRANCH  10  11
ATOM     11  C   UNL A   1     -31.425  18.779  32.081  0.00  0.00    +0.031 C 
BRANCH  11  12
ATOM     12  C   UNL A   1     -30.330  17.792  31.783  0.00  0.00    -0.028 C 
ATOM     13  C   UNL A   1     -30.245  16.988  30.704  0.00  0.00    -0.080 C 
ATOM     14  C   UNL A   1     -31.295  16.916  29.631  0.00  0.00    +0.038 C 
ATOM     15  C   UNL A   1     -29.056  16.090  30.500  0.00  0.00    +0.038 C 
ENDBRANCH  11  12
ENDBRANCH  10  11
ENDBRANCH   8  10
ENDBRANCH   6   7
ENDBRANCH   5   6
ENDBRANCH   3   5
ENDBRANCH   1   2
BRANCH   1  16
ATOM     16  C   UNL A   1     -30.091  23.275  37.878  0.00  0.00    +0.051 C 
BRANCH  16  18
ATOM     17  O   UNL A   1     -28.307  23.803  36.373  0.00  0.00    -0.486 OA
ATOM     18  C   UNL A   1     -29.744  23.697  36.424  0.00  0.00    +0.108 C 
ATOM     19  C   UNL A   1     -30.225  22.602  35.454  0.00  0.00    +0.052 C 
ATOM     20  C   UNL A   1     -29.825  22.930  34.018  0.00  0.00    +0.043 C 
ATOM     21  C   UNL A   1     -30.371  25.070  36.104  0.00  0.00    +0.056 C 
ATOM     22  C   UNL A   1     -28.417  23.447  33.959  0.00  0.00    -0.002 A 
ATOM     23  C   UNL A   1     -27.741  23.818  35.129  0.00  0.00    +0.125 A 
ATOM     24  C   UNL A   1     -27.768  23.593  32.725  0.00  0.00    +0.052 A 
ATOM     25  C   UNL A   1     -26.412  24.239  35.077  0.00  0.00    +0.049 A 
ATOM     26  C   UNL A   1     -26.457  24.051  32.692  0.00  0.00    +0.117 A 
ATOM     27  C   UNL A   1     -25.761  24.352  33.853  0.00  0.00    +0.049 A 
BRANCH  26  28
ATOM     28  O   UNL A   1     -25.824  24.236  31.497  0.00  0.00    -0.507 OA
ATOM     29  H   UNL A   1     -24.911  24.493  31.716  0.00  0.00    +0.292 HD
ENDBRANCH  26  28
ENDBRANCH  16  18
ENDBRANCH   1  16
TORSDOF 10
ENDMDL
MODEL 5
REMARK VINA RESULT:      -7.7     21.142     23.278
REMARK  Name = D03VFL
REMARK  15 active torsions:
REMARK  status: ('A' for Active; 'I' for Inactive)
REMARK    1  A    between atoms: O_2  and  C_15
REMARK    2  A    between atoms: C_3  and  C_5
REMARK    3  A    between atoms: C_3  and  C_7
REMARK    4  A    between atoms: C_5  and  C_9
REMARK    5  A    between atoms: C_9  and  C_11
REMARK    6  A    between atoms: C_14  and  C_17
REMARK    7  A    between atoms: C_14  and  C_19
REMARK    8  A    between atoms: C_17  and  C_18
REMARK    9  A    between atoms: C_18  and  C_20
REMARK   10  A    between atoms: C_21  and  C_22
REMARK   11  A    between atoms: C_21  and  C_24
REMARK   12  A    between atoms: C_22  and  C_23
REMARK   13  A    between atoms: C_23  and  C_25
REMARK   14  A    between atoms: C_26  and  C_27
REMARK   15  A    between atoms: C_26  and  C_28
REMARK                            x       y       z     vdW  Elec       q    Type
REMARK                         _______ _______ _______ _____ _____    ______ ____
ROOT
ATOM      1  C   UNL A   1     -13.590   6.792  45.999  0.00  0.00    +0.031 C 
ENDROOT
BRANCH   1   2
ATOM      2  C   UNL A   1     -13.867   7.545  47.267  0.00  0.00    -0.028 C 
ATOM      3  C   UNL A   1     -15.081   7.834  47.775  0.00  0.00    -0.076 C 
ATOM      4  C   UNL A   1     -16.374   7.520  47.073  0.00  0.00    +0.038 C 
BRANCH   3   5
ATOM      5  C   UNL A   1     -15.205   8.493  49.132  0.00  0.00    +0.034 C 
BRANCH   5   6
ATOM      6  C   UNL A   1     -16.321   9.541  49.148  0.00  0.00    +0.031 C 
BRANCH   6   7
ATOM      7  C   UNL A   1     -15.770  10.928  48.965  0.00  0.00    -0.027 C 
ATOM      8  C   UNL A   1     -15.811  11.665  47.838  0.00  0.00    -0.076 C 
ATOM      9  C   UNL A   1     -16.408  11.174  46.547  0.00  0.00    +0.038 C 
BRANCH   8  10
ATOM     10  C   UNL A   1     -15.243  13.069  47.820  0.00  0.00    +0.034 C 
BRANCH  10  11
ATOM     11  C   UNL A   1     -13.760  13.083  48.203  0.00  0.00    +0.031 C 
BRANCH  11  12
ATOM     12  C   UNL A   1     -12.895  12.534  47.101  0.00  0.00    -0.028 C 
ATOM     13  C   UNL A   1     -12.160  11.405  47.143  0.00  0.00    -0.080 C 
ATOM     14  C   UNL A   1     -12.047  10.527  48.358  0.00  0.00    +0.038 C 
ATOM     15  C   UNL A   1     -11.388  10.937  45.940  0.00  0.00    +0.038 C 
ENDBRANCH  11  12
ENDBRANCH  10  11
ENDBRANCH   8  10
ENDBRANCH   6   7
ENDBRANCH   5   6
ENDBRANCH   3   5
ENDBRANCH   1   2
BRANCH   1  16
ATOM     16  C   UNL A   1     -12.548   7.482  45.106  0.00  0.00    +0.051 C 
BRANCH  16  18
ATOM     17  O   UNL A   1     -13.409   9.130  43.599  0.00  0.00    -0.486 OA
ATOM     18  C   UNL A   1     -13.054   7.733  43.659  0.00  0.00    +0.108 C 
ATOM     19  C   UNL A   1     -11.912   7.439  42.669  0.00  0.00    +0.052 C 
ATOM     20  C   UNL A   1     -12.334   7.759  41.237  0.00  0.00    +0.043 C 
ATOM     21  C   UNL A   1     -14.303   6.874  43.376  0.00  0.00    +0.056 C 
ATOM     22  C   UNL A   1     -13.090   9.054  41.179  0.00  0.00    -0.002 A 
ATOM     23  C   UNL A   1     -13.549   9.670  42.351  0.00  0.00    +0.125 A 
ATOM     24  C   UNL A   1     -13.373   9.654  39.943  0.00  0.00    +0.052 A 
ATOM     25  C   UNL A   1     -14.195  10.904  42.298  0.00  0.00    +0.049 A 
ATOM     26  C   UNL A   1     -14.052  10.864  39.910  0.00  0.00    +0.117 A 
ATOM     27  C   UNL A   1     -14.445  11.512  41.072  0.00  0.00    +0.049 A 
BRANCH  26  28
ATOM     28  O   UNL A   1     -14.370  11.442  38.714  0.00  0.00    -0.507 OA
ATOM     29  H   UNL A   1     -15.307  11.232  38.557  0.00  0.00    +0.292 HD
ENDBRANCH  26  28
ENDBRANCH  16  18
ENDBRANCH   1  16
TORSDOF 10
ENDMDL
MODEL 6
REMARK VINA RESULT:      -7.7     21.298     23.635
REMARK  Name = D03VFL
REMARK  15 active torsions:
REMARK  status: ('A' for Active; 'I' for Inactive)
REMARK    1  A    between atoms: O_2  and  C_15
REMARK    2  A    between atoms: C_3  and  C_5
REMARK    3  A    between atoms: C_3  and  C_7
REMARK    4  A    between atoms: C_5  and  C_9
REMARK    5  A    between atoms: C_9  and  C_11
REMARK    6  A    between atoms: C_14  and  C_17
REMARK    7  A    between atoms: C_14  and  C_19
REMARK    8  A    between atoms: C_17  and  C_18
REMARK    9  A    between atoms: C_18  and  C_20
REMARK   10  A    between atoms: C_21  and  C_22
REMARK   11  A    between atoms: C_21  and  C_24
REMARK   12  A    between atoms: C_22  and  C_23
REMARK   13  A    between atoms: C_23  and  C_25
REMARK   14  A    between atoms: C_26  and  C_27
REMARK   15  A    between atoms: C_26  and  C_28
REMARK                            x       y       z     vdW  Elec       q    Type
REMARK                         _______ _______ _______ _____ _____    ______ ____
ROOT
ATOM      1  C   UNL A   1     -11.546   7.888  45.439  0.00  0.00    +0.031 C 
ENDROOT
BRANCH   1   2
ATOM      2  C   UNL A   1     -11.621   8.993  46.453  0.00  0.00    -0.028 C 
ATOM      3  C   UNL A   1     -11.743   8.847  47.786  0.00  0.00    -0.076 C 
ATOM      4  C   UNL A   1     -11.923   7.517  48.465  0.00  0.00    +0.038 C 
BRANCH   3   5
ATOM      5  C   UNL A   1     -11.679  10.054  48.697  0.00  0.00    +0.034 C 
BRANCH   5   6
ATOM      6  C   UNL A   1     -11.802  11.361  47.909  0.00  0.00    +0.031 C 
BRANCH   6   7
ATOM      7  C   UNL A   1     -13.154  11.990  48.102  0.00  0.00    -0.027 C 
ATOM      8  C   UNL A   1     -14.074  12.226  47.147  0.00  0.00    -0.076 C 
ATOM      9  C   UNL A   1     -13.857  11.910  45.691  0.00  0.00    +0.038 C 
BRANCH   8  10
ATOM     10  C   UNL A   1     -15.413  12.836  47.506  0.00  0.00    +0.034 C 
BRANCH  10  11
ATOM     11  C   UNL A   1     -16.540  11.800  47.445  0.00  0.00    +0.031 C 
BRANCH  11  12
ATOM     12  C   UNL A   1     -16.395  10.756  48.518  0.00  0.00    -0.028 C 
ATOM     13  C   UNL A   1     -15.941   9.497  48.358  0.00  0.00    -0.080 C 
ATOM     14  C   UNL A   1     -15.550   8.912  47.029  0.00  0.00    +0.038 C 
ATOM     15  C   UNL A   1     -15.787   8.574  49.536  0.00  0.00    +0.038 C 
ENDBRANCH  11  12
ENDBRANCH  10  11
ENDBRANCH   8  10
ENDBRANCH   6   7
ENDBRANCH   5   6
ENDBRANCH   3   5
ENDBRANCH   1   2
BRANCH   1  16
ATOM     16  C   UNL A   1     -12.928   7.393  44.988  0.00  0.00    +0.051 C 
BRANCH  16  18
ATOM     17  O   UNL A   1     -13.622   9.112  43.474  0.00  0.00    -0.486 OA
ATOM     18  C   UNL A   1     -13.239   7.722  43.501  0.00  0.00    +0.108 C 
ATOM     19  C   UNL A   1     -11.964   7.513  42.663  0.00  0.00    +0.052 C 
ATOM     20  C   UNL A   1     -12.197   7.912  41.207  0.00  0.00    +0.043 C 
ATOM     21  C   UNL A   1     -14.412   6.856  42.999  0.00  0.00    +0.056 C 
ATOM     22  C   UNL A   1     -12.974   9.192  41.122  0.00  0.00    -0.002 A 
ATOM     23  C   UNL A   1     -13.606   9.725  42.253  0.00  0.00    +0.125 A 
ATOM     24  C   UNL A   1     -13.103   9.861  39.896  0.00  0.00    +0.052 A 
ATOM     25  C   UNL A   1     -14.275  10.947  42.184  0.00  0.00    +0.049 A 
ATOM     26  C   UNL A   1     -13.807  11.057  39.840  0.00  0.00    +0.117 A 
ATOM     27  C   UNL A   1     -14.372  11.623  40.972  0.00  0.00    +0.049 A 
BRANCH  26  28
ATOM     28  O   UNL A   1     -13.975  11.701  38.648  0.00  0.00    -0.507 OA
ATOM     29  H   UNL A   1     -14.703  12.332  38.785  0.00  0.00    +0.292 HD
ENDBRANCH  26  28
ENDBRANCH  16  18
ENDBRANCH   1  16
TORSDOF 10
ENDMDL
MODEL 7
REMARK VINA RESULT:      -7.6     21.164     23.526
REMARK  Name = D03VFL
REMARK  15 active torsions:
REMARK  status: ('A' for Active; 'I' for Inactive)
REMARK    1  A    between atoms: O_2  and  C_15
REMARK    2  A    between atoms: C_3  and  C_5
REMARK    3  A    between atoms: C_3  and  C_7
REMARK    4  A    between atoms: C_5  and  C_9
REMARK    5  A    between atoms: C_9  and  C_11
REMARK    6  A    between atoms: C_14  and  C_17
REMARK    7  A    between atoms: C_14  and  C_19
REMARK    8  A    between atoms: C_17  and  C_18
REMARK    9  A    between atoms: C_18  and  C_20
REMARK   10  A    between atoms: C_21  and  C_22
REMARK   11  A    between atoms: C_21  and  C_24
REMARK   12  A    between atoms: C_22  and  C_23
REMARK   13  A    between atoms: C_23  and  C_25
REMARK   14  A    between atoms: C_26  and  C_27
REMARK   15  A    between atoms: C_26  and  C_28
REMARK                            x       y       z     vdW  Elec       q    Type
REMARK                         _______ _______ _______ _____ _____    ______ ____
ROOT
ATOM      1  C   UNL A   1     -10.969   8.285  45.377  0.00  0.00    +0.031 C 
ENDROOT
BRANCH   1   2
ATOM      2  C   UNL A   1     -11.169   9.742  45.677  0.00  0.00    -0.028 C 
ATOM      3  C   UNL A   1     -11.535  10.271  46.860  0.00  0.00    -0.076 C 
ATOM      4  C   UNL A   1     -11.901   9.446  48.064  0.00  0.00    +0.038 C 
BRANCH   3   5
ATOM      5  C   UNL A   1     -11.575  11.773  47.048  0.00  0.00    +0.034 C 
BRANCH   5   6
ATOM      6  C   UNL A   1     -12.563  12.433  46.083  0.00  0.00    +0.031 C 
BRANCH   6   7
ATOM      7  C   UNL A   1     -13.882  11.712  46.074  0.00  0.00    -0.027 C 
ATOM      8  C   UNL A   1     -14.931  11.948  46.885  0.00  0.00    -0.076 C 
ATOM      9  C   UNL A   1     -14.919  12.984  47.977  0.00  0.00    +0.038 C 
BRANCH   8  10
ATOM     10  C   UNL A   1     -16.215  11.159  46.728  0.00  0.00    +0.034 C 
BRANCH  10  11
ATOM     11  C   UNL A   1     -16.426  10.188  47.894  0.00  0.00    +0.031 C 
BRANCH  11  12
ATOM     12  C   UNL A   1     -15.619   8.930  47.724  0.00  0.00    -0.028 C 
ATOM     13  C   UNL A   1     -16.062   7.750  47.247  0.00  0.00    -0.080 C 
ATOM     14  C   UNL A   1     -17.489   7.490  46.853  0.00  0.00    +0.038 C 
ATOM     15  C   UNL A   1     -15.126   6.585  47.069  0.00  0.00    +0.038 C 
ENDBRANCH  11  12
ENDBRANCH  10  11
ENDBRANCH   8  10
ENDBRANCH   6   7
ENDBRANCH   5   6
ENDBRANCH   3   5
ENDBRANCH   1   2
BRANCH   1  16
ATOM     16  C   UNL A   1     -12.287   7.535  45.136  0.00  0.00    +0.051 C 
BRANCH  16  18
ATOM     17  O   UNL A   1     -13.245   9.142  43.643  0.00  0.00    -0.486 OA
ATOM     18  C   UNL A   1     -12.862   7.754  43.709  0.00  0.00    +0.108 C 
ATOM     19  C   UNL A   1     -11.760   7.463  42.673  0.00  0.00    +0.052 C 
ATOM     20  C   UNL A   1     -12.251   7.752  41.257  0.00  0.00    +0.043 C 
ATOM     21  C   UNL A   1     -14.106   6.868  43.495  0.00  0.00    +0.056 C 
ATOM     22  C   UNL A   1     -13.032   9.033  41.213  0.00  0.00    -0.002 A 
ATOM     23  C   UNL A   1     -13.450   9.660  42.394  0.00  0.00    +0.125 A 
ATOM     24  C   UNL A   1     -13.380   9.607  39.982  0.00  0.00    +0.052 A 
ATOM     25  C   UNL A   1     -14.120  10.881  42.352  0.00  0.00    +0.049 A 
ATOM     26  C   UNL A   1     -14.083  10.805  39.960  0.00  0.00    +0.117 A 
ATOM     27  C   UNL A   1     -14.435  11.464  41.128  0.00  0.00    +0.049 A 
BRANCH  26  28
ATOM     28  O   UNL A   1     -14.463  11.357  38.771  0.00  0.00    -0.507 OA
ATOM     29  H   UNL A   1     -14.419  10.638  38.117  0.00  0.00    +0.292 HD
ENDBRANCH  26  28
ENDBRANCH  16  18
ENDBRANCH   1  16
TORSDOF 10
ENDMDL
MODEL 8
REMARK VINA RESULT:      -7.6     33.114     35.509
REMARK  Name = D03VFL
REMARK  15 active torsions:
REMARK  status: ('A' for Active; 'I' for Inactive)
REMARK    1  A    between atoms: O_2  and  C_15
REMARK    2  A    between atoms: C_3  and  C_5
REMARK    3  A    between atoms: C_3  and  C_7
REMARK    4  A    between atoms: C_5  and  C_9
REMARK    5  A    between atoms: C_9  and  C_11
REMARK    6  A    between atoms: C_14  and  C_17
REMARK    7  A    between atoms: C_14  and  C_19
REMARK    8  A    between atoms: C_17  and  C_18
REMARK    9  A    between atoms: C_18  and  C_20
REMARK   10  A    between atoms: C_21  and  C_22
REMARK   11  A    between atoms: C_21  and  C_24
REMARK   12  A    between atoms: C_22  and  C_23
REMARK   13  A    between atoms: C_23  and  C_25
REMARK   14  A    between atoms: C_26  and  C_27
REMARK   15  A    between atoms: C_26  and  C_28
REMARK                            x       y       z     vdW  Elec       q    Type
REMARK                         _______ _______ _______ _____ _____    ______ ____
ROOT
ATOM      1  C   UNL A   1      -2.318   7.721  49.621  0.00  0.00    +0.031 C 
ENDROOT
BRANCH   1   2
ATOM      2  C   UNL A   1      -2.563   8.864  50.563  0.00  0.00    -0.028 C 
ATOM      3  C   UNL A   1      -2.781   8.774  51.889  0.00  0.00    -0.076 C 
ATOM      4  C   UNL A   1      -2.910   7.468  52.625  0.00  0.00    +0.038 C 
BRANCH   3   5
ATOM      5  C   UNL A   1      -2.887  10.026  52.734  0.00  0.00    +0.034 C 
BRANCH   5   6
ATOM      6  C   UNL A   1      -1.605  10.859  52.668  0.00  0.00    +0.031 C 
BRANCH   6   7
ATOM      7  C   UNL A   1      -0.396  10.027  52.991  0.00  0.00    -0.027 C 
ATOM      8  C   UNL A   1       0.689   9.850  52.211  0.00  0.00    -0.076 C 
ATOM      9  C   UNL A   1       0.834  10.458  50.843  0.00  0.00    +0.038 C 
BRANCH   8  10
ATOM     10  C   UNL A   1       1.851   9.006  52.694  0.00  0.00    +0.034 C 
BRANCH  10  11
ATOM     11  C   UNL A   1       2.154   7.857  51.728  0.00  0.00    +0.031 C 
BRANCH  11  12
ATOM     12  C   UNL A   1       3.495   8.024  51.068  0.00  0.00    -0.028 C 
ATOM     13  C   UNL A   1       4.682   7.589  51.538  0.00  0.00    -0.080 C 
ATOM     14  C   UNL A   1       4.853   6.899  52.862  0.00  0.00    +0.038 C 
ATOM     15  C   UNL A   1       5.944   7.769  50.740  0.00  0.00    +0.038 C 
ENDBRANCH  11  12
ENDBRANCH  10  11
ENDBRANCH   8  10
ENDBRANCH   6   7
ENDBRANCH   5   6
ENDBRANCH   3   5
ENDBRANCH   1   2
BRANCH   1  16
ATOM     16  C   UNL A   1      -3.185   7.790  48.356  0.00  0.00    +0.051 C 
BRANCH  16  18
ATOM     17  O   UNL A   1      -4.911   6.613  47.186  0.00  0.00    -0.486 OA
ATOM     18  C   UNL A   1      -3.657   6.393  47.863  0.00  0.00    +0.108 C 
ATOM     19  C   UNL A   1      -2.618   5.832  46.874  0.00  0.00    +0.052 C 
ATOM     20  C   UNL A   1      -3.082   4.500  46.292  0.00  0.00    +0.043 C 
ATOM     21  C   UNL A   1      -3.880   5.453  49.065  0.00  0.00    +0.056 C 
ATOM     22  C   UNL A   1      -4.539   4.551  45.933  0.00  0.00    -0.002 A 
ATOM     23  C   UNL A   1      -5.348   5.608  46.371  0.00  0.00    +0.125 A 
ATOM     24  C   UNL A   1      -5.118   3.522  45.177  0.00  0.00    +0.052 A 
ATOM     25  C   UNL A   1      -6.686   5.685  45.984  0.00  0.00    +0.049 A 
ATOM     26  C   UNL A   1      -6.462   3.598  44.835  0.00  0.00    +0.117 A 
ATOM     27  C   UNL A   1      -7.248   4.678  45.205  0.00  0.00    +0.049 A 
BRANCH  26  28
ATOM     28  O   UNL A   1      -7.050   2.586  44.132  0.00  0.00    -0.507 OA
ATOM     29  H   UNL A   1      -8.010   2.717  44.229  0.00  0.00    +0.292 HD
ENDBRANCH  26  28
ENDBRANCH  16  18
ENDBRANCH   1  16
TORSDOF 10
ENDMDL
MODEL 9
REMARK VINA RESULT:      -7.6     21.377     23.636
REMARK  Name = D03VFL
REMARK  15 active torsions:
REMARK  status: ('A' for Active; 'I' for Inactive)
REMARK    1  A    between atoms: O_2  and  C_15
REMARK    2  A    between atoms: C_3  and  C_5
REMARK    3  A    between atoms: C_3  and  C_7
REMARK    4  A    between atoms: C_5  and  C_9
REMARK    5  A    between atoms: C_9  and  C_11
REMARK    6  A    between atoms: C_14  and  C_17
REMARK    7  A    between atoms: C_14  and  C_19
REMARK    8  A    between atoms: C_17  and  C_18
REMARK    9  A    between atoms: C_18  and  C_20
REMARK   10  A    between atoms: C_21  and  C_22
REMARK   11  A    between atoms: C_21  and  C_24
REMARK   12  A    between atoms: C_22  and  C_23
REMARK   13  A    between atoms: C_23  and  C_25
REMARK   14  A    between atoms: C_26  and  C_27
REMARK   15  A    between atoms: C_26  and  C_28
REMARK                            x       y       z     vdW  Elec       q    Type
REMARK                         _______ _______ _______ _____ _____    ______ ____
ROOT
ATOM      1  C   UNL A   1     -12.114   8.947  45.772  0.00  0.00    +0.031 C 
ENDROOT
BRANCH   1   2
ATOM      2  C   UNL A   1     -12.964   9.247  46.973  0.00  0.00    -0.028 C 
ATOM      3  C   UNL A   1     -13.785  10.304  47.127  0.00  0.00    -0.076 C 
ATOM      4  C   UNL A   1     -13.901  11.422  46.127  0.00  0.00    +0.038 C 
BRANCH   3   5
ATOM      5  C   UNL A   1     -14.678  10.408  48.345  0.00  0.00    +0.034 C 
BRANCH   5   6
ATOM      6  C   UNL A   1     -16.159  10.374  47.961  0.00  0.00    +0.031 C 
BRANCH   6   7
ATOM      7  C   UNL A   1     -16.586   8.990  47.557  0.00  0.00    -0.027 C 
ATOM      8  C   UNL A   1     -17.134   8.053  48.356  0.00  0.00    -0.076 C 
ATOM      9  C   UNL A   1     -17.374   8.257  49.828  0.00  0.00    +0.038 C 
BRANCH   8  10
ATOM     10  C   UNL A   1     -17.549   6.711  47.791  0.00  0.00    +0.034 C 
BRANCH  10  11
ATOM     11  C   UNL A   1     -17.022   6.511  46.366  0.00  0.00    +0.031 C 
BRANCH  11  12
ATOM     12  C   UNL A   1     -15.784   5.657  46.345  0.00  0.00    -0.028 C 
ATOM     13  C   UNL A   1     -15.488   4.693  45.451  0.00  0.00    -0.080 C 
ATOM     14  C   UNL A   1     -16.407   4.276  44.337  0.00  0.00    +0.038 C 
ATOM     15  C   UNL A   1     -14.178   3.957  45.512  0.00  0.00    +0.038 C 
ENDBRANCH  11  12
ENDBRANCH  10  11
ENDBRANCH   8  10
ENDBRANCH   6   7
ENDBRANCH   5   6
ENDBRANCH   3   5
ENDBRANCH   1   2
BRANCH   1  16
ATOM     16  C   UNL A   1     -12.525   7.654  45.054  0.00  0.00    +0.051 C 
BRANCH  16  18
ATOM     17  O   UNL A   1     -13.411   9.270  43.527  0.00  0.00    -0.486 OA
ATOM     18  C   UNL A   1     -12.997   7.890  43.592  0.00  0.00    +0.108 C 
ATOM     19  C   UNL A   1     -11.813   7.652  42.637  0.00  0.00    +0.052 C 
ATOM     20  C   UNL A   1     -12.204   7.961  41.194  0.00  0.00    +0.043 C 
ATOM     21  C   UNL A   1     -14.197   6.979  43.266  0.00  0.00    +0.056 C 
ATOM     22  C   UNL A   1     -13.013   9.222  41.118  0.00  0.00    -0.002 A 
ATOM     23  C   UNL A   1     -13.535   9.811  42.278  0.00  0.00    +0.125 A 
ATOM     24  C   UNL A   1     -13.284   9.816  39.877  0.00  0.00    +0.052 A 
ATOM     25  C   UNL A   1     -14.233  11.016  42.210  0.00  0.00    +0.049 A 
ATOM     26  C   UNL A   1     -14.015  10.996  39.827  0.00  0.00    +0.117 A 
ATOM     27  C   UNL A   1     -14.471  11.618  40.979  0.00  0.00    +0.049 A 
BRANCH  26  28
ATOM     28  O   UNL A   1     -14.320  11.566  38.625  0.00  0.00    -0.507 OA
ATOM     29  H   UNL A   1     -13.776  12.370  38.566  0.00  0.00    +0.292 HD
ENDBRANCH  26  28
ENDBRANCH  16  18
ENDBRANCH   1  16
TORSDOF 10
ENDMDL
MODEL 10
REMARK VINA RESULT:      -7.5     21.075     23.307
REMARK  Name = D03VFL
REMARK  15 active torsions:
REMARK  status: ('A' for Active; 'I' for Inactive)
REMARK    1  A    between atoms: O_2  and  C_15
REMARK    2  A    between atoms: C_3  and  C_5
REMARK    3  A    between atoms: C_3  and  C_7
REMARK    4  A    between atoms: C_5  and  C_9
REMARK    5  A    between atoms: C_9  and  C_11
REMARK    6  A    between atoms: C_14  and  C_17
REMARK    7  A    between atoms: C_14  and  C_19
REMARK    8  A    between atoms: C_17  and  C_18
REMARK    9  A    between atoms: C_18  and  C_20
REMARK   10  A    between atoms: C_21  and  C_22
REMARK   11  A    between atoms: C_21  and  C_24
REMARK   12  A    between atoms: C_22  and  C_23
REMARK   13  A    between atoms: C_23  and  C_25
REMARK   14  A    between atoms: C_26  and  C_27
REMARK   15  A    between atoms: C_26  and  C_28
REMARK                            x       y       z     vdW  Elec       q    Type
REMARK                         _______ _______ _______ _____ _____    ______ ____
ROOT
ATOM      1  C   UNL A   1     -13.589   6.533  45.104  0.00  0.00    +0.031 C 
ENDROOT
BRANCH   1   2
ATOM      2  C   UNL A   1     -14.883   6.672  45.852  0.00  0.00    -0.028 C 
ATOM      3  C   UNL A   1     -16.091   6.235  45.446  0.00  0.00    -0.076 C 
ATOM      4  C   UNL A   1     -16.343   5.612  44.100  0.00  0.00    +0.038 C 
BRANCH   3   5
ATOM      5  C   UNL A   1     -17.289   6.334  46.366  0.00  0.00    +0.034 C 
BRANCH   5   6
ATOM      6  C   UNL A   1     -16.946   7.082  47.658  0.00  0.00    +0.031 C 
BRANCH   6   7
ATOM      7  C   UNL A   1     -16.944   8.570  47.443  0.00  0.00    -0.027 C 
ATOM      8  C   UNL A   1     -16.018   9.443  47.883  0.00  0.00    -0.076 C 
ATOM      9  C   UNL A   1     -14.826   9.042  48.710  0.00  0.00    +0.038 C 
BRANCH   8  10
ATOM     10  C   UNL A   1     -16.136  10.917  47.552  0.00  0.00    +0.034 C 
BRANCH  10  11
ATOM     11  C   UNL A   1     -15.096  11.750  48.308  0.00  0.00    +0.031 C 
BRANCH  11  12
ATOM     12  C   UNL A   1     -14.164  12.463  47.367  0.00  0.00    -0.028 C 
ATOM     13  C   UNL A   1     -12.843  12.241  47.222  0.00  0.00    -0.080 C 
ATOM     14  C   UNL A   1     -12.067  11.251  48.047  0.00  0.00    +0.038 C 
ATOM     15  C   UNL A   1     -12.039  12.987  46.193  0.00  0.00    +0.038 C 
ENDBRANCH  11  12
ENDBRANCH  10  11
ENDBRANCH   8  10
ENDBRANCH   6   7
ENDBRANCH   5   6
ENDBRANCH   3   5
ENDBRANCH   1   2
BRANCH   1  16
ATOM     16  C   UNL A   1     -12.570   7.626  45.459  0.00  0.00    +0.051 C 
BRANCH  16  18
ATOM     17  O   UNL A   1     -12.743   8.298  43.168  0.00  0.00    -0.486 OA
ATOM     18  C   UNL A   1     -12.624   8.845  44.497  0.00  0.00    +0.108 C 
ATOM     19  C   UNL A   1     -13.865   9.693  44.829  0.00  0.00    +0.052 C 
ATOM     20  C   UNL A   1     -14.011  10.856  43.850  0.00  0.00    +0.043 C 
ATOM     21  C   UNL A   1     -11.319   9.662  44.600  0.00  0.00    +0.056 C 
ATOM     22  C   UNL A   1     -13.737  10.408  42.444  0.00  0.00    -0.002 A 
ATOM     23  C   UNL A   1     -13.156   9.159  42.189  0.00  0.00    +0.125 A 
ATOM     24  C   UNL A   1     -14.034  11.249  41.362  0.00  0.00    +0.052 A 
ATOM     25  C   UNL A   1     -12.960   8.720  40.880  0.00  0.00    +0.049 A 
ATOM     26  C   UNL A   1     -13.796  10.809  40.067  0.00  0.00    +0.117 A 
ATOM     27  C   UNL A   1     -13.287   9.545  39.809  0.00  0.00    +0.049 A 
BRANCH  26  28
ATOM     28  O   UNL A   1     -14.043  11.631  39.005  0.00  0.00    -0.507 OA
ATOM     29  H   UNL A   1     -13.571  12.461  39.194  0.00  0.00    +0.292 HD
ENDBRANCH  26  28
ENDBRANCH  16  18
ENDBRANCH   1  16
TORSDOF 10
ENDMDL
