REMARK VINA RESULT:      -7.6     21.164     23.526
REMARK  Name = D03VFL
REMARK  15 active torsions:
REMARK  status: ('A' for Active; 'I' for Inactive)
REMARK    1  A    between atoms: O_2  and  C_15
REMARK    2  A    between atoms: C_3  and  C_5
REMARK    3  A    between atoms: C_3  and  C_7
REMARK    4  A    between atoms: C_5  and  C_9
REMARK    5  A    between atoms: C_9  and  C_11
REMARK    6  A    between atoms: C_14  and  C_17
REMARK    7  A    between atoms: C_14  and  C_19
REMARK    8  A    between atoms: C_17  and  C_18
REMARK    9  A    between atoms: C_18  and  C_20
REMARK   10  A    between atoms: C_21  and  C_22
REMARK   11  A    between atoms: C_21  and  C_24
REMARK   12  A    between atoms: C_22  and  C_23
REMARK   13  A    between atoms: C_23  and  C_25
REMARK   14  A    between atoms: C_26  and  C_27
REMARK   15  A    between atoms: C_26  and  C_28
REMARK                            x       y       z     vdW  Elec       q    Type
REMARK                         _______ _______ _______ _____ _____    ______ ____
ROOT
ATOM      1  C   UNL A   1     -10.969   8.285  45.377  0.00  0.00    +0.031 C 
ENDROOT
BRANCH   1   2
ATOM      2  C   UNL A   1     -11.169   9.742  45.677  0.00  0.00    -0.028 C 
ATOM      3  C   UNL A   1     -11.535  10.271  46.860  0.00  0.00    -0.076 C 
ATOM      4  C   UNL A   1     -11.901   9.446  48.064  0.00  0.00    +0.038 C 
BRANCH   3   5
ATOM      5  C   UNL A   1     -11.575  11.773  47.048  0.00  0.00    +0.034 C 
BRANCH   5   6
ATOM      6  C   UNL A   1     -12.563  12.433  46.083  0.00  0.00    +0.031 C 
BRANCH   6   7
ATOM      7  C   UNL A   1     -13.882  11.712  46.074  0.00  0.00    -0.027 C 
ATOM      8  C   UNL A   1     -14.931  11.948  46.885  0.00  0.00    -0.076 C 
ATOM      9  C   UNL A   1     -14.919  12.984  47.977  0.00  0.00    +0.038 C 
BRANCH   8  10
ATOM     10  C   UNL A   1     -16.215  11.159  46.728  0.00  0.00    +0.034 C 
BRANCH  10  11
ATOM     11  C   UNL A   1     -16.426  10.188  47.894  0.00  0.00    +0.031 C 
BRANCH  11  12
ATOM     12  C   UNL A   1     -15.619   8.930  47.724  0.00  0.00    -0.028 C 
ATOM     13  C   UNL A   1     -16.062   7.750  47.247  0.00  0.00    -0.080 C 
ATOM     14  C   UNL A   1     -17.489   7.490  46.853  0.00  0.00    +0.038 C 
ATOM     15  C   UNL A   1     -15.126   6.585  47.069  0.00  0.00    +0.038 C 
ENDBRANCH  11  12
ENDBRANCH  10  11
ENDBRANCH   8  10
ENDBRANCH   6   7
ENDBRANCH   5   6
ENDBRANCH   3   5
ENDBRANCH   1   2
BRANCH   1  16
ATOM     16  C   UNL A   1     -12.287   7.535  45.136  0.00  0.00    +0.051 C 
BRANCH  16  18
ATOM     17  O   UNL A   1     -13.245   9.142  43.643  0.00  0.00    -0.486 OA
ATOM     18  C   UNL A   1     -12.862   7.754  43.709  0.00  0.00    +0.108 C 
ATOM     19  C   UNL A   1     -11.760   7.463  42.673  0.00  0.00    +0.052 C 
ATOM     20  C   UNL A   1     -12.251   7.752  41.257  0.00  0.00    +0.043 C 
ATOM     21  C   UNL A   1     -14.106   6.868  43.495  0.00  0.00    +0.056 C 
ATOM     22  C   UNL A   1     -13.032   9.033  41.213  0.00  0.00    -0.002 A 
ATOM     23  C   UNL A   1     -13.450   9.660  42.394  0.00  0.00    +0.125 A 
ATOM     24  C   UNL A   1     -13.380   9.607  39.982  0.00  0.00    +0.052 A 
ATOM     25  C   UNL A   1     -14.120  10.881  42.352  0.00  0.00    +0.049 A 
ATOM     26  C   UNL A   1     -14.083  10.805  39.960  0.00  0.00    +0.117 A 
ATOM     27  C   UNL A   1     -14.435  11.464  41.128  0.00  0.00    +0.049 A 
BRANCH  26  28
ATOM     28  O   UNL A   1     -14.463  11.357  38.771  0.00  0.00    -0.507 OA
ATOM     29  H   UNL A   1     -14.419  10.638  38.117  0.00  0.00    +0.292 HD
ENDBRANCH  26  28
ENDBRANCH  16  18
ENDBRANCH   1  16
TORSDOF 10
