REMARK VINA RESULT:      -7.5     21.075     23.307
REMARK  Name = D03VFL
REMARK  15 active torsions:
REMARK  status: ('A' for Active; 'I' for Inactive)
REMARK    1  A    between atoms: O_2  and  C_15
REMARK    2  A    between atoms: C_3  and  C_5
REMARK    3  A    between atoms: C_3  and  C_7
REMARK    4  A    between atoms: C_5  and  C_9
REMARK    5  A    between atoms: C_9  and  C_11
REMARK    6  A    between atoms: C_14  and  C_17
REMARK    7  A    between atoms: C_14  and  C_19
REMARK    8  A    between atoms: C_17  and  C_18
REMARK    9  A    between atoms: C_18  and  C_20
REMARK   10  A    between atoms: C_21  and  C_22
REMARK   11  A    between atoms: C_21  and  C_24
REMARK   12  A    between atoms: C_22  and  C_23
REMARK   13  A    between atoms: C_23  and  C_25
REMARK   14  A    between atoms: C_26  and  C_27
REMARK   15  A    between atoms: C_26  and  C_28
REMARK                            x       y       z     vdW  Elec       q    Type
REMARK                         _______ _______ _______ _____ _____    ______ ____
ROOT
ATOM      1  C   UNL A   1     -13.589   6.533  45.104  0.00  0.00    +0.031 C 
ENDROOT
BRANCH   1   2
ATOM      2  C   UNL A   1     -14.883   6.672  45.852  0.00  0.00    -0.028 C 
ATOM      3  C   UNL A   1     -16.091   6.235  45.446  0.00  0.00    -0.076 C 
ATOM      4  C   UNL A   1     -16.343   5.612  44.100  0.00  0.00    +0.038 C 
BRANCH   3   5
ATOM      5  C   UNL A   1     -17.289   6.334  46.366  0.00  0.00    +0.034 C 
BRANCH   5   6
ATOM      6  C   UNL A   1     -16.946   7.082  47.658  0.00  0.00    +0.031 C 
BRANCH   6   7
ATOM      7  C   UNL A   1     -16.944   8.570  47.443  0.00  0.00    -0.027 C 
ATOM      8  C   UNL A   1     -16.018   9.443  47.883  0.00  0.00    -0.076 C 
ATOM      9  C   UNL A   1     -14.826   9.042  48.710  0.00  0.00    +0.038 C 
BRANCH   8  10
ATOM     10  C   UNL A   1     -16.136  10.917  47.552  0.00  0.00    +0.034 C 
BRANCH  10  11
ATOM     11  C   UNL A   1     -15.096  11.750  48.308  0.00  0.00    +0.031 C 
BRANCH  11  12
ATOM     12  C   UNL A   1     -14.164  12.463  47.367  0.00  0.00    -0.028 C 
ATOM     13  C   UNL A   1     -12.843  12.241  47.222  0.00  0.00    -0.080 C 
ATOM     14  C   UNL A   1     -12.067  11.251  48.047  0.00  0.00    +0.038 C 
ATOM     15  C   UNL A   1     -12.039  12.987  46.193  0.00  0.00    +0.038 C 
ENDBRANCH  11  12
ENDBRANCH  10  11
ENDBRANCH   8  10
ENDBRANCH   6   7
ENDBRANCH   5   6
ENDBRANCH   3   5
ENDBRANCH   1   2
BRANCH   1  16
ATOM     16  C   UNL A   1     -12.570   7.626  45.459  0.00  0.00    +0.051 C 
BRANCH  16  18
ATOM     17  O   UNL A   1     -12.743   8.298  43.168  0.00  0.00    -0.486 OA
ATOM     18  C   UNL A   1     -12.624   8.845  44.497  0.00  0.00    +0.108 C 
ATOM     19  C   UNL A   1     -13.865   9.693  44.829  0.00  0.00    +0.052 C 
ATOM     20  C   UNL A   1     -14.011  10.856  43.850  0.00  0.00    +0.043 C 
ATOM     21  C   UNL A   1     -11.319   9.662  44.600  0.00  0.00    +0.056 C 
ATOM     22  C   UNL A   1     -13.737  10.408  42.444  0.00  0.00    -0.002 A 
ATOM     23  C   UNL A   1     -13.156   9.159  42.189  0.00  0.00    +0.125 A 
ATOM     24  C   UNL A   1     -14.034  11.249  41.362  0.00  0.00    +0.052 A 
ATOM     25  C   UNL A   1     -12.960   8.720  40.880  0.00  0.00    +0.049 A 
ATOM     26  C   UNL A   1     -13.796  10.809  40.067  0.00  0.00    +0.117 A 
ATOM     27  C   UNL A   1     -13.287   9.545  39.809  0.00  0.00    +0.049 A 
BRANCH  26  28
ATOM     28  O   UNL A   1     -14.043  11.631  39.005  0.00  0.00    -0.507 OA
ATOM     29  H   UNL A   1     -13.571  12.461  39.194  0.00  0.00    +0.292 HD
ENDBRANCH  26  28
ENDBRANCH  16  18
ENDBRANCH   1  16
TORSDOF 10
